Title
81333
    1CHL1    C3    1   2.914   5.038  10.361 -0.7796 -0.5194 -0.3867
    1CHL1    H3    2   2.855   4.945  10.378 -0.2839 -1.0101 -1.2611
    1CHL1    O3    3   2.995   5.061  10.475  0.2718 -0.5119 -0.6354
    1CHL1   H3'    4   3.034   5.146  10.452 -0.2300 -0.3514 -0.9044
    1CHL1    C4    5   3.003   5.013  10.242  0.2196  0.0100  0.3487
    1CHL1   H4A    6   3.065   5.104  10.239  2.8748 -1.7165 -0.0189
    1CHL1   H4B    7   3.075   4.933  10.268 -0.2198 -0.0840  1.3339
    1CHL1    C5    8   2.920   4.996  10.114  0.3435 -0.0402  0.1975
    1CHL1    C6    9   2.924   4.875  10.048 -0.1930 -1.0152  0.2148
    1CHL1    H6   10   2.994   4.800  10.088 -0.9933 -1.4393  0.8358
    1CHL1    C7   11   2.866   4.845   9.915  0.3721 -0.3938  0.0394
    1CHL1   H7A   12   2.934   4.808   9.835  3.5533  0.2277  2.2817
    1CHL1   H7B   13   2.791   4.764   9.931  2.2126 -1.8644  1.7686
    1CHL1    C8   14   2.791   4.971   9.854 -0.5408 -0.1548  0.7639
    1CHL1    H8   15   2.873   5.029   9.805 -2.5148  1.8414 -0.3604
    1CHL1   C14   16   2.691   4.933   9.751 -0.0878  1.1424 -0.0606
    1CHL1   H14   17   2.603   4.891   9.804 -0.0330  2.1250  0.8402
    1CHL1   C15   18   2.733   4.831   9.645 -1.2756  0.0027  0.1875
    1CHL1  H15A   19   2.834   4.862   9.609 -1.8545  1.6385 -0.1502
    1CHL1  H15B   20   2.736   4.723   9.668 -2.0265 -0.8146 -3.0565
    1CHL1   C16   21   2.643   4.855   9.527  1.0194 -0.6549 -0.3062
    1CHL1  H16A   22   2.704   4.858   9.434 -0.2547  1.3651 -1.1529
    1CHL1  H16B   23   2.566   4.775   9.521  0.6990 -0.2679 -1.8948
    1CHL1   C17   24   2.556   4.985   9.560  0.0543  0.1080  0.3969
    1CHL1   H17   25   2.462   4.957   9.613 -2.5390  1.5454 -3.0146
    1CHL1   C13   26   2.641   5.052   9.672  0.1734  1.0149 -0.2120
    1CHL1   C18   27   2.744   5.131   9.597 -0.4436 -0.0930  0.6971
    1CHL1  H18A   28   2.702   5.222   9.550 -0.5236 -0.7989 -0.6547
    1CHL1  H18B   29   2.823   5.169   9.665 -0.5979 -0.2794  0.9839
    1CHL1  H18C   30   2.793   5.067   9.520  1.4552  0.2804  1.5401
    1CHL1   C12   31   2.565   5.139   9.771 -0.7961  0.0316 -0.1488
    1CHL1  H12A   32   2.533   5.227   9.711 -1.4603  1.1055  1.6979
    1CHL1  H12B   33   2.474   5.085   9.807  0.8938 -2.8440  0.0939
    1CHL1   C11   34   2.655   5.187   9.884 -0.3428  0.4668 -0.4388
    1CHL1  H11A   35   2.721   5.268   9.847  0.7457 -0.2885 -0.1927
    1CHL1  H11B   36   2.594   5.246   9.956  0.9162  0.5908  0.5601
    1CHL1    C9   37   2.730   5.069   9.957  0.2114 -0.1610  0.2491
    1CHL1    H9   38   2.653   5.012  10.013 -0.2153 -0.1814 -0.3553
    1CHL1   C10   39   2.835   5.111  10.065 -0.2679 -0.3681 -0.4195
    1CHL1   C19   40   2.918   5.235  10.014 -0.5237  0.2711 -0.4457
    1CHL1  H19A   41   2.856   5.327  10.008 -0.6585  0.2861  0.8843
    1CHL1  H19B   42   2.996   5.253  10.091  0.0235 -1.2826 -0.6037
    1CHL1  H19C   43   2.964   5.212   9.915  0.2482 -0.9691  0.1767
    1CHL1    C1   44   2.748   5.150  10.196 -0.6190 -0.0155  0.4054
    1CHL1   H1A   45   2.686   5.241  10.179 -0.5011 -0.0296 -0.1372
    1CHL1   H1B   46   2.673   5.069  10.209 -2.2710  1.3223 -0.3694
    1CHL1    C2   47   2.815   5.158  10.338 -0.0904  0.1472  0.5836
    1CHL1   H2A   48   2.733   5.156  10.414 -0.7191  2.2695  0.0252
    1CHL1   H2B   49   2.860   5.258  10.354 -0.7340  0.4300  0.6996
    1CHL1   C20   50   2.507   5.064   9.435 -0.6055  0.4327  0.1135
    1CHL1   H20   51   2.598   5.103   9.385  0.7596 -3.7330 -1.0817
    1CHL1   C21   52   2.416   5.180   9.467  0.1381  0.6808 -0.5988
    1CHL1  H21A   53   2.480   5.258   9.513 -0.8621  0.3764  1.4198
    1CHL1  H21B   54   2.347   5.139   9.543 -0.3851  1.2884 -0.7441
    1CHL1  H21C   55   2.367   5.213   9.373 -1.3437  1.1420  0.3071
    1CHL1   C22   56   2.436   4.966   9.333 -0.2205 -0.8242 -0.7861
    1CHL1  H22A   57   2.473   4.861   9.342  0.7073 -0.3350  1.7208
    1CHL1  H22B   58   2.329   4.953   9.363 -0.1227 -0.3490 -0.2094
    1CHL1   C23   59   2.454   5.034   9.194  0.5126  0.4755 -0.1836
    1CHL1  H23A   60   2.383   5.120   9.191 -1.9713 -1.4758 -0.8976
    1CHL1  H23B   61   2.555   5.075   9.173  0.4516  0.2300 -0.9938
    1CHL1   C24   62   2.398   4.941   9.080 -0.0167 -0.3069  0.5579
    1CHL1  H24A   63   2.443   4.841   9.096 -0.7045 -0.4340  1.8374
    1CHL1  H24B   64   2.287   4.946   9.081 -0.1586  2.0053 -3.6125
    1CHL1   C25   65   2.431   4.992   8.931 -0.7646 -0.4857  0.6449
    1CHL1   H25   66   2.540   5.002   8.916 -1.1166  1.0633 -1.2602
    1CHL1   C26   67   2.394   4.880   8.824  0.2467  0.0417 -0.0172
    1CHL1  H26A   68   2.445   4.894   8.725  1.0278 -1.9067  0.0451
    1CHL1  H26B   69   2.427   4.782   8.865  0.6767  0.3201  0.3145
    1CHL1  H26C   70   2.284   4.875   8.814  0.2205 -1.8236  0.7953
    1CHL1   C27   71   2.359   5.123   8.892  0.2325 -0.3065  0.1994
    1CHL1  H27A   72   2.402   5.201   8.958  1.8930 -1.0001 -0.0093
    1CHL1  H27B   73   2.372   5.144   8.784  0.1978 -2.0279 -0.1788
    1CHL1  H27C   74   2.254   5.124   8.929  1.2316  0.8321  3.3599
    2CHL1    C3   75   2.657   2.845  10.047 -0.3546  0.2678 -0.2813
    2CHL1    H3   76   2.560   2.851   9.993  0.2960 -0.5255 -1.6096
    2CHL1    O3   77   2.648   2.817  10.184  0.0676  0.5483 -0.4034
    2CHL1   H3'   78   2.586   2.883  10.216 -2.2969 -1.0494 -1.3948
    2CHL1    C4   79   2.729   2.724   9.977  0.3830 -0.4076 -0.2671
    2CHL1   H4A   80   2.824   2.690  10.025  0.2663  0.7627  0.8440
    2CHL1   H4B   81   2.661   2.638   9.996 -1.3110 -0.1398 -4.2338
    2CHL1    C5   82   2.746   2.758   9.829 -0.6415  1.2020 -0.0613
    2CHL1    C6   83   2.691   2.690   9.726  0.2772  0.5642 -0.1940
    2CHL1    H6   84   2.632   2.599   9.742 -2.8780  2.4223 -0.3978
    2CHL1    C7   85   2.705   2.734   9.587 -0.4564 -0.0605  0.4441
    2CHL1   H7A   86   2.718   2.650   9.517  2.3262  1.4295 -0.9745
    2CHL1   H7B   87   2.616   2.793   9.556  0.6471  2.0133  1.0252
    2CHL1    C8   88   2.835   2.826   9.564 -0.3091  0.1346 -0.2613
    2CHL1    H8   89   2.925   2.764   9.577 -0.9939 -1.0451 -0.9963
    2CHL1   C14   90   2.835   2.892   9.421  0.7015  0.2832  0.5090
    2CHL1   H14   91   2.746   2.959   9.423 -0.1210 -0.7874  1.0245
    2CHL1   C15   92   2.812   2.787   9.308  0.0802  0.0400  1.0365
    2CHL1  H15A   93   2.859   2.693   9.343 -1.2354 -0.7251  0.7812
    2CHL1  H15B   94   2.703   2.767   9.304  0.3042 -1.1006  0.2640
    2CHL1   C16   95   2.860   2.871   9.183  0.2336 -0.2299 -0.6286
    2CHL1  H16A   96   2.954   2.824   9.148  1.4827 -1.0567  3.3336
    2CHL1  H16B   97   2.786   2.896   9.105  1.7152  1.6272 -1.5054
    2CHL1   C17   98   2.922   3.006   9.238  0.1623 -0.4280  0.3346
    2CHL1   H17   99   2.839   3.080   9.244  0.9503  0.5918 -0.8170
    2CHL1   C13  100   2.957   2.973   9.390  0.4773 -0.4639  0.2707
    2CHL1   C18  101   3.093   2.900   9.391  1.1182 -1.0035  0.8296
    2CHL1  H18A  102   3.118   2.861   9.492  0.1176 -0.5936  1.2523
    2CHL1  H18B  103   3.078   2.809   9.330  2.0496  0.4884 -1.7972
    2CHL1  H18C  104   3.171   2.955   9.335  0.7527 -1.1001  0.2097
    2CHL1   C12  105   2.956   3.086   9.493  0.9483  0.3608 -0.5421
    2CHL1  H12A  106   3.054   3.137   9.479  1.1491  0.5234  1.2655
    2CHL1  H12B  107   2.869   3.151   9.470  0.3689 -0.3250 -0.3056
    2CHL1   C11  108   2.948   3.042   9.639  0.0911  0.4958 -0.2209
    2CHL1  H11A  109   3.049   3.006   9.670 -0.0996 -1.7232 -1.9610
    2CHL1  H11B  110   2.917   3.132   9.697 -1.5272  0.5453 -1.1195
    2CHL1    C9  111   2.839   2.937   9.668  0.3401  0.4903 -0.6906
    2CHL1    H9  112   2.744   2.992   9.652 -1.2138 -2.6317 -3.1098
    2CHL1   C10  113   2.826   2.895   9.817  0.3737 -0.4803 -0.1632
    2CHL1   C19  114   2.969   2.880   9.876  0.4880  0.0304  0.0714
    2CHL1  H19A  115   2.955   2.832   9.976 -0.4943 -2.4925 -1.1769
    2CHL1  H19B  116   3.037   2.821   9.812  1.1593  1.4742 -0.5710
    2CHL1  H19C  117   3.014   2.981   9.880  0.6664  0.0264 -1.4161
    2CHL1    C1  118   2.745   3.014   9.887 -0.2253 -0.0236 -0.5117
    2CHL1   H1A  119   2.783   3.117   9.875 -1.3494  0.4562 -0.1580
    2CHL1   H1B  120   2.645   3.032   9.843 -0.2570  1.7519  0.1911
    2CHL1    C2  121   2.721   2.982  10.034 -0.6120 -0.1828 -0.3145
    2CHL1   H2A  122   2.662   3.070  10.068  0.7683  0.2576  1.0427
    2CHL1   H2B  123   2.816   2.988  10.092  1.5329 -1.1575 -3.4695
    2CHL1   C20  124   3.043   3.065   9.152  0.6922 -0.2875  0.6106
    2CHL1   H20  125   3.115   2.981   9.145  0.2228 -0.5797 -1.8219
    2CHL1   C21  126   3.118   3.180   9.217 -0.0310  0.2160  0.0715
    2CHL1  H21A  127   3.203   3.208   9.151 -0.2078 -2.0563 -1.2090
    2CHL1  H21B  128   3.169   3.147   9.310  0.2796  0.9515  0.1675
    2CHL1  H21C  129   3.048   3.263   9.241  0.2627  0.1602  1.1999
    2CHL1   C22  130   3.003   3.111   9.013  0.3069 -0.0443 -0.4805
    2CHL1  H22A  131   3.094   3.129   8.952  0.6385 -4.1415 -1.4620
    2CHL1  H22B  132   2.944   3.036   8.956 -2.1425  1.3153  0.1176
    2CHL1   C23  133   2.909   3.226   8.997  0.0666  0.1747  0.5478
    2CHL1  H23A  134   2.808   3.204   9.037  0.6500  1.2175  2.7104
    2CHL1  H23B  135   2.945   3.314   9.054 -1.6696  0.0453  1.9324
    2CHL1   C24  136   2.890   3.253   8.842 -0.6714  0.4879 -0.2099
    2CHL1  H24A  137   2.971   3.317   8.801 -0.3164  0.4416  0.4143
    2CHL1  H24B  138   2.896   3.155   8.790 -0.3472 -1.0925  2.6388
    2CHL1   C25  139   2.756   3.310   8.800  0.3925 -0.3902 -0.7418
    2CHL1   H25  140   2.669   3.243   8.817  0.4241 -0.3698 -0.4963
    2CHL1   C26  141   2.726   3.433   8.881 -1.0479 -0.4235  0.1953
    2CHL1  H26A  142   2.696   3.412   8.986 -0.1980  2.4256  1.1054
    2CHL1  H26B  143   2.811   3.505   8.873  0.2745 -2.0458 -1.5476
    2CHL1  H26C  144   2.641   3.491   8.839 -0.7354 -0.8445 -1.0672
    2CHL1   C27  145   2.756   3.345   8.648 -0.4357  0.5196  0.2229
    2CHL1  H27A  146   2.782   3.259   8.582 -0.1427 -0.8632  2.0361
    2CHL1  H27B  147   2.657   3.388   8.626 -0.2774  0.7369 -0.0628
    2CHL1  H27C  148   2.839   3.417   8.634  1.4839 -1.4241  0.9493
    3CHL1    C3  149   5.595   1.420  10.196  0.2064 -0.0424 -1.2166
    3CHL1    H3  150   5.630   1.517  10.156 -0.3558  1.4527  1.6764
    3CHL1    O3  151   5.537   1.446  10.327  0.5749 -0.4136  0.0373
    3CHL1   H3'  152   5.490   1.369  10.361 -1.5972  0.5002 -0.7219
    3CHL1    C4  153   5.489   1.359  10.102  0.5295 -0.2422  0.2767
    3CHL1   H4A  154   5.431   1.281  10.157  0.0861  1.1039  1.7969
    3CHL1   H4B  155   5.418   1.442  10.083  1.8576  0.5449 -1.4096
    3CHL1    C5  156   5.540   1.309   9.965 -0.2438 -0.0174 -0.2531
    3CHL1    C6  157   5.485   1.351   9.843 -0.4150  0.6156  0.3515
    3CHL1    H6  158   5.395   1.413   9.835 -1.1453 -0.5338 -0.6181
    3CHL1    C7  159   5.539   1.299   9.705  0.5426  0.9761 -0.4116
    3CHL1   H7A  160   5.452   1.262   9.647  1.6688 -1.0518 -0.8934
    3CHL1   H7B  161   5.592   1.379   9.649  0.1728  0.8537 -0.9400
    3CHL1    C8  162   5.658   1.192   9.714  0.3868 -0.1667  0.4629
    3CHL1    H8  163   5.625   1.087   9.730  2.8408 -1.6409 -2.8720
    3CHL1   C14  164   5.736   1.189   9.585 -0.5479 -0.5987 -0.3830
    3CHL1   H14  165   5.782   1.290   9.583  0.1000 -0.8786 -0.0034
    3CHL1   C15  166   5.669   1.169   9.451 -1.1390  0.2157  0.3441
    3CHL1  H15A  167   5.609   1.076   9.463  0.5672 -0.9910 -0.0489
    3CHL1  H15B  168   5.610   1.258   9.420 -0.9516  0.8935  1.8563
    3CHL1   C16  169   5.790   1.143   9.349 -0.2189 -0.0727  0.4646
    3CHL1  H16A  170   5.770   1.059   9.280 -0.5315 -0.1616  0.6619
    3CHL1  H16B  171   5.826   1.234   9.296 -1.1766  1.0378  1.6477
    3CHL1   C17  172   5.904   1.096   9.441 -1.0839  0.0740 -0.3436
    3CHL1   H17  173   5.963   1.190   9.451 -3.2788  1.3473  1.6251
    3CHL1   C13  174   5.843   1.085   9.582 -1.1504  0.1742  0.3479
    3CHL1   C18  175   5.789   0.936   9.600  0.1498 -0.4207  0.7235
    3CHL1  H18A  176   5.864   0.858   9.575  0.1971  0.1650 -1.0724
    3CHL1  H18B  177   5.761   0.926   9.707  0.1031  2.7615  1.1134
    3CHL1  H18C  178   5.702   0.905   9.538  0.9922  0.0295 -0.7113
    3CHL1   C12  179   5.950   1.129   9.699  0.7779 -0.3259  0.2547
    3CHL1  H12A  180   6.018   1.041   9.705 -1.5341 -2.1471  1.3760
    3CHL1  H12B  181   5.989   1.230   9.676  0.3013 -0.4011 -0.9800
    3CHL1   C11  182   5.880   1.143   9.832  0.0432  0.4346 -0.5601
    3CHL1  H11A  183   5.877   1.043   9.880  2.2452  0.7576  0.3602
    3CHL1  H11B  184   5.949   1.201   9.898 -1.7382 -0.1265  1.9438
    3CHL1    C9  185   5.749   1.222   9.829  0.0836 -0.4184 -0.2312
    3CHL1    H9  186   5.792   1.322   9.807 -0.9737  0.4254  1.3602
    3CHL1   C10  187   5.678   1.223   9.973  0.2297 -0.3930 -0.0054
    3CHL1   C19  188   5.635   1.087  10.022  0.1433 -0.1213 -0.7921
    3CHL1  H19A  189   5.561   1.050   9.947 -1.2437  0.6528  0.1668
    3CHL1  H19B  190   5.716   1.010  10.018 -1.7683 -2.2585 -0.5289
    3CHL1  H19C  191   5.593   1.086  10.125  0.1838 -0.4247 -0.7757
    3CHL1    C1  192   5.776   1.282  10.075 -0.3950 -0.6749 -0.2765
    3CHL1   H1A  193   5.862   1.216  10.098 -1.5531 -1.7697  1.2016
    3CHL1   H1B  194   5.814   1.377  10.032 -1.5488 -1.1371 -2.4505
    3CHL1    C2  195   5.717   1.323  10.215 -0.4440  0.0462 -0.1675
    3CHL1   H2A  196   5.793   1.373  10.280 -0.0966  0.6619 -1.0324
    3CHL1   H2B  197   5.686   1.242  10.286  0.8884  1.4403  2.1510
    3CHL1   C20  198   5.998   0.981   9.389  0.4241  0.1701 -0.2179
    3CHL1   H20  199   5.938   0.887   9.385  0.5376  0.1388 -1.9458
    3CHL1   C21  200   6.124   0.970   9.474  0.3904 -0.2875  0.7145
    3CHL1  H21A  201   6.206   0.918   9.420 -0.2707 -1.7890  1.0951
    3CHL1  H21B  202   6.117   0.903   9.563  1.9072 -1.3189  0.1188
    3CHL1  H21C  203   6.154   1.071   9.507  1.2026 -0.9722  2.1812
    3CHL1   C22  204   6.037   0.998   9.233 -0.0567 -0.1848 -0.4309
    3CHL1  H22A  205   6.106   0.916   9.205 -0.6523 -0.5888 -0.7242
    3CHL1  H22B  206   5.951   0.966   9.172 -1.0668 -0.1450  0.9301
    3CHL1   C23  207   6.101   1.131   9.200  0.7759  0.0323 -0.1193
    3CHL1  H23A  208   6.035   1.207   9.247 -2.5723 -2.1609 -0.8961
    3CHL1  H23B  209   6.203   1.127   9.244  0.2634 -2.4461  1.0249
    3CHL1   C24  210   6.103   1.160   9.046  0.5803  1.3556 -0.4767
    3CHL1  H24A  211   6.190   1.100   9.012 -0.0414  0.3803 -0.4061
    3CHL1  H24B  212   6.000   1.137   9.009  0.8467  0.9114 -0.9662
    3CHL1   C25  213   6.124   1.302   9.010  0.2889 -0.0883 -0.3712
    3CHL1   H25  214   6.028   1.357   9.024  0.4977  0.3257 -0.5309
    3CHL1   C26  215   6.234   1.351   9.103 -0.2692 -1.4384 -0.3179
    3CHL1  H26A  216   6.271   1.450   9.071 -1.1954 -1.4179 -1.4090
    3CHL1  H26B  217   6.204   1.360   9.210  1.2751  1.9554 -0.0537
    3CHL1  H26C  218   6.325   1.288   9.097  0.0241 -1.1038  0.5008
    3CHL1   C27  219   6.166   1.309   8.860 -0.0673  0.4245 -0.4358
    3CHL1  H27A  220   6.169   1.417   8.836  0.7910  0.4832 -0.0991
    3CHL1  H27B  221   6.266   1.266   8.836 -0.4124  0.4354 -2.0029
    3CHL1  H27C  222   6.080   1.268   8.802  0.8702 -2.4952  0.0647
    4CHL1    C3  223   3.913   3.228  10.409 -0.2453  0.6583  0.0921
    4CHL1    H3  224   3.948   3.123  10.420  0.5912  1.1268  2.6676
    4CHL1    O3  225   3.927   3.289  10.539 -0.5856  0.2191  0.5884
    4CHL1   H3'  226   3.904   3.381  10.525 -0.5633  0.2358  0.6613
    4CHL1    C4  227   3.988   3.318  10.311 -0.0640  0.1144 -0.4032
    4CHL1   H4A  228   3.953   3.423  10.327  0.3634  0.6577 -2.6871
    4CHL1   H4B  229   4.094   3.312  10.345 -0.9313 -0.8718  2.4467
    4CHL1    C5  230   3.970   3.270  10.168  0.4174  0.3605 -0.0367
    4CHL1    C6  231   4.071   3.235  10.089  0.7723 -0.6962  0.4675
    4CHL1    H6  232   4.175   3.244  10.123  1.3469 -0.6241 -1.2227
    4CHL1    C7  233   4.061   3.209   9.943 -0.5242 -0.1580  0.0348
    4CHL1   H7A  234   4.133   3.271   9.885  1.5014 -1.0366  1.4792
    4CHL1   H7B  235   4.088   3.103   9.924  2.5155  0.2839  1.3582
    4CHL1    C8  236   3.920   3.243   9.900 -0.3367 -0.4925  0.3632
    4CHL1    H8  237   3.902   3.352   9.887  0.5093 -0.5330 -1.5128
    4CHL1   C14  238   3.895   3.187   9.759  0.0464  0.0383  0.4025
    4CHL1   H14  239   3.895   3.076   9.761  1.1007 -0.0470 -1.9769
    4CHL1   C15  240   3.999   3.215   9.649 -0.1772  0.4238 -0.5266
    4CHL1  H15A  241   4.041   3.317   9.633  1.0961 -0.4389 -3.4785
    4CHL1  H15B  242   4.080   3.139   9.660  0.7203  1.3196 -0.7570
    4CHL1   C16  243   3.928   3.196   9.516 -0.0874 -0.3202 -0.3765
    4CHL1  H16A  244   3.926   3.297   9.470 -2.0528 -0.0872  0.1103
    4CHL1  H16B  245   3.963   3.113   9.452 -0.3387  0.3823 -1.4448
    4CHL1   C17  246   3.782   3.167   9.556 -0.0530 -0.2291  0.0569
    4CHL1   H17  247   3.790   3.057   9.573  0.1055  0.2844  4.1134
    4CHL1   C13  248   3.757   3.222   9.697 -0.4242 -0.0929 -0.3000
    4CHL1   C18  249   3.736   3.372   9.692 -0.2397 -0.2870  0.2432
    4CHL1  H18A  250   3.813   3.428   9.634  1.5413 -2.8146 -0.0000
    4CHL1  H18B  251   3.634   3.394   9.653  0.1485  1.9060  0.3826
    4CHL1  H18C  252   3.741   3.414   9.794  2.0727  2.0223 -0.7062
    4CHL1   C12  253   3.649   3.144   9.779 -0.1999  0.2757  0.6391
    4CHL1  H12A  254   3.545   3.160   9.743 -0.7326  1.7391  2.6411
    4CHL1  H12B  255   3.678   3.037   9.789 -3.3570 -0.8127 -0.5786
    4CHL1   C11  256   3.661   3.193   9.924 -0.1061  0.2537 -0.3636
    4CHL1  H11A  257   3.621   3.297   9.922 -1.4674 -0.2151  0.6209
    4CHL1  H11B  258   3.593   3.131   9.986 -1.6584  1.3977 -0.8549
    4CHL1    C9  259   3.809   3.190   9.988 -0.0530  0.2467 -0.3582
    4CHL1    H9  260   3.829   3.083  10.008 -2.0441  0.1303  1.3125
    4CHL1   C10  261   3.820   3.255  10.123 -0.9817  0.2368 -0.2026
    4CHL1   C19  262   3.753   3.393  10.121  0.3835  0.6806 -0.6039
    4CHL1  H19A  263   3.753   3.427  10.227  3.3200 -3.8268  1.1479
    4CHL1  H19B  264   3.801   3.463  10.050 -0.7553 -1.0036 -3.1952
    4CHL1  H19C  265   3.645   3.381  10.098  0.2184  3.0581 -1.3398
    4CHL1    C1  266   3.743   3.164  10.231 -0.5517  0.3596 -0.3478
    4CHL1   H1A  267   3.634   3.171  10.208 -0.4299  0.7392 -0.8058
    4CHL1   H1B  268   3.778   3.059  10.217  1.1509  1.1537 -2.5284
    4CHL1    C2  269   3.759   3.210  10.374 -0.1344 -0.5567  0.2191
    4CHL1   H2A  270   3.716   3.131  10.439 -1.5018 -0.7154 -0.8193
    4CHL1   H2B  271   3.703   3.300  10.408 -0.2766  0.4315 -2.3795
    4CHL1   C20  272   3.682   3.204   9.448 -0.2392  0.3924  0.5202
    4CHL1   H20  273   3.678   3.313   9.428  1.2747  0.0049 -2.2889
    4CHL1   C21  274   3.533   3.163   9.494 -0.3719  0.6663 -0.2553
    4CHL1  H21A  275   3.539   3.062   9.541 -2.7219  1.7942  2.7932
    4CHL1  H21B  276   3.457   3.167   9.413 -1.5163 -1.4080  0.6277
    4CHL1  H21C  277   3.495   3.237   9.567 -0.5104  0.9805 -0.6468
    4CHL1   C22  278   3.714   3.130   9.310 -0.5675 -0.4795 -0.2234
    4CHL1  H22A  279   3.819   3.150   9.283 -1.1056  3.6571  0.0233
    4CHL1  H22B  280   3.699   3.023   9.336 -2.1021 -0.6673 -1.6699
    4CHL1   C23  281   3.624   3.171   9.189  0.0254  0.8062 -0.0664
    4CHL1  H23A  282   3.644   3.096   9.110  0.8585  2.8517 -1.9356
    4CHL1  H23B  283   3.516   3.181   9.215 -0.1050  0.4363 -0.4597
    4CHL1   C24  284   3.669   3.309   9.130  0.1098  0.4306 -0.4316
    4CHL1  H24A  285   3.690   3.375   9.217  2.2478  1.5088 -1.6656
    4CHL1  H24B  286   3.763   3.288   9.075 -0.7124  0.7291 -2.0010
    4CHL1   C25  287   3.560   3.386   9.044  0.0806  0.0891 -0.0797
    4CHL1   H25  288   3.468   3.385   9.105  0.3717 -2.0770  0.4026
    4CHL1   C26  289   3.605   3.527   8.997 -0.5304 -0.0120 -0.1830
    4CHL1  H26A  290   3.695   3.515   8.934  1.0938  3.2428  1.2558
    4CHL1  H26B  291   3.529   3.596   8.953 -0.1255  2.2837  2.4206
    4CHL1  H26C  292   3.633   3.584   9.088  1.6037 -0.4613 -0.5299
    4CHL1   C27  293   3.523   3.306   8.918 -0.1590  0.2007  0.5856
    4CHL1  H27A  294   3.615   3.289   8.859 -1.4601 -0.9533 -1.2206
    4CHL1  H27B  295   3.479   3.208   8.948  1.3695 -0.5262  0.5052
    4CHL1  H27C  296   3.441   3.358   8.863 -0.1007  1.0522  1.2743
    5CHL1    C3  297   4.246   2.465  10.316 -0.6151 -0.3147  0.2812
    5CHL1    H3  298   4.153   2.523  10.294 -0.0223  0.5889  0.1003
    5CHL1    O3  299   4.241   2.431  10.456 -0.3841  0.4473 -0.1500
    5CHL1   H3'  300   4.147   2.423  10.474 -0.3620 -1.0040 -0.5618
    5CHL1    C4  301   4.244   2.336  10.240 -0.4114 -0.5121  0.3154
    5CHL1   H4A  302   4.337   2.285  10.274 -0.1306 -1.1452 -1.2888
    5CHL1   H4B  303   4.159   2.274  10.276 -0.2711 -1.2038 -0.5122
    5CHL1    C5  304   4.262   2.341  10.097  0.0754 -0.3692 -0.6200
    5CHL1    C6  305   4.168   2.290  10.016  0.2274  0.3067  0.3878
    5CHL1    H6  306   4.081   2.231  10.049 -0.8588  0.6689 -1.6767
    5CHL1    C7  307   4.172   2.299   9.864 -0.5270  0.4602 -0.2721
    5CHL1   H7A  308   4.139   2.204   9.816  2.3037 -0.4158 -0.6746
    5CHL1   H7B  309   4.110   2.384   9.826  0.3012  0.7772 -0.9344
    5CHL1    C8  310   4.313   2.326   9.810 -0.0227  0.0074 -0.4861
    5CHL1    H8  311   4.378   2.239   9.836  0.5291  0.8134  0.9290
    5CHL1   C14  312   4.315   2.365   9.660  0.6169  0.0229  0.1590
    5CHL1   H14  313   4.253   2.454   9.632 -0.5630 -1.4506 -2.2748
    5CHL1   C15  314   4.251   2.265   9.563  1.3018 -0.9787 -0.4509
    5CHL1  H15A  315   4.269   2.161   9.598  0.0666 -1.0523  0.0032
    5CHL1  H15B  316   4.141   2.276   9.571  1.3535  2.1355 -2.1700
    5CHL1   C16  317   4.317   2.287   9.426  0.1940 -0.0066 -0.0309
    5CHL1  H16A  318   4.373   2.196   9.396  2.4370  0.5223  2.1925
    5CHL1  H16B  319   4.254   2.331   9.346 -0.2671 -0.0010  0.3344
    5CHL1   C17  320   4.421   2.403   9.450  0.2061 -0.4092 -0.2637
    5CHL1   H17  321   4.362   2.493   9.422  0.6487 -0.6968 -2.3278
    5CHL1   C13  322   4.448   2.393   9.598 -0.1998 -0.2098 -0.5109
    5CHL1   C18  323   4.550   2.280   9.620  0.3328  0.5038  0.0243
    5CHL1  H18A  324   4.514   2.176   9.608 -1.9959  1.1716  0.7245
    5CHL1  H18B  325   4.644   2.310   9.568  0.4791 -1.9643 -1.2794
    5CHL1  H18C  326   4.577   2.274   9.728 -1.4028 -1.3673  0.4078
    5CHL1   C12  327   4.487   2.526   9.668 -0.3983 -0.4838  0.4034
    5CHL1  H12A  328   4.574   2.573   9.618 -2.4024  0.2650 -2.6342
    5CHL1  H12B  329   4.407   2.601   9.652 -0.6230 -0.2379  2.4239
    5CHL1   C11  330   4.506   2.514   9.822 -0.4172 -0.0945 -0.2602
    5CHL1  H11A  331   4.601   2.457   9.829  1.1118  1.8005 -3.4697
    5CHL1  H11B  332   4.526   2.621   9.845  0.3611 -0.6079  1.6120
    5CHL1    C9  333   4.381   2.449   9.887  0.4024 -0.0678  0.3454
    5CHL1    H9  334   4.309   2.532   9.876  0.4170  0.1102  1.4927
    5CHL1   C10  335   4.381   2.428  10.042  0.1056  0.5615  0.1009
    5CHL1   C19  336   4.520   2.370  10.077 -0.3466 -0.8182 -0.0585
    5CHL1  H19A  337   4.550   2.292  10.004  2.7236 -0.4703  0.7135
    5CHL1  H19B  338   4.592   2.453  10.063 -0.8064 -0.6974 -2.0483
    5CHL1  H19C  339   4.531   2.337  10.183 -0.1566  2.6012  1.0998
    5CHL1    C1  340   4.375   2.562  10.120 -0.1074  0.1545  0.1596
    5CHL1   H1A  341   4.467   2.623  10.107  0.9750 -0.5744  3.2942
    5CHL1   H1B  342   4.286   2.616  10.082  1.4039  0.5588 -3.1417
    5CHL1    C2  343   4.364   2.550  10.274 -0.3911 -0.2879 -0.9039
    5CHL1   H2A  344   4.353   2.646  10.329 -0.8280 -1.4685  1.1850
    5CHL1   H2B  345   4.449   2.502  10.326 -1.4306 -1.2333 -0.0570
    5CHL1   C20  346   4.538   2.386   9.346 -0.0248  0.6293 -0.0911
    5CHL1   H20  347   4.591   2.290   9.367 -0.3639  0.0362 -1.8213
    5CHL1   C21  348   4.640   2.503   9.355  0.8632  0.7382 -0.1298
    5CHL1  H21A  349   4.706   2.509   9.267  1.2694  2.4275  0.2604
    5CHL1  H21B  350   4.698   2.497   9.449  1.3999 -2.1606 -0.5397
    5CHL1  H21C  351   4.579   2.596   9.355  0.7924  0.6968  0.6454
    5CHL1   C22  352   4.479   2.383   9.202  0.9480 -0.1063 -0.2265
    5CHL1  H22A  353   4.562   2.376   9.128  1.7457  0.1156  0.6296
    5CHL1  H22B  354   4.412   2.295   9.187 -0.4484  0.5278  1.7889
    5CHL1   C23  355   4.398   2.507   9.159 -0.6641 -0.5489 -0.2363
    5CHL1  H23A  356   4.302   2.502   9.214 -0.2267 -1.4037  0.4782
    5CHL1  H23B  357   4.455   2.595   9.197  0.3771 -1.3081  0.0245
    5CHL1   C24  358   4.371   2.500   9.004 -0.0601 -0.2228  0.6433
    5CHL1  H24A  359   4.465   2.505   8.944 -0.4174 -1.1791 -0.0169
    5CHL1  H24B  360   4.322   2.401   8.994 -0.3485  0.0650 -1.0731
    5CHL1   C25  361   4.274   2.608   8.955 -0.9621  0.2043  0.1973
    5CHL1   H25  362   4.187   2.605   9.025  0.6683  1.9840  2.4544
    5CHL1   C26  363   4.341   2.747   8.945  0.0606  0.8094  0.2997
    5CHL1  H26A  364   4.432   2.744   8.881 -1.7205  0.9215 -2.4021
    5CHL1  H26B  365   4.266   2.818   8.904 -0.5710 -0.1089 -0.1794
    5CHL1  H26C  366   4.367   2.790   9.044 -1.2004  0.5222  0.7719
    5CHL1   C27  367   4.233   2.576   8.805 -0.8262 -0.1027  0.2529
    5CHL1  H27A  368   4.327   2.592   8.749 -0.7074  0.7385  0.6766
    5CHL1  H27B  369   4.202   2.470   8.792  0.9862 -0.8087  1.2615
    5CHL1  H27C  370   4.148   2.642   8.779  0.0585  1.3033  0.8066
    6CHL1    C3  371   2.872   0.376  10.405 -0.0462 -0.3341  0.1620
    6CHL1    H3  372   2.787   0.446  10.393  0.9133  0.6825 -0.8415
    6CHL1    O3  373   2.899   0.364  10.548  0.1440 -0.0784 -0.7650
    6CHL1   H3'  374   2.939   0.446  10.578 -0.3663  0.2881 -1.0605
    6CHL1    C4  375   2.839   0.246  10.322  0.2699 -0.0168 -0.1931
    6CHL1   H4A  376   2.917   0.171  10.348 -0.0619 -0.5844 -0.8187
    6CHL1   H4B  377   2.745   0.219  10.374 -0.7125  0.5012 -1.6449
    6CHL1    C5  378   2.824   0.275  10.173 -0.2584  0.2432  0.0070
    6CHL1    C6  379   2.714   0.233  10.107  0.3750 -0.6717  0.3301
    6CHL1    H6  380   2.629   0.188  10.160  0.9801  0.1937  2.1325
    6CHL1    C7  381   2.707   0.233   9.953  0.9051 -0.1538 -0.3185
    6CHL1   H7A  382   2.666   0.141   9.907 -2.6238  1.3557 -0.5660
    6CHL1   H7B  383   2.636   0.309   9.913 -0.8785 -1.4588  0.2043
    6CHL1    C8  384   2.849   0.252   9.887 -0.8351 -0.4830 -0.1948
    6CHL1    H8  385   2.914   0.162   9.895  2.1404  1.6313  1.0313
    6CHL1   C14  386   2.832   0.278   9.737  0.1570  0.5335 -0.0574
    6CHL1   H14  387   2.765   0.366   9.736 -2.2935 -1.2515 -0.2141
    6CHL1   C15  388   2.761   0.171   9.649  0.1875  0.3066  0.3333
    6CHL1  H15A  389   2.793   0.065   9.663 -1.9179 -0.3922  0.3032
    6CHL1  H15B  390   2.653   0.182   9.675  0.3285 -0.3224  1.2450
    6CHL1   C16  391   2.790   0.216   9.506 -0.4270 -0.5490 -0.0251
    6CHL1  H16A  392   2.819   0.135   9.435 -1.1921  0.7123 -1.8448
    6CHL1  H16B  393   2.699   0.268   9.471  0.4931  2.1496  1.3703
    6CHL1   C17  394   2.905   0.331   9.512 -0.4607  0.3705 -0.1702
    6CHL1   H17  395   2.849   0.427   9.501 -0.4400  0.3234 -0.7156
    6CHL1   C13  396   2.959   0.324   9.663  0.7233  0.5243  0.2122
    6CHL1   C18  397   3.062   0.210   9.667 -0.7178 -0.3884 -0.1445
    6CHL1  H18A  398   3.023   0.129   9.602  1.7491 -0.2163 -1.9510
    6CHL1  H18B  399   3.160   0.240   9.625 -0.3389 -0.6776  0.5100
    6CHL1  H18C  400   3.087   0.159   9.763  0.6251  0.0373 -0.2554
    6CHL1   C12  401   3.016   0.453   9.728 -0.0380  0.5805  0.6160
    6CHL1  H12A  402   3.105   0.491   9.674 -0.0865 -0.3382 -0.1255
    6CHL1  H12B  403   2.942   0.535   9.715  0.5129  1.1036  0.7532
    6CHL1   C11  404   3.038   0.429   9.878 -0.0271 -0.1383 -0.1589
    6CHL1  H11A  405   3.128   0.366   9.894  0.2543 -0.1676 -1.7539
    6CHL1  H11B  406   3.062   0.530   9.919  0.7791 -0.3638 -0.0502
    6CHL1    C9  407   2.917   0.372   9.955  0.5672  0.4118  0.0472
    6CHL1    H9  408   2.841   0.453   9.956 -0.2040 -0.2643  2.0223
    6CHL1   C10  409   2.943   0.339  10.106 -0.6642 -0.2392  0.4720
    6CHL1   C19  410   3.065   0.243  10.120 -0.5409  0.2414 -0.4528
    6CHL1  H19A  411   3.159   0.302  10.123  0.4245 -1.2857  1.3717
    6CHL1  H19B  412   3.078   0.181  10.212  1.6601  1.8747  0.4201
    6CHL1  H19C  413   3.078   0.178  10.031  0.2402  0.4227 -0.4784
    6CHL1    C1  414   2.959   0.471  10.182 -0.4299 -0.6886 -0.2256
    6CHL1   H1A  415   3.043   0.526  10.134  1.3031 -1.2028  2.0630
    6CHL1   H1B  416   2.866   0.531  10.172 -1.4874 -2.1152  0.6645
    6CHL1    C2  417   2.987   0.456  10.336 -0.2130  0.5840 -0.4189
    6CHL1   H2A  418   2.979   0.558  10.379  0.6515  0.9948 -1.1859
    6CHL1   H2B  419   3.077   0.393  10.354 -0.3846 -0.3841 -2.5372
    6CHL1   C20  420   3.012   0.314   9.398  0.1576  0.1525 -0.4508
    6CHL1   H20  421   3.059   0.214   9.401  0.8475  0.4684  2.3387
    6CHL1   C21  422   3.123   0.417   9.404 -0.2969 -0.6490 -0.2999
    6CHL1  H21A  423   3.076   0.516   9.422  2.0680  0.6280 -0.7496
    6CHL1  H21B  424   3.174   0.423   9.306  4.3501 -2.0517  1.7570
    6CHL1  H21C  425   3.192   0.403   9.490  1.6044  2.8161 -1.0693
    6CHL1   C22  426   2.956   0.304   9.261 -0.3272 -0.3626  0.8022
    6CHL1  H22A  427   2.846   0.288   9.263 -0.2390 -1.3226 -0.5573
    6CHL1  H22B  428   2.964   0.399   9.204 -1.7957 -1.6465 -1.7393
    6CHL1   C23  429   3.033   0.200   9.176  0.5681  0.2899 -0.3767
    6CHL1  H23A  430   3.137   0.238   9.186  0.3892  0.6454  0.1495
    6CHL1  H23B  431   3.018   0.102   9.226 -0.6426  0.7261  0.1476
    6CHL1   C24  432   2.997   0.192   9.029 -0.0865 -0.0541  0.7231
    6CHL1  H24A  433   3.030   0.101   8.974 -1.4204  1.0085 -2.0143
    6CHL1  H24B  434   2.887   0.189   9.013  0.2016 -1.5976 -1.5316
    6CHL1   C25  435   3.036   0.315   8.940  0.5497  0.2032 -0.3286
    6CHL1   H25  436   2.998   0.406   8.991  1.5494 -0.5254  1.7995
    6CHL1   C26  437   3.186   0.329   8.925 -0.0307 -0.2603 -0.4280
    6CHL1  H26A  438   3.234   0.360   9.020 -1.2435 -3.1756  1.2685
    6CHL1  H26B  439   3.237   0.233   8.899 -1.4666 -2.0520  2.7763
    6CHL1  H26C  440   3.210   0.397   8.841 -2.6012  1.5878  0.2220
    6CHL1   C27  441   2.978   0.306   8.788  0.4042 -0.1166  0.5280
    6CHL1  H27A  442   2.871   0.334   8.776 -0.7757 -4.0072  0.5629
    6CHL1  H27B  443   3.039   0.383   8.737  1.7598 -1.0620  0.6886
    6CHL1  H27C  444   2.993   0.204   8.748  0.9408 -1.1450  3.1102
    7CHL1    C3  445   4.868   5.452  10.502  0.2628  0.6597  0.4510
    7CHL1    H3  446   4.860   5.560  10.478  1.1626  0.6259 -0.0317
    7CHL1    O3  447   4.870   5.440  10.644 -0.2097 -0.0509  0.1369
    7CHL1   H3'  448   4.954   5.397  10.664  0.2415  1.1054  0.8757
    7CHL1    C4  449   4.753   5.369  10.465 -0.3477  0.3687 -0.4087
    7CHL1   H4A  450   4.775   5.270  10.512  2.2554  1.6710  1.3639
    7CHL1   H4B  451   4.668   5.424  10.511  1.8467  1.2620  2.9896
    7CHL1    C5  452   4.737   5.366  10.317 -0.2693  0.4728  0.4797
    7CHL1    C6  453   4.622   5.398  10.251  0.3244  0.3773  0.8927
    7CHL1    H6  454   4.549   5.445  10.318 -0.3515  2.6354 -1.2840
    7CHL1    C7  455   4.596   5.387  10.104  0.0419  0.4734 -0.8356
    7CHL1   H7A  456   4.499   5.340  10.077 -0.6361  1.1237  0.3848
    7CHL1   H7B  457   4.592   5.488  10.059 -0.9330 -0.2710 -2.5126
    7CHL1    C8  458   4.714   5.307  10.032  0.0826 -0.8752 -0.0719
    7CHL1    H8  459   4.680   5.203  10.051  1.0798 -1.7956 -2.8499
    7CHL1   C14  460   4.721   5.342   9.881 -0.6397  0.1613 -0.2536
    7CHL1   H14  461   4.769   5.442   9.871 -0.4400  0.1793  0.7488
    7CHL1   C15  462   4.584   5.356   9.802  0.3088 -0.9761  0.3629
    7CHL1  H15A  463   4.509   5.287   9.845 -1.3155 -1.2888 -2.6709
    7CHL1  H15B  464   4.541   5.459   9.801 -1.9250 -1.7746 -2.5124
    7CHL1   C16  465   4.620   5.324   9.661 -0.0752 -0.3566 -0.0295
    7CHL1  H16A  466   4.554   5.242   9.626 -1.4037  0.3004  0.8346
    7CHL1  H16B  467   4.608   5.412   9.594  1.2389 -0.8543 -0.9514
    7CHL1   C17  468   4.767   5.270   9.660 -0.3132 -0.4438  0.0358
    7CHL1   H17  469   4.821   5.364   9.633  1.2978 -0.3766  2.9869
    7CHL1   C13  470   4.807   5.240   9.802 -0.2427  0.1938 -0.3035
    7CHL1   C18  471   4.759   5.093   9.836  0.4282  0.8338  0.0497
    7CHL1  H18A  472   4.786   5.059   9.939 -0.8795  1.8154  0.7444
    7CHL1  H18B  473   4.652   5.076   9.815  0.2906 -0.6250  1.7068
    7CHL1  H18C  474   4.808   5.018   9.770 -1.8180 -0.9832  0.3429
    7CHL1   C12  475   4.954   5.259   9.852 -0.0949  0.1588 -0.0938
    7CHL1  H12A  476   5.028   5.192   9.803  0.6801  0.1860  1.0159
    7CHL1  H12B  477   4.977   5.362   9.819 -2.4637  1.2648  1.4160
    7CHL1   C11  478   4.961   5.244  10.001 -0.6084  1.0516  0.1332
    7CHL1  H11A  479   4.952   5.134  10.015 -0.8016  0.9716 -0.6093
    7CHL1  H11B  480   5.064   5.273  10.030  1.0959 -2.8600 -1.4468
    7CHL1    C9  481   4.855   5.316  10.085 -0.1118 -0.3283  0.3332
    7CHL1    H9  482   4.871   5.426  10.079 -0.9444 -0.0235  2.6978
    7CHL1   C10  483   4.855   5.296  10.241 -0.6516  0.1727 -0.1124
    7CHL1   C19  484   4.855   5.140  10.269  0.8764 -0.3240 -0.3303
    7CHL1  H19A  485   4.776   5.087  10.212  1.3967 -0.0870 -1.2898
    7CHL1  H19B  486   4.948   5.088  10.235  0.4800 -1.2143 -0.0873
    7CHL1  H19C  487   4.844   5.129  10.379  0.9813  0.8770 -0.1873
    7CHL1    C1  488   4.985   5.369  10.294  0.4064 -0.0776  0.4358
    7CHL1   H1A  489   5.071   5.317  10.248 -0.8143 -3.0268  1.2079
    7CHL1   H1B  490   4.986   5.471  10.251 -3.0602 -0.1801 -0.2289
    7CHL1    C2  491   4.998   5.395  10.443 -0.0438 -0.8826 -0.5387
    7CHL1   H2A  492   5.082   5.466  10.456 -0.3902 -0.6731  0.6818
    7CHL1   H2B  493   5.032   5.300  10.489  1.8302 -0.8018 -1.6595
    7CHL1   C20  494   4.799   5.166   9.545  0.1524 -0.0712  0.1391
    7CHL1   H20  495   4.742   5.073   9.563 -4.2232  2.2856  0.0428
    7CHL1   C21  496   4.946   5.135   9.551  0.2079  0.0687 -0.1385
    7CHL1  H21A  497   5.006   5.222   9.586  0.3516 -0.2682  0.4743
    7CHL1  H21B  498   4.992   5.114   9.452  0.6311 -3.1820  0.6594
    7CHL1  H21C  499   4.961   5.047   9.617 -0.9868  0.0557  0.1307
    7CHL1   C22  500   4.757   5.216   9.403 -0.5223 -0.1142 -0.5690
    7CHL1  H22A  501   4.654   5.259   9.409 -1.4622 -2.1784 -0.8771
    7CHL1  H22B  502   4.821   5.300   9.369 -1.7203  1.3115  0.5497
    7CHL1   C23  503   4.749   5.103   9.292  0.1095 -0.6898 -0.6589
    7CHL1  H23A  504   4.840   5.038   9.292 -0.4541 -1.4944 -0.5847
    7CHL1  H23B  505   4.673   5.025   9.314  1.1495 -1.2706  1.0885
    7CHL1   C24  506   4.728   5.166   9.148 -0.2319  0.0598 -0.2737
    7CHL1  H24A  507   4.641   5.235   9.159 -0.9775 -1.1243  1.8939
    7CHL1  H24B  508   4.823   5.220   9.130  0.2663 -0.2613  1.2358
    7CHL1   C25  509   4.700   5.057   9.044  0.4316 -0.3501 -0.3104
    7CHL1   H25  510   4.593   5.032   9.061 -0.3118  1.9207 -1.3164
    7CHL1   C26  511   4.716   5.114   8.905  0.1032 -0.2855  0.2251
    7CHL1  H26A  512   4.823   5.144   8.907 -0.1788  1.0070 -1.6381
    7CHL1  H26B  513   4.680   5.046   8.826 -1.8903  1.3730 -0.3964
    7CHL1  H26C  514   4.653   5.205   8.893 -0.9049 -1.3090 -3.9359
    7CHL1   C27  515   4.797   4.934   9.056  0.2192 -0.0529 -0.2962
    7CHL1  H27A  516   4.903   4.968   9.053 -0.3782  1.9344 -0.1330
    7CHL1  H27B  517   4.786   4.881   9.153 -1.7597  2.5552  1.0223
    7CHL1  H27C  518   4.789   4.863   8.971  0.4297 -1.2034  0.6146
    8CHL1    C3  519   4.659   4.616  10.427  1.1666  0.1979  0.7810
    8CHL1    H3  520   4.555   4.582  10.407  0.5382  1.3505  1.9841
    8CHL1    O3  521   4.676   4.602  10.565  0.2926  0.1590 -0.0784
    8CHL1   H3'  522   4.666   4.508  10.582 -0.7496 -0.0173 -1.4978
    8CHL1    C4  523   4.743   4.520  10.337  0.6419  0.2344 -0.6511
    8CHL1   H4A  524   4.849   4.554  10.345  0.7682  0.3028 -2.1753
    8CHL1   H4B  525   4.725   4.418  10.376  0.6265  1.1044  1.8043
    8CHL1    C5  526   4.691   4.520  10.196 -0.0620  0.6518 -1.1559
    8CHL1    C6  527   4.635   4.413  10.136  0.2945 -0.0073  0.5638
    8CHL1    H6  528   4.621   4.315  10.183  0.4822 -0.0947  0.4369
    8CHL1    C7  529   4.579   4.423   9.994  0.2432  0.1650  0.7020
    8CHL1   H7A  530   4.618   4.334   9.940 -1.0482  0.0369 -0.0597
    8CHL1   H7B  531   4.469   4.419  10.003 -0.0385 -0.3067 -2.0640
    8CHL1    C8  532   4.627   4.540   9.908  0.1315  0.4209 -0.2871
    8CHL1    H8  533   4.729   4.508   9.881 -0.0661 -0.1386 -0.3906
    8CHL1   C14  534   4.545   4.548   9.780  0.5224  0.0690 -0.0025
    8CHL1   H14  535   4.437   4.546   9.803  0.6116 -3.3670  0.7780
    8CHL1   C15  536   4.563   4.431   9.683 -0.4042  0.7112 -0.2200
    8CHL1  H15A  537   4.666   4.392   9.697 -1.8483 -3.4074  0.5549
    8CHL1  H15B  538   4.499   4.345   9.712 -1.3037  1.7298  0.9147
    8CHL1   C16  539   4.520   4.487   9.545  0.4530 -0.4826 -0.5188
    8CHL1  H16A  540   4.603   4.465   9.474  1.0684 -0.6141  0.2181
    8CHL1  H16B  541   4.425   4.437   9.517 -0.0196 -0.6948  1.3244
    8CHL1   C17  542   4.491   4.638   9.569 -0.1942  0.1262 -0.2156
    8CHL1   H17  543   4.385   4.650   9.599 -0.9835 -0.4279 -2.5937
    8CHL1   C13  544   4.577   4.666   9.693 -0.1669 -0.0666  0.4551
    8CHL1   C18  545   4.723   4.666   9.657 -0.0842 -0.0204 -0.6692
    8CHL1  H18A  546   4.795   4.665   9.741  1.1647  1.0757 -1.6960
    8CHL1  H18B  547   4.751   4.583   9.588  1.8307 -0.7552  0.8822
    8CHL1  H18C  548   4.755   4.761   9.611  0.2053  0.7194  0.9994
    8CHL1   C12  549   4.546   4.791   9.783  0.4132 -0.3204 -0.3982
    8CHL1  H12A  550   4.559   4.886   9.727 -0.4148  1.0625  1.6314
    8CHL1  H12B  551   4.438   4.789   9.807  0.5947 -2.4290  0.4402
    8CHL1   C11  552   4.642   4.797   9.907  0.0481 -0.1705 -0.2010
    8CHL1  H11A  553   4.747   4.803   9.873  0.4047 -0.5531  0.8151
    8CHL1  H11B  554   4.621   4.888   9.967  2.0398 -0.4709  1.0453
    8CHL1    C9  555   4.617   4.666   9.997  0.1350  0.5333  1.0589
    8CHL1    H9  556   4.507   4.667  10.014 -0.1113  0.4073 -0.4126
    8CHL1   C10  557   4.693   4.662  10.122 -0.7069  0.7181  0.5836
    8CHL1   C19  558   4.838   4.701  10.092  0.3568 -0.2782  0.2796
    8CHL1  H19A  559   4.874   4.659   9.995 -0.6552 -0.1161 -0.1820
    8CHL1  H19B  560   4.836   4.812  10.082 -0.4726 -0.2295  0.9392
    8CHL1  H19C  561   4.907   4.656  10.167 -0.3517 -1.6556  0.1398
    8CHL1    C1  562   4.626   4.760  10.226  0.1249 -0.3006  0.2143
    8CHL1   H1A  563   4.639   4.862  10.186  0.7641 -0.9615 -1.3551
    8CHL1   H1B  564   4.517   4.739  10.223 -0.1933  1.3324 -0.9318
    8CHL1    C2  565   4.680   4.758  10.371 -0.0158 -0.0671 -0.3063
    8CHL1   H2A  566   4.617   4.822  10.437  2.0472  1.5368  0.1944
    8CHL1   H2B  567   4.784   4.795  10.379 -0.2379  0.2940  1.4350
    8CHL1   C20  568   4.503   4.723   9.448  0.5600  0.6145  0.0817
    8CHL1   H20  569   4.612   4.736   9.429  0.8791  1.2467  2.1128
    8CHL1   C21  570   4.441   4.859   9.456  0.5647 -0.0761  0.1576
    8CHL1  H21A  571   4.500   4.919   9.528  0.0598  0.5829  0.0301
    8CHL1  H21B  572   4.333   4.849   9.483  0.1965  0.2696 -1.1543
    8CHL1  H21C  573   4.445   4.920   9.364 -0.3543  0.4196  0.4336
    8CHL1   C22  574   4.435   4.657   9.327  0.2958  0.2361  0.0570
    8CHL1  H22A  575   4.468   4.553   9.310 -1.1299 -0.1470 -0.5148
    8CHL1  H22B  576   4.325   4.663   9.342  0.6100  0.1346  2.8550
    8CHL1   C23  577   4.473   4.721   9.193 -0.0944  0.2846 -0.4055
    8CHL1  H23A  578   4.416   4.816   9.185 -2.9613 -1.1644  1.2804
    8CHL1  H23B  579   4.582   4.742   9.186 -0.3928  2.9929  1.4786
    8CHL1   C24  580   4.415   4.637   9.087  0.3068  0.0492 -0.1434
    8CHL1  H24A  581   4.451   4.532   9.091 -0.3276 -0.2579 -1.8497
    8CHL1  H24B  582   4.304   4.629   9.081  0.1590  1.8992 -0.2183
    8CHL1   C25  583   4.455   4.682   8.943  0.1493 -0.0352 -0.7094
    8CHL1   H25  584   4.565   4.696   8.954  0.1126 -0.4130  0.1858
    8CHL1   C26  585   4.438   4.554   8.846 -0.7302  0.0998 -0.2446
    8CHL1  H26A  586   4.505   4.466   8.857 -0.6686  0.1470 -0.2435
    8CHL1  H26B  587   4.330   4.533   8.834 -0.7786  1.5351 -3.5933
    8CHL1  H26C  588   4.457   4.591   8.743 -0.7865  0.9694  0.0442
    8CHL1   C27  589   4.381   4.812   8.897 -0.0104  0.4413  0.6212
    8CHL1  H27A  590   4.400   4.888   8.976 -0.9545  0.6925  0.6147
    8CHL1  H27B  591   4.422   4.846   8.800 -0.9661  0.6976  0.3044
    8CHL1  H27C  592   4.271   4.796   8.890  0.0370 -0.2290  1.2582
    9CHL1    C3  593   0.658   1.803  10.235  0.1526 -0.9210 -0.6553
    9CHL1    H3  594   0.665   1.913  10.242  0.3280 -0.8582 -1.6415
    9CHL1    O3  595   0.731   1.754  10.339 -0.8876  0.1371 -0.8205
    9CHL1   H3'  596   0.714   1.661  10.355  1.0876  0.0321  1.1749
    9CHL1    C4  597   0.514   1.754  10.238 -0.4530 -0.0025  0.6530
    9CHL1   H4A  598   0.506   1.646  10.265 -1.6765 -0.1808 -0.3188
    9CHL1   H4B  599   0.451   1.804  10.315 -3.1436 -1.5358 -0.4017
    9CHL1    C5  600   0.448   1.784  10.111  0.2689  0.7045  0.1604
    9CHL1    C6  601   0.332   1.853  10.105 -0.0033 -0.1757 -0.0471
    9CHL1    H6  602   0.283   1.886  10.198 -1.7078 -0.5762 -0.7664
    9CHL1    C7  603   0.258   1.884   9.981  0.0139  0.3068  0.0485
    9CHL1   H7A  604   0.148   1.879   9.994 -0.1001  1.0662 -0.5691
    9CHL1   H7B  605   0.275   1.992   9.961 -1.7718  0.5928 -0.1296
    9CHL1    C8  606   0.288   1.802   9.860  0.3313 -0.0853 -0.2706
    9CHL1    H8  607   0.255   1.700   9.886  0.9488  0.3904  2.7054
    9CHL1   C14  608   0.215   1.866   9.734 -0.6495  0.4422  0.3140
    9CHL1   H14  609   0.254   1.970   9.739  1.0101 -0.2133  2.2299
    9CHL1   C15  610   0.063   1.895   9.736 -0.6964 -0.4509 -0.3336
    9CHL1  H15A  611   0.011   1.801   9.762 -0.6982  0.1026  1.8290
    9CHL1  H15B  612   0.035   1.972   9.810 -0.7273 -3.4868  3.1118
    9CHL1   C16  613   0.035   1.929   9.588  0.3965 -0.2162 -0.4395
    9CHL1  H16A  614  -0.046   1.858   9.558 -0.2288 -0.3847  1.5346
    9CHL1  H16B  615  -0.004   2.031   9.567  1.8654  0.5161  0.2845
    9CHL1   C17  616   0.166   1.903   9.508 -0.5768 -0.4888 -0.5728
    9CHL1   H17  617   0.225   1.996   9.512  0.3939 -1.0822 -0.9451
    9CHL1   C13  618   0.244   1.803   9.599 -0.1295  0.3673 -0.3457
    9CHL1   C18  619   0.173   1.661   9.588 -0.7576  0.3930  0.5090
    9CHL1  H18A  620   0.069   1.674   9.623  0.1551  1.4158  3.1543
    9CHL1  H18B  621   0.179   1.604   9.493 -2.5383  0.9357  0.0417
    9CHL1  H18C  622   0.214   1.598   9.670 -0.6095  1.8109  1.5612
    9CHL1   C12  623   0.395   1.788   9.593 -0.3289 -0.0393 -0.1929
    9CHL1  H12A  624   0.431   1.738   9.501 -0.5274  1.3524 -1.0567
    9CHL1  H12B  625   0.438   1.890   9.594  2.9631 -1.2575  2.6029
    9CHL1   C11  626   0.461   1.712   9.708  0.3571  0.5785  0.7587
    9CHL1  H11A  627   0.421   1.609   9.696  0.4679  0.1984  3.2230
    9CHL1  H11B  628   0.571   1.709   9.693  0.2528  1.1949 -0.2345
    9CHL1    C9  629   0.438   1.790   9.843  0.5707  0.4178  0.2729
    9CHL1    H9  630   0.476   1.893   9.824 -0.7297  1.1956  1.7095
    9CHL1   C10  631   0.510   1.734   9.972  0.8498  0.2242 -0.6575
    9CHL1   C19  632   0.495   1.577   9.957  0.4147  1.0354 -0.0174
    9CHL1  H19A  633   0.579   1.536   9.897  0.0101 -1.1894  0.8491
    9CHL1  H19B  634   0.495   1.531  10.058 -0.8046 -0.5528 -0.7080
    9CHL1  H19C  635   0.398   1.550   9.910  0.7721 -0.0729 -0.1336
    9CHL1    C1  636   0.655   1.784   9.977  0.0783  0.8061  0.6597
    9CHL1   H1A  637   0.712   1.742   9.891  0.5018  0.9340  0.8760
    9CHL1   H1B  638   0.646   1.893   9.958 -0.6140  0.9259  1.6336
    9CHL1    C2  639   0.737   1.756  10.107  0.3377  0.3652 -0.6191
    9CHL1   H2A  640   0.834   1.811  10.103  0.4290  0.2471 -0.0794
    9CHL1   H2B  641   0.751   1.647  10.123  0.6305  0.5751  0.6317
    9CHL1   C20  642   0.136   1.866   9.359 -1.2614 -0.8327 -0.0255
    9CHL1   H20  643   0.065   1.780   9.361 -1.9668 -0.2748  1.7572
    9CHL1   C21  644   0.261   1.830   9.286  0.0768 -0.2565 -0.1311
    9CHL1  H21A  645   0.312   1.738   9.323  1.5842  0.4104 -0.4973
    9CHL1  H21B  646   0.332   1.914   9.301  1.6332 -1.3806 -0.9142
    9CHL1  H21C  647   0.254   1.827   9.175 -0.9648 -0.0019 -0.0823
    9CHL1   C22  648   0.058   1.988   9.289  0.3405 -0.3075  0.1339
    9CHL1  H22A  649  -0.025   2.024   9.355  1.1972  2.0798  0.0123
    9CHL1  H22B  650   0.139   2.062   9.273  1.8143 -2.1109 -1.2701
    9CHL1   C23  651  -0.006   1.942   9.154  0.1405  0.2662 -0.1556
    9CHL1  H23A  652   0.071   1.936   9.075  1.3266  0.6378  0.9279
    9CHL1  H23B  653  -0.052   1.842   9.166 -1.1938  1.0531  1.8551
    9CHL1   C24  654  -0.119   2.044   9.117  0.7796  0.5404 -0.4170
    9CHL1  H24A  655  -0.214   1.994   9.149  0.1850  2.0706  0.3291
    9CHL1  H24B  656  -0.111   2.121   9.197  1.5813 -1.3862  1.4503
    9CHL1   C25  657  -0.136   2.090   8.972 -1.1678  0.5827  0.7156
    9CHL1   H25  658  -0.219   2.164   8.962 -1.9125  0.1285  3.0423
    9CHL1   C26  659  -0.012   2.159   8.918  0.0164  0.5925  0.9872
    9CHL1  H26A  660   0.010   2.241   8.989 -1.1932  0.0016  2.0923
    9CHL1  H26B  661   0.076   2.092   8.913  0.4533  1.2310 -2.1663
    9CHL1  H26C  662  -0.027   2.189   8.812  0.8180 -0.8263  0.4436
    9CHL1   C27  663  -0.173   1.966   8.887 -0.2203  0.4287  0.2953
    9CHL1  H27A  664  -0.201   2.002   8.786  1.5636  0.1670 -0.3166
    9CHL1  H27B  665  -0.083   1.903   8.873  0.2883  1.3998 -1.0995
    9CHL1  H27C  666  -0.261   1.913   8.930 -0.3689 -0.8207 -1.4488
   10CHL1    C3  667   1.263   5.874  10.003 -0.6273 -0.1258 -0.3012
   10CHL1    H3  668   1.192   5.952  10.041  0.8081  0.7039  0.7993
   10CHL1    O3  669   1.338   5.822  10.114 -0.1262  0.3088  0.1642
   10CHL1   H3'  670   1.303   5.735  10.130  0.0691  0.0873 -0.5918
   10CHL1    C4  671   1.184   5.761   9.926  0.0379  0.6535 -0.3725
   10CHL1   H4A  672   1.263   5.683   9.915  2.1313  2.5075  0.6598
   10CHL1   H4B  673   1.105   5.709   9.984  1.5450 -1.4564 -0.0789
   10CHL1    C5  674   1.124   5.802   9.792 -0.2325 -0.2327 -0.1764
   10CHL1    C6  675   0.995   5.778   9.763 -0.1649  0.2956  0.8646
   10CHL1    H6  676   0.924   5.738   9.837 -1.3644  1.1206  0.2048
   10CHL1    C7  677   0.939   5.813   9.625 -0.0017 -0.6346 -0.0831
   10CHL1   H7A  678   0.895   5.728   9.570  0.2736 -1.6834  1.2729
   10CHL1   H7B  679   0.872   5.902   9.635  0.9836  0.2862 -1.3697
   10CHL1    C8  680   1.044   5.867   9.516 -0.6209 -0.6104 -0.5962
   10CHL1    H8  681   1.075   5.770   9.473 -0.1109 -1.3181  1.2638
   10CHL1   C14  682   0.976   5.955   9.410 -0.0754  0.3853 -0.1451
   10CHL1   H14  683   0.949   6.050   9.460  0.1045  0.7036 -0.6471
   10CHL1   C15  684   0.845   5.907   9.347 -0.0834 -0.4718 -0.1996
   10CHL1  H15A  685   0.850   5.798   9.324  0.8321 -1.2799  3.2623
   10CHL1  H15B  686   0.761   5.923   9.417 -0.1900 -0.8509 -0.2374
   10CHL1   C16  687   0.825   5.986   9.214  0.0799  0.1807 -0.6713
   10CHL1  H16A  688   0.808   5.929   9.120 -1.0377  2.9246 -2.2896
   10CHL1  H16B  689   0.734   6.049   9.225  0.2815  0.7818 -2.1827
   10CHL1   C17  690   0.959   6.074   9.206  0.4181  0.3034  0.0854
   10CHL1   H17  691   0.935   6.167   9.260 -0.4170 -0.6759  1.4776
   10CHL1   C13  692   1.066   5.996   9.290  0.3092  0.9097 -0.0386
   10CHL1   C18  693   1.102   5.865   9.209  0.3204 -0.4019  0.2012
   10CHL1  H18A  694   1.166   5.796   9.267  0.0038 -0.7806  0.0992
   10CHL1  H18B  695   1.008   5.814   9.180 -0.9255  1.4462  0.8067
   10CHL1  H18C  696   1.157   5.905   9.121 -0.7729  0.7456  0.0031
   10CHL1   C12  697   1.186   6.077   9.345  0.4703  0.0349 -0.0200
   10CHL1  H12A  698   1.269   6.084   9.271  2.9835  0.1794  2.6272
   10CHL1  H12B  699   1.155   6.178   9.380  1.9805  0.5122  0.0476
   10CHL1   C11  700   1.247   6.006   9.464  0.3056  0.8050 -0.2193
   10CHL1  H11A  701   1.313   5.923   9.431  1.8094  2.0622 -0.5178
   10CHL1  H11B  702   1.319   6.080   9.507  0.6115  0.7943 -0.7117
   10CHL1    C9  703   1.159   5.951   9.583 -0.3958 -0.6097  1.1326
   10CHL1    H9  704   1.108   6.038   9.629  0.4808  0.9684 -0.7492
   10CHL1   C10  705   1.228   5.880   9.699 -0.7840  0.1527  0.0442
   10CHL1   C19  706   1.336   5.790   9.639  0.0357 -0.2327  0.1568
   10CHL1  H19A  707   1.393   5.723   9.706  2.8713  2.1232  0.3580
   10CHL1  H19B  708   1.301   5.732   9.551 -0.3707 -0.9316  0.7772
   10CHL1  H19C  709   1.423   5.852   9.606  2.0478 -3.1253 -0.3138
   10CHL1    C1  710   1.294   5.998   9.784 -0.7675 -0.2038  0.1596
   10CHL1   H1A  711   1.360   6.052   9.713 -1.6208  0.8260  0.1150
   10CHL1   H1B  712   1.212   6.071   9.802 -1.9078 -0.7061 -2.4945
   10CHL1    C2  713   1.358   5.952   9.915 -0.1853 -0.2739 -0.2482
   10CHL1   H2A  714   1.383   6.043   9.972  0.9845 -0.0199 -1.1151
   10CHL1   H2B  715   1.441   5.883   9.884 -1.0967 -0.9359 -1.3107
   10CHL1   C20  716   0.988   6.101   9.058  0.1399  0.0453  0.4808
   10CHL1   H20  717   1.016   6.012   8.998 -0.3615 -0.0758  0.4166
   10CHL1   C21  718   1.098   6.205   9.044 -0.5567 -0.2920  0.1047
   10CHL1  H21A  719   1.122   6.243   8.943  2.2453 -1.0410  0.4000
   10CHL1  H21B  720   1.196   6.168   9.081 -0.8327 -0.3122  0.8327
   10CHL1  H21C  721   1.066   6.292   9.106  0.0030  1.0862 -1.4633
   10CHL1   C22  722   0.868   6.172   9.000 -0.5209  0.0324 -0.5193
   10CHL1  H22A  723   0.776   6.110   9.004  0.5095 -1.6114 -1.3967
   10CHL1  H22B  724   0.847   6.266   9.056 -1.1134  0.0475 -0.7631
   10CHL1   C23  725   0.879   6.204   8.856 -0.1968 -0.1284  0.1820
   10CHL1  H23A  726   0.915   6.307   8.835 -1.2119  0.3332  0.6270
   10CHL1  H23B  727   0.953   6.136   8.807 -0.8590 -0.7565  0.0374
   10CHL1   C24  728   0.753   6.168   8.770  0.1872 -0.0490  0.2699
   10CHL1  H24A  729   0.717   6.067   8.799  1.1712 -0.0329  1.6345
   10CHL1  H24B  730   0.668   6.233   8.800 -0.7150 -2.2647  2.8256
   10CHL1   C25  731   0.766   6.175   8.614 -0.4766 -0.2057 -0.0716
   10CHL1   H25  732   0.858   6.120   8.584 -0.5286 -0.2602 -0.1326
   10CHL1   C26  733   0.662   6.092   8.551  0.0024 -0.5604  0.1484
   10CHL1  H26A  734   0.565   6.145   8.560 -0.3504 -1.0579 -0.5719
   10CHL1  H26B  735   0.672   6.078   8.441 -0.3817  0.5372 -0.0384
   10CHL1  H26C  736   0.648   5.990   8.593 -0.3010 -1.0187 -1.0375
   10CHL1   C27  737   0.758   6.321   8.561 -0.4507 -0.1547 -0.8418
   10CHL1  H27A  738   0.656   6.364   8.557  0.5394  3.1326  2.7865
   10CHL1  H27B  739   0.817   6.386   8.629 -1.3764  1.4535 -1.5249
   10CHL1  H27C  740   0.809   6.320   8.462  1.3483  0.7950  0.0214
   11CHL1    C3  741   2.499   1.748  10.216  0.0836 -0.7068 -0.3409
   11CHL1    H3  742   2.392   1.767  10.195  0.5355 -0.6783 -2.9290
   11CHL1    O3  743   2.519   1.728  10.357 -0.9974 -0.2562 -0.0494
   11CHL1   H3'  744   2.611   1.702  10.364 -1.4963 -2.2706 -0.0685
   11CHL1    C4  745   2.525   1.624  10.141 -0.2661  0.2542  0.9000
   11CHL1   H4A  746   2.619   1.577  10.176 -1.1038  0.3461  3.4525
   11CHL1   H4B  747   2.452   1.546  10.170 -0.4676 -0.0411 -0.3595
   11CHL1    C5  748   2.525   1.648   9.992  0.1154  0.1963 -0.8213
   11CHL1    C6  749   2.446   1.565   9.912 -0.9233  0.1614 -0.1366
   11CHL1    H6  750   2.376   1.491   9.954  0.0669 -0.1033  1.1085
   11CHL1    C7  751   2.451   1.577   9.761 -0.0413  0.3268  0.4473
   11CHL1   H7A  752   2.459   1.474   9.721 -1.3701 -0.9170  3.1634
   11CHL1   H7B  753   2.352   1.614   9.724 -1.3437 -0.0112  3.3240
   11CHL1    C8  754   2.562   1.668   9.710 -0.1312 -0.2349  0.4066
   11CHL1    H8  755   2.659   1.616   9.724 -0.3878 -0.3439  1.9897
   11CHL1   C14  756   2.536   1.699   9.562  0.1227  0.4396  0.1968
   11CHL1   H14  757   2.435   1.745   9.565 -1.8368 -3.3755 -1.1399
   11CHL1   C15  758   2.519   1.575   9.475 -0.3442 -0.7612  0.3255
   11CHL1  H15A  759   2.598   1.502   9.503  1.9387  1.2839 -0.4168
   11CHL1  H15B  760   2.419   1.529   9.488 -0.3581 -1.6395 -2.2549
   11CHL1   C16  761   2.541   1.630   9.332  0.0560 -0.0920  0.2212
   11CHL1  H16A  762   2.623   1.569   9.290 -1.3028 -1.7906 -0.0617
   11CHL1  H16B  763   2.454   1.621   9.263  0.1837 -0.7833  0.1476
   11CHL1   C17  764   2.592   1.777   9.347  0.2893 -0.0811  0.1875
   11CHL1   H17  765   2.501   1.840   9.346  0.2245 -0.1168  1.4397
   11CHL1   C13  766   2.634   1.791   9.497  0.2619 -0.1133 -0.4052
   11CHL1   C18  767   2.776   1.737   9.506 -0.1697 -0.4619 -0.1928
   11CHL1  H18A  768   2.786   1.645   9.444 -2.0917 -0.7929 -0.0671
   11CHL1  H18B  769   2.837   1.819   9.463  1.6031 -1.3023  0.6038
   11CHL1  H18C  770   2.815   1.721   9.609  2.3311  0.1201 -0.9797
   11CHL1   C12  771   2.621   1.926   9.570 -0.4627 -0.0773 -0.1972
   11CHL1  H12A  772   2.690   2.004   9.531  2.1264 -0.6774  2.7268
   11CHL1  H12B  773   2.514   1.951   9.558 -0.7337 -1.6890 -1.5162
   11CHL1   C11  774   2.650   1.906   9.726  0.1858 -0.1558  0.8036
   11CHL1  H11A  775   2.758   1.882   9.725 -0.1439 -1.8456  1.8689
   11CHL1  H11B  776   2.630   2.000   9.782  0.4787  1.1347 -1.1421
   11CHL1    C9  777   2.566   1.799   9.794  0.1343  1.2714 -0.5438
   11CHL1    H9  778   2.462   1.837   9.792 -1.3106 -2.2919  0.0974
   11CHL1   C10  779   2.605   1.772   9.943  0.0482  0.7805  0.4738
   11CHL1   C19  780   2.752   1.729   9.947  0.3601 -0.3800  0.2896
   11CHL1  H19A  781   2.776   1.632   9.897 -0.0136  0.8063 -2.3909
   11CHL1  H19B  782   2.820   1.798   9.892  0.0053  0.0510  0.3860
   11CHL1  H19C  783   2.786   1.711  10.051  0.5896 -0.9342  0.1253
   11CHL1    C1  784   2.580   1.905  10.025  0.4161  0.8091 -0.0144
   11CHL1   H1A  785   2.656   1.983   9.999 -0.8277  1.8452 -0.6682
   11CHL1   H1B  786   2.474   1.933  10.007 -0.0549 -0.8165  0.1298
   11CHL1    C2  787   2.592   1.866  10.176  0.3272  0.3791 -0.6483
   11CHL1   H2A  788   2.564   1.962  10.225  2.5469  0.3497  0.8297
   11CHL1   H2B  789   2.695   1.847  10.214  0.0189 -1.8723 -0.8066
   11CHL1   C20  790   2.684   1.823   9.235 -0.2271 -0.3586 -0.2166
   11CHL1   H20  791   2.781   1.770   9.250  1.2427  2.3926  0.6191
   11CHL1   C21  792   2.715   1.967   9.257 -0.3467 -0.4557  0.5296
   11CHL1  H21A  793   2.784   1.998   9.175 -0.9679 -1.4610 -0.4003
   11CHL1  H21B  794   2.757   1.994   9.356  1.6438  2.3692 -0.9502
   11CHL1  H21C  795   2.632   2.036   9.232  0.6853  1.0135  1.0158
   11CHL1   C22  796   2.624   1.813   9.093 -0.2162  0.4312  0.3688
   11CHL1  H22A  797   2.513   1.810   9.091 -0.2204  0.5992  0.3223
   11CHL1  H22B  798   2.644   1.912   9.046  1.5108 -0.7582 -1.6358
   11CHL1   C23  799   2.680   1.700   9.000  0.2602  0.4837  0.4082
   11CHL1  H23A  800   2.791   1.702   8.994  0.3273  0.7184  1.4894
   11CHL1  H23B  801   2.664   1.596   9.036  5.0082 -1.7583 -2.8213
   11CHL1   C24  802   2.620   1.721   8.855  0.6919 -0.0302  0.7386
   11CHL1  H24A  803   2.510   1.736   8.866  0.5585 -0.8058  0.5857
   11CHL1  H24B  804   2.653   1.816   8.809 -0.2925 -0.6591 -1.4059
   11CHL1   C25  805   2.630   1.605   8.761 -0.1829  0.5231 -0.5081
   11CHL1   H25  806   2.597   1.514   8.815  2.2074 -0.4248 -0.5667
   11CHL1   C26  807   2.545   1.626   8.640  0.5223  0.5594 -0.8743
   11CHL1  H26A  808   2.572   1.570   8.548  0.8673  0.0279 -0.4552
   11CHL1  H26B  809   2.438   1.606   8.662  0.1772  0.2148 -2.7552
   11CHL1  H26C  810   2.549   1.733   8.613 -0.2635  0.7011 -0.4804
   11CHL1   C27  811   2.775   1.587   8.718 -0.1616 -0.3482  0.2100
   11CHL1  H27A  812   2.812   1.673   8.659 -0.6636 -1.0272 -1.1502
   11CHL1  H27B  813   2.850   1.581   8.799 -1.1529 -0.6294  1.1362
   11CHL1  H27C  814   2.791   1.503   8.647 -2.1925 -0.8729  0.2976
   12CHL1    C3  815   5.748   4.549  10.436  0.5391 -1.1131 -0.6417
   12CHL1    H3  816   5.841   4.607  10.422  1.0713 -1.5159  1.0452
   12CHL1    O3  817   5.711   4.560  10.576 -0.0007  0.3936  0.0294
   12CHL1   H3'  818   5.641   4.497  10.598  0.9856 -0.1456  1.8340
   12CHL1    C4  819   5.634   4.621  10.360  0.6695  0.3011  0.3099
   12CHL1   H4A  820   5.546   4.571  10.404  0.0378  0.9285 -0.2281
   12CHL1   H4B  821   5.634   4.725  10.398 -0.1299 -0.0731  1.3874
   12CHL1    C5  822   5.623   4.605  10.213 -0.4487  0.5415 -0.4715
   12CHL1    C6  823   5.617   4.713  10.142  0.2680 -0.4549 -0.1595
   12CHL1    H6  824   5.611   4.807  10.199  2.4962  0.8936 -2.0063
   12CHL1    C7  825   5.615   4.723   9.995 -0.4158  0.0138  0.3227
   12CHL1   H7A  826   5.548   4.801   9.953  0.1144  0.7725  0.8467
   12CHL1   H7B  827   5.715   4.762   9.964 -0.5222 -0.3615 -0.5156
   12CHL1    C8  828   5.595   4.584   9.931  0.5617 -0.0308 -0.3461
   12CHL1    H8  829   5.488   4.557   9.938  0.6793 -0.1463  2.1420
   12CHL1   C14  830   5.634   4.589   9.789  0.2191  0.0520 -0.4235
   12CHL1   H14  831   5.741   4.620   9.784 -0.1225  1.4505  0.3107
   12CHL1   C15  832   5.561   4.696   9.703 -0.1265  0.4883  0.0634
   12CHL1  H15A  833   5.456   4.676   9.732  0.7078 -3.3058  1.0018
   12CHL1  H15B  834   5.603   4.796   9.725 -0.4043  0.2751  1.7465
   12CHL1   C16  835   5.597   4.656   9.559 -0.2551  0.0430 -0.3200
   12CHL1  H16A  836   5.513   4.663   9.486  0.0943 -1.8690 -0.9593
   12CHL1  H16B  837   5.680   4.714   9.512  0.4455 -1.1029 -0.5331
   12CHL1   C17  838   5.652   4.505   9.570  0.5365 -0.5715 -0.4739
   12CHL1   H17  839   5.761   4.524   9.577  0.3936  0.7240 -1.4095
   12CHL1   C13  840   5.617   4.453   9.714 -0.0818 -0.4679  0.1479
   12CHL1   C18  841   5.474   4.399   9.713  0.5174  0.0097  0.4708
   12CHL1  H18A  842   5.426   4.392   9.812 -0.2679  0.7011  0.1512
   12CHL1  H18B  843   5.409   4.476   9.666 -1.3350  0.2607  3.2383
   12CHL1  H18C  844   5.463   4.311   9.646 -1.2333  1.6200 -1.5041
   12CHL1   C12  845   5.714   4.350   9.771  0.2791 -0.4290  0.2357
   12CHL1  H12A  846   5.701   4.251   9.722 -2.1552  0.5776 -1.3706
   12CHL1  H12B  847   5.819   4.384   9.758  0.3665 -0.9483 -0.4425
   12CHL1   C11  848   5.686   4.342   9.923  0.4305 -0.5468 -0.3279
   12CHL1  H11A  849   5.588   4.291   9.926 -1.1507  2.3235  0.4406
   12CHL1  H11B  850   5.761   4.275   9.971 -1.3496 -1.2944  1.5428
   12CHL1    C9  851   5.675   4.471  10.009  0.9581 -0.3439  0.1914
   12CHL1    H9  852   5.778   4.513  10.004  1.4583 -1.5394  0.2113
   12CHL1   C10  853   5.644   4.465  10.156  0.7663  0.1585 -0.3799
   12CHL1   C19  854   5.511   4.389  10.185 -0.5019 -0.5026  0.2108
   12CHL1  H19A  855   5.481   4.388  10.292  0.1585  0.7879  0.4272
   12CHL1  H19B  856   5.422   4.436  10.137 -0.6444  0.3096  1.2398
   12CHL1  H19C  857   5.522   4.285  10.147  3.1698 -0.4616  0.8076
   12CHL1    C1  858   5.759   4.387  10.236  0.7952  0.0769  0.6766
   12CHL1   H1A  859   5.757   4.281  10.203  0.8112  1.1685 -3.3653
   12CHL1   H1B  860   5.860   4.418  10.200  2.1472 -1.9675  2.5001
   12CHL1    C2  861   5.760   4.403  10.388  0.2856  0.7372  1.2022
   12CHL1   H2A  862   5.863   4.374  10.420  0.2418  0.2372  0.8946
   12CHL1   H2B  863   5.681   4.343  10.439  0.0310  1.1095  1.2461
   12CHL1   C20  864   5.634   4.411   9.452  0.3143  0.4895  0.2768
   12CHL1   H20  865   5.624   4.310   9.499 -1.2047  2.2548  4.2499
   12CHL1   C21  866   5.756   4.431   9.365 -0.0183 -0.0922 -0.0165
   12CHL1  H21A  867   5.773   4.345   9.297  2.2642 -0.2871  0.7229
   12CHL1  H21B  868   5.851   4.436   9.421 -1.0060  1.2224  1.6573
   12CHL1  H21C  869   5.752   4.522   9.301 -3.2130 -0.1104 -0.0034
   12CHL1   C22  870   5.504   4.431   9.362 -0.6617 -0.1036 -0.2685
   12CHL1  H22A  871   5.413   4.429   9.425 -0.9682 -2.5976 -0.6750
   12CHL1  H22B  872   5.498   4.530   9.313 -3.6945  0.4633  1.0342
   12CHL1   C23  873   5.477   4.328   9.253  0.4387  0.1109 -0.8959
   12CHL1  H23A  874   5.540   4.357   9.166  3.2555  0.9165  1.2323
   12CHL1  H23B  875   5.512   4.227   9.285 -1.1156 -1.0199 -2.5816
   12CHL1   C24  876   5.330   4.331   9.205 -0.2532  0.3189  0.4660
   12CHL1  H24A  877   5.265   4.301   9.290 -1.2377  3.2169  0.8474
   12CHL1  H24B  878   5.307   4.434   9.172  0.8321  0.6224  0.6067
   12CHL1   C25  879   5.304   4.221   9.089 -0.1477 -0.2664  0.8091
   12CHL1   H25  880   5.314   4.118   9.129  2.5419 -0.4914 -0.1886
   12CHL1   C26  881   5.164   4.230   9.034  0.2943 -0.4415 -0.4704
   12CHL1  H26A  882   5.161   4.193   8.929  1.5903 -0.1213 -0.6447
   12CHL1  H26B  883   5.089   4.174   9.093  2.7503 -1.8920  1.4987
   12CHL1  H26C  884   5.143   4.338   9.020 -1.1342 -0.5053  1.0222
   12CHL1   C27  885   5.412   4.232   8.971 -0.2877  0.8854 -0.9639
   12CHL1  H27A  886   5.373   4.172   8.886 -0.2355 -0.1839 -0.2682
   12CHL1  H27B  887   5.430   4.332   8.928 -0.0075  0.1428 -2.6635
   12CHL1  H27C  888   5.510   4.191   9.005 -0.5837  0.3077 -0.7780
   13CHL1    C3  889   5.331   6.633   9.887  0.4012 -0.2576 -0.2599
   13CHL1    H3  890   5.242   6.566   9.885  1.6266 -1.9871  0.6142
   13CHL1    O3  891   5.363   6.660  10.020 -0.5459 -0.1071 -0.3267
   13CHL1   H3'  892   5.456   6.685  10.013 -0.0647 -1.5122  0.6432
   13CHL1    C4  893   5.451   6.572   9.824 -0.5385 -0.3825 -0.1250
   13CHL1   H4A  894   5.535   6.644   9.832 -1.4900  1.0292 -2.0315
   13CHL1   H4B  895   5.479   6.477   9.874  2.1646  1.0736  1.3440
   13CHL1    C5  896   5.434   6.553   9.673  0.3409 -0.4783  0.6018
   13CHL1    C6  897   5.440   6.433   9.619  0.1407  0.2631 -0.4414
   13CHL1    H6  898   5.467   6.345   9.679 -0.9189 -0.3689 -0.8669
   13CHL1    C7  899   5.407   6.397   9.475 -0.8043 -0.4597  0.2540
   13CHL1   H7A  900   5.488   6.330   9.438  1.0763  1.3857  0.8723
   13CHL1   H7B  901   5.302   6.360   9.464 -0.4389 -0.8976 -2.4776
   13CHL1    C8  902   5.403   6.527   9.389  0.2752 -0.4415 -0.1863
   13CHL1    H8  903   5.509   6.560   9.384  0.2008  0.1406  1.4235
   13CHL1   C14  904   5.348   6.492   9.253  0.0157  0.1262 -0.3040
   13CHL1   H14  905   5.241   6.473   9.276  0.4440  1.1053  3.0582
   13CHL1   C15  906   5.400   6.364   9.184  1.1708 -0.2788 -0.0720
   13CHL1  H15A  907   5.510   6.350   9.172  1.1622  0.0650 -0.6209
   13CHL1  H15B  908   5.355   6.274   9.230 -1.4798 -0.2038 -2.2443
   13CHL1   C16  909   5.341   6.386   9.037 -0.2136  0.6586  0.3217
   13CHL1  H16A  910   5.424   6.367   8.965 -0.0399 -1.8289  1.0906
   13CHL1  H16B  911   5.255   6.320   9.011  0.6634  0.5587 -2.7877
   13CHL1   C17  912   5.292   6.530   9.024 -0.5108 -0.4237  0.1842
   13CHL1   H17  913   5.182   6.531   9.038 -0.3916 -1.4270  1.3231
   13CHL1   C13  914   5.347   6.605   9.151 -0.5428  0.1634 -1.1127
   13CHL1   C18  915   5.487   6.660   9.111  0.1311  0.0422 -0.0904
   13CHL1  H18A  916   5.543   6.700   9.199 -2.6294 -0.6522  2.1310
   13CHL1  H18B  917   5.538   6.572   9.066 -1.9485  0.6378 -3.9788
   13CHL1  H18C  918   5.462   6.735   9.033  2.4655  0.2613 -0.7142
   13CHL1   C12  919   5.261   6.721   9.210 -1.1652  0.1117  0.2254
   13CHL1  H12A  920   5.249   6.811   9.147  1.3235 -0.2120 -0.8248
   13CHL1  H12B  921   5.166   6.663   9.218 -0.3468 -1.3576 -0.3039
   13CHL1   C11  922   5.321   6.764   9.344  0.5093  0.2979 -1.0449
   13CHL1  H11A  923   5.420   6.812   9.326 -0.5926  2.4870 -1.5354
   13CHL1  H11B  924   5.255   6.846   9.380  2.2214  2.0422 -1.6833
   13CHL1    C9  925   5.331   6.644   9.451  0.4473  0.7784 -0.4542
   13CHL1    H9  926   5.226   6.612   9.468  0.5298  1.6078  1.9741
   13CHL1   C10  927   5.385   6.676   9.593  0.1637  0.8831 -0.5448
   13CHL1   C19  928   5.510   6.767   9.566 -0.0912  0.8404  0.6847
   13CHL1  H19A  929   5.585   6.717   9.500 -0.5796 -0.2661  0.9615
   13CHL1  H19B  930   5.474   6.861   9.519 -2.3597 -0.0512  0.5519
   13CHL1  H19C  931   5.558   6.801   9.660 -0.6194  2.1539  0.5043
   13CHL1    C1  932   5.265   6.743   9.669 -0.3668  0.4694  0.1949
   13CHL1   H1A  933   5.244   6.838   9.616 -0.7094 -1.4944 -3.5700
   13CHL1   H1B  934   5.175   6.678   9.672 -1.4100  1.9181  1.0349
   13CHL1    C2  935   5.297   6.762   9.815 -0.9432 -0.2009  0.3829
   13CHL1   H2A  936   5.210   6.813   9.863 -0.0630  1.3884  0.3719
   13CHL1   H2B  937   5.385   6.830   9.815 -0.1594 -1.1875 -0.3982
   13CHL1   C20  938   5.308   6.597   8.886 -0.2773 -1.0311 -0.9157
   13CHL1   H20  939   5.416   6.621   8.875 -0.7313  0.9868 -1.5319
   13CHL1   C21  940   5.225   6.732   8.884 -0.4233 -0.0468 -0.0425
   13CHL1  H21A  941   5.241   6.769   8.780  0.3261 -2.2852 -0.7844
   13CHL1  H21B  942   5.267   6.798   8.963 -1.4398 -1.0739  1.4036
   13CHL1  H21C  943   5.118   6.712   8.907 -0.0083  0.0718  2.2078
   13CHL1   C22  944   5.282   6.502   8.761  0.1924  0.6424  0.6795
   13CHL1  H22A  945   5.300   6.549   8.662  1.6035  0.0891  0.6543
   13CHL1  H22B  946   5.349   6.414   8.768 -1.4517 -0.5703  1.8409
   13CHL1   C23  947   5.143   6.448   8.762 -0.1357 -0.1800 -0.0686
   13CHL1  H23A  948   5.114   6.424   8.867 -1.2550 -1.2146 -0.5873
   13CHL1  H23B  949   5.075   6.534   8.742 -0.7221 -0.7131 -0.3851
   13CHL1   C24  950   5.120   6.343   8.650 -0.5768 -0.1182  0.0811
   13CHL1  H24A  951   5.128   6.393   8.551 -0.9496  0.8162  0.5115
   13CHL1  H24B  952   5.198   6.264   8.648  0.3084  0.7119  0.3613
   13CHL1   C25  953   4.972   6.276   8.660 -0.2719 -1.1424 -0.9912
   13CHL1   H25  954   4.941   6.229   8.563 -2.5714 -0.1390 -0.8037
   13CHL1   C26  955   4.964   6.172   8.766  0.3641 -0.5429  0.6003
   13CHL1  H26A  956   5.031   6.085   8.745  0.4798  0.2389 -2.9796
   13CHL1  H26B  957   4.983   6.224   8.862  0.8053 -0.7678  0.6361
   13CHL1  H26C  958   4.864   6.123   8.759  1.2653 -2.3432 -0.4111
   13CHL1   C27  959   4.867   6.381   8.687 -0.1512 -0.1278  0.4182
   13CHL1  H27A  960   4.865   6.448   8.599  1.5414 -0.8724 -0.2387
   13CHL1  H27B  961   4.763   6.345   8.701 -0.1011 -0.4939 -0.1279
   13CHL1  H27C  962   4.886   6.445   8.776 -2.4769  0.3027  0.6733
   14CHL1    C3  963   4.834   2.439  10.425 -0.5371 -0.3480 -0.5881
   14CHL1    H3  964   4.762   2.370  10.375 -0.3805 -1.2519  0.4015
   14CHL1    O3  965   4.833   2.410  10.565  0.4338 -0.1749  0.0999
   14CHL1   H3'  966   4.899   2.341  10.564 -0.1162 -1.0361 -4.7663
   14CHL1    C4  967   4.968   2.420  10.360 -0.8673 -0.3507 -0.4573
   14CHL1   H4A  968   5.043   2.484  10.412 -2.0126  0.3908  0.3319
   14CHL1   H4B  969   5.006   2.316  10.374  0.9889  0.4966  1.3916
   14CHL1    C5  970   4.966   2.455  10.211 -0.0015 -0.0271 -0.6308
   14CHL1    C6  971   4.994   2.367  10.110  0.3367  0.5746 -0.6813
   14CHL1    H6  972   5.032   2.269  10.145 -2.1130 -0.5647 -0.9417
   14CHL1    C7  973   4.993   2.404   9.962 -0.2503  1.0717 -0.2091
   14CHL1   H7A  974   5.068   2.347   9.903 -1.0657 -1.9348  1.4588
   14CHL1   H7B  975   4.903   2.368   9.910  0.3871 -1.2796  0.2177
   14CHL1    C8  976   5.001   2.554   9.939  1.0936 -0.1228 -0.0662
   14CHL1    H8  977   5.103   2.589   9.966  1.0351  0.1090 -0.1432
   14CHL1   C14  978   4.967   2.601   9.796 -0.0453  0.5937  0.5307
   14CHL1   H14  979   4.862   2.571   9.779  0.3229 -0.8539  0.6986
   14CHL1   C15  980   5.055   2.536   9.683  0.7643 -0.0440 -0.6209
   14CHL1  H15A  981   5.161   2.563   9.702  0.1194  2.5772 -0.4746
   14CHL1  H15B  982   5.048   2.425   9.684 -0.6830 -0.0599  2.5580
   14CHL1   C16  983   5.002   2.610   9.564  0.1370 -0.1001 -0.5127
   14CHL1  H16A  984   5.097   2.613   9.506  1.1007 -1.0437  0.9751
   14CHL1  H16B  985   4.929   2.553   9.502  0.5397 -1.9661  0.6561
   14CHL1   C17  986   4.953   2.750   9.614  1.2492 -0.0700  0.2818
   14CHL1   H17  987   4.843   2.743   9.599  1.3715 -1.1816 -0.2548
   14CHL1   C13  988   4.974   2.749   9.770 -0.1946 -0.0128 -0.1506
   14CHL1   C18  989   5.115   2.796   9.808 -1.0298 -0.3338  0.3357
   14CHL1  H18A  990   5.144   2.769   9.911  1.7049 -1.0202 -0.5344
   14CHL1  H18B  991   5.198   2.747   9.753 -0.5098  2.2374 -1.3652
   14CHL1  H18C  992   5.122   2.905   9.786  2.9355 -0.5363 -0.1329
   14CHL1   C12  993   4.859   2.812   9.852 -0.2916  0.0930  0.3110
   14CHL1  H12A  994   4.864   2.923   9.843  0.0331 -0.0088 -1.0501
   14CHL1  H12B  995   4.759   2.768   9.835 -2.0199  3.3470  1.2112
   14CHL1   C11  996   4.885   2.785  10.002  0.7231  0.2122 -0.8554
   14CHL1  H11A  997   4.978   2.835  10.037  1.3667 -1.2232 -0.4483
   14CHL1  H11B  998   4.802   2.817  10.069  0.4952 -1.7532 -0.1338
   14CHL1    C9  999   4.901   2.627  10.029  0.5751 -0.1591 -0.5794
   14CHL1    H9 1000   4.802   2.580  10.011  0.1899  0.7161 -0.8076
   14CHL1   C10 1001   4.931   2.602  10.185  0.6101 -0.2550  0.2743
   14CHL1   C19 1002   5.037   2.695  10.247  0.1541  0.3433  0.1457
   14CHL1  H19A 1003   4.993   2.797  10.251  1.8577  1.1172 -0.1419
   14CHL1  H19B 1004   5.070   2.654  10.345 -0.7375  2.0027  1.1821
   14CHL1  H19C 1005   5.126   2.685  10.182  1.1212 -0.0652  1.4826
   14CHL1    C1 1006   4.792   2.624  10.267 -0.8316  0.0487 -0.2049
   14CHL1   H1A 1007   4.781   2.734  10.257  1.4565  0.4974  1.3320
   14CHL1   H1B 1008   4.707   2.577  10.213 -0.6944  0.9716 -1.2561
   14CHL1    C2 1009   4.795   2.583  10.414  0.3529  0.5806  0.3473
   14CHL1   H2A 1010   4.696   2.594  10.462 -0.2287 -2.2580  0.0124
   14CHL1   H2B 1011   4.869   2.650  10.462  1.4323  1.7198 -2.6374
   14CHL1   C20 1012   5.005   2.877   9.545 -0.6349 -0.4949  0.5431
   14CHL1   H20 1013   5.106   2.901   9.583 -1.3095 -0.3046  2.3087
   14CHL1   C21 1014   4.913   2.997   9.577 -0.4376  0.1107 -0.1245
   14CHL1  H21A 1015   4.940   3.045   9.674  1.5053 -0.9794 -0.0878
   14CHL1  H21B 1016   4.805   2.972   9.571 -0.1899 -1.0235 -0.0836
   14CHL1  H21C 1017   4.926   3.070   9.494 -1.4574 -0.7900 -1.1019
   14CHL1   C22 1018   5.021   2.863   9.390 -0.5049 -0.4509 -0.6152
   14CHL1  H22A 1019   5.045   2.967   9.360  1.0291  0.5822  3.5364
   14CHL1  H22B 1020   5.103   2.795   9.357  1.4979  2.7652 -2.8571
   14CHL1   C23 1021   4.895   2.820   9.313  1.2133 -0.1945 -0.3067
   14CHL1  H23A 1022   4.868   2.716   9.340  0.4596  0.7451  2.9337
   14CHL1  H23B 1023   4.811   2.885   9.346  2.0667  0.6108  0.3572
   14CHL1   C24 1024   4.909   2.856   9.170  0.0238 -0.0874  0.7063
   14CHL1  H24A 1025   4.903   2.965   9.149 -0.4050 -0.6652 -2.9088
   14CHL1  H24B 1026   5.009   2.813   9.145 -0.7426 -1.9916  0.7048
   14CHL1   C25 1027   4.809   2.778   9.078 -0.1170  0.0687 -0.0918
   14CHL1   H25 1028   4.819   2.668   9.086 -2.0349 -0.0265  2.6256
   14CHL1   C26 1029   4.669   2.788   9.135  0.0883 -0.4269 -0.3496
   14CHL1  H26A 1030   4.624   2.889   9.143 -1.6403 -1.1831 -0.2899
   14CHL1  H26B 1031   4.604   2.711   9.090  2.1603 -2.8925  0.6016
   14CHL1  H26C 1032   4.676   2.760   9.242 -1.1951 -2.9414 -0.8498
   14CHL1   C27 1033   4.802   2.816   8.934  0.5086  0.2185 -0.5682
   14CHL1  H27A 1034   4.713   2.768   8.888 -0.4681  1.5678 -0.1405
   14CHL1  H27B 1035   4.796   2.926   8.920 -0.0671  0.2696  0.0476
   14CHL1  H27C 1036   4.890   2.767   8.887 -0.5315 -1.2421 -1.0580
   15CHL1    C3 1037   4.676   1.941  10.316  0.4506  0.0670 -0.2055
   15CHL1    H3 1038   4.570   1.919  10.293  0.5762  1.6436 -2.5969
   15CHL1    O3 1039   4.681   1.944  10.461  0.0895  0.0713  0.5715
   15CHL1   H3' 1040   4.773   1.971  10.471  1.0716 -0.9346 -3.6935
   15CHL1    C4 1041   4.770   1.831  10.271 -0.1729 -0.2308 -0.1993
   15CHL1   H4A 1042   4.871   1.843  10.315 -0.0567  1.3209 -0.8348
   15CHL1   H4B 1043   4.729   1.739  10.317 -0.2148  0.1460  0.5273
   15CHL1    C5 1044   4.787   1.819  10.119  0.0379 -0.9834 -0.7772
   15CHL1    C6 1045   4.751   1.709  10.055  0.0209 -0.1996  0.1428
   15CHL1    H6 1046   4.721   1.621  10.114 -0.6129  0.9130  1.5338
   15CHL1    C7 1047   4.768   1.702   9.903  0.2042 -0.3869  0.6352
   15CHL1   H7A 1048   4.826   1.607   9.893  0.9684 -0.1272  2.2686
   15CHL1   H7B 1049   4.668   1.693   9.855  1.2639  0.0874 -1.8218
   15CHL1    C8 1050   4.853   1.813   9.834  0.3382 -0.5897 -0.3372
   15CHL1    H8 1051   4.961   1.793   9.851  0.4841 -0.1442 -0.7035
   15CHL1   C14 1052   4.828   1.812   9.688 -0.4224 -0.2019 -0.2416
   15CHL1   H14 1053   4.725   1.842   9.662  0.4722  1.0703 -2.6423
   15CHL1   C15 1054   4.861   1.677   9.622 -0.1469  0.1492 -0.0945
   15CHL1  H15A 1055   4.947   1.628   9.672 -1.5152 -2.3740 -0.0346
   15CHL1  H15B 1056   4.779   1.604   9.640  0.5678 -0.5792  0.3239
   15CHL1   C16 1057   4.892   1.713   9.479 -0.3666 -0.6897 -0.2370
   15CHL1  H16A 1058   4.992   1.687   9.438  0.0243  0.4084  0.0097
   15CHL1  H16B 1059   4.819   1.656   9.418 -0.9394 -0.2916  0.0691
   15CHL1   C17 1060   4.892   1.866   9.465  0.5162  0.4714 -0.1114
   15CHL1   H17 1061   4.787   1.898   9.454 -0.1325 -1.3528  0.4548
   15CHL1   C13 1062   4.919   1.912   9.609  0.1111  0.3684  0.2807
   15CHL1   C18 1063   5.064   1.881   9.641  0.2735  0.3251 -0.5443
   15CHL1  H18A 1064   5.085   1.913   9.745  3.9599 -1.1379 -0.7025
   15CHL1  H18B 1065   5.097   1.777   9.621  0.8540  0.7935 -2.1742
   15CHL1  H18C 1066   5.127   1.946   9.576  2.3097  1.5572  2.4510
   15CHL1   C12 1067   4.880   2.057   9.661 -0.1652 -0.2328  0.8763
   15CHL1  H12A 1068   4.936   2.137   9.608 -1.8910  0.1687 -0.4240
   15CHL1  H12B 1069   4.776   2.061   9.621 -0.4007  1.5302  1.5742
   15CHL1   C11 1070   4.884   2.069   9.811  0.0248 -0.7339  0.4251
   15CHL1  H11A 1071   4.987   2.080   9.851 -1.0859  0.5196  3.1238
   15CHL1  H11B 1072   4.843   2.170   9.830 -0.7886 -0.9111 -0.2978
   15CHL1    C9 1073   4.812   1.952   9.890 -0.7857 -0.4803 -0.0285
   15CHL1    H9 1074   4.704   1.963   9.867 -0.7691 -1.9479 -0.9631
   15CHL1   C10 1075   4.824   1.952  10.050  0.1321 -0.1283  0.0674
   15CHL1   C19 1076   4.975   1.987  10.083 -0.4135  0.4865  0.4940
   15CHL1  H19A 1077   5.050   1.911  10.050 -1.9817 -0.4378 -1.1182
   15CHL1  H19B 1078   5.003   2.089  10.050  1.2263  0.4950  1.7941
   15CHL1  H19C 1079   4.987   2.008  10.191  0.5684  0.5838  0.3755
   15CHL1    C1 1080   4.736   2.068  10.110  1.1719 -0.4224  0.0836
   15CHL1   H1A 1081   4.756   2.168  10.067 -0.8871  0.6045  1.3349
   15CHL1   H1B 1082   4.634   2.036  10.080  1.3263 -2.2782  1.3326
   15CHL1    C2 1083   4.720   2.082  10.264  0.6231  0.2819 -0.6713
   15CHL1   H2A 1084   4.643   2.158  10.287  0.9506  0.4045  0.0581
   15CHL1   H2B 1085   4.814   2.115  10.312  1.2905  0.1514 -1.8485
   15CHL1   C20 1086   4.977   1.935   9.352 -0.3511 -0.6777 -0.2739
   15CHL1   H20 1087   5.083   1.923   9.382 -1.2382 -2.0209  2.7492
   15CHL1   C21 1088   4.944   2.087   9.341  0.4812  0.1752  0.3414
   15CHL1  H21A 1089   4.971   2.125   9.240 -1.0819  1.0842  0.2246
   15CHL1  H21B 1090   4.987   2.160   9.413 -1.0335  0.0062  1.4713
   15CHL1  H21C 1091   4.834   2.102   9.350  0.0747 -2.5067  0.8417
   15CHL1   C22 1092   4.955   1.859   9.219  0.7208  0.4693  0.3777
   15CHL1  H22A 1093   4.968   1.750   9.234 -1.6067  0.1169  0.2123
   15CHL1  H22B 1094   4.847   1.858   9.194  0.0994 -2.3007  2.6154
   15CHL1   C23 1095   5.044   1.907   9.103  0.4034  0.2799 -0.1187
   15CHL1  H23A 1096   5.023   2.013   9.079 -0.5328 -0.0861 -0.9646
   15CHL1  H23B 1097   5.150   1.914   9.138  0.8211  1.5027 -1.5189
   15CHL1   C24 1098   5.026   1.824   8.968 -0.7201 -0.5919 -0.7822
   15CHL1  H24A 1099   5.053   1.719   8.993  2.4578  0.7361  2.1749
   15CHL1  H24B 1100   4.921   1.853   8.943 -0.5725  0.1519 -0.5760
   15CHL1   C25 1101   5.122   1.865   8.856  0.5382 -0.0577  0.1857
   15CHL1   H25 1102   5.226   1.838   8.886  1.2778  2.3890  0.0635
   15CHL1   C26 1103   5.090   1.775   8.733  1.1100 -1.1486 -0.0403
   15CHL1  H26A 1104   4.986   1.795   8.701  0.6476 -1.5866  1.1398
   15CHL1  H26B 1105   5.162   1.789   8.649  0.2436 -0.0363 -0.6252
   15CHL1  H26C 1106   5.094   1.671   8.772 -1.9270 -0.3438  2.9339
   15CHL1   C27 1107   5.117   2.017   8.828 -0.2698  0.7871 -0.1652
   15CHL1  H27A 1108   5.203   2.043   8.763  2.6444 -0.6757  2.7795
   15CHL1  H27B 1109   5.021   2.035   8.775 -0.9112 -0.1007  0.6368
   15CHL1  H27C 1110   5.118   2.083   8.917  3.2785  0.9766 -0.2058
   16CHL1    C3 1111   4.744   6.572  10.309 -0.2073  0.6890 -0.0360
   16CHL1    H3 1112   4.840   6.518  10.293 -0.1308  0.8382 -0.0867
   16CHL1    O3 1113   4.714   6.553  10.448 -0.0042 -0.2126  0.0689
   16CHL1   H3' 1114   4.622   6.526  10.445 -0.3027  0.7921 -0.2659
   16CHL1    C4 1115   4.757   6.722  10.287  0.6710  0.1980  0.1901
   16CHL1   H4A 1116   4.658   6.769  10.304 -0.6102 -2.1223 -0.4398
   16CHL1   H4B 1117   4.829   6.755  10.365  0.6728 -0.8042  0.6290
   16CHL1    C5 1118   4.796   6.758  10.145  0.2213  0.9337  0.3048
   16CHL1    C6 1119   4.911   6.826  10.116  0.6325  0.1220 -0.2476
   16CHL1    H6 1120   4.981   6.856  10.195 -0.0151  2.2972 -0.4101
   16CHL1    C7 1121   4.943   6.863   9.978  0.9805 -0.2435 -0.3447
   16CHL1   H7A 1122   4.994   6.961   9.966  0.3171 -0.0126 -1.3267
   16CHL1   H7B 1123   5.017   6.789   9.940  1.0823 -1.0014  1.2252
   16CHL1    C8 1124   4.814   6.856   9.878  0.4034 -0.1135 -0.4224
   16CHL1    H8 1125   4.741   6.938   9.896  0.4562  0.5918 -3.1163
   16CHL1   C14 1126   4.873   6.865   9.737  1.0509 -0.3882 -0.0928
   16CHL1   H14 1127   4.936   6.774   9.735  0.1408 -1.1125  1.6907
   16CHL1   C15 1128   4.955   6.987   9.702  0.1331 -0.0845 -0.2818
   16CHL1  H15A 1129   4.896   7.079   9.725  0.4690 -0.1877  1.0601
   16CHL1  H15B 1130   5.059   6.989   9.739 -0.3030 -2.3498  1.3259
   16CHL1   C16 1131   4.964   6.965   9.551 -0.5694  0.1303  0.4988
   16CHL1  H16A 1132   4.969   7.064   9.501 -1.3671  0.3479  0.8345
   16CHL1  H16B 1133   5.064   6.919   9.536 -0.3853 -0.1492  2.3666
   16CHL1   C17 1134   4.854   6.864   9.498 -0.1872 -0.4085  0.1771
   16CHL1   H17 1135   4.911   6.770   9.482  1.9140  1.0078 -1.0845
   16CHL1   C13 1136   4.768   6.846   9.625 -0.2352  0.0776 -0.3672
   16CHL1   C18 1137   4.663   6.955   9.630 -0.6017  1.0791  0.1439
   16CHL1  H18A 1138   4.701   7.059   9.624 -2.6793  1.8707 -0.1943
   16CHL1  H18B 1139   4.586   6.955   9.550 -2.5230 -2.6323  1.7402
   16CHL1  H18C 1140   4.610   6.948   9.728 -2.7662  0.1503 -1.0217
   16CHL1   C12 1141   4.709   6.708   9.637  0.5060  0.5355  1.0193
   16CHL1  H12A 1142   4.626   6.698   9.563  0.5010  3.0904  0.5818
   16CHL1  H12B 1143   4.786   6.630   9.617 -0.9889 -0.3902 -1.5811
   16CHL1   C11 1144   4.651   6.684   9.786  0.6821  0.0432  0.1722
   16CHL1  H11A 1145   4.560   6.748   9.795  0.9268  0.2121  1.6054
   16CHL1  H11B 1146   4.621   6.577   9.785  0.8541 -0.0097  0.5202
   16CHL1    C9 1147   4.750   6.723   9.897 -0.1521  0.2870 -0.1621
   16CHL1    H9 1148   4.827   6.647   9.875  1.4530  2.3365 -1.9876
   16CHL1   C10 1149   4.689   6.704  10.041  0.1997  0.1418 -0.0558
   16CHL1   C19 1150   4.554   6.788  10.055  0.4104 -0.3046 -0.4857
   16CHL1  H19A 1151   4.579   6.895  10.038  2.0648 -0.7492 -1.0126
   16CHL1  H19B 1152   4.477   6.746   9.986 -1.1220 -0.6208  1.3243
   16CHL1  H19C 1153   4.505   6.781  10.155 -0.4172  1.1113 -0.7708
   16CHL1    C1 1154   4.660   6.557  10.072 -0.6394 -0.1946  0.3627
   16CHL1   H1A 1155   4.573   6.510  10.021  0.5847 -3.7730  1.2858
   16CHL1   H1B 1156   4.750   6.503  10.036 -0.0974  1.5066 -0.9352
   16CHL1    C2 1157   4.635   6.515  10.220 -0.4619  0.4004  0.0338
   16CHL1   H2A 1158   4.631   6.405  10.233 -2.3275  0.2523 -1.3854
   16CHL1   H2B 1159   4.535   6.540  10.261 -0.2557  0.4428  0.5290
   16CHL1   C20 1160   4.786   6.907   9.369  0.6169 -0.1646  0.4296
   16CHL1   H20 1161   4.744   7.007   9.394  1.6039 -0.0190  1.6361
   16CHL1   C21 1162   4.687   6.806   9.311  0.5468  0.4563 -0.5340
   16CHL1  H21A 1163   4.732   6.716   9.265 -3.2395 -1.5423 -0.7319
   16CHL1  H21B 1164   4.616   6.854   9.240 -0.0996  1.2880  0.6284
   16CHL1  H21C 1165   4.607   6.780   9.384 -0.7366  0.7576 -1.7791
   16CHL1   C22 1166   4.893   6.944   9.249 -0.2600 -0.0692 -0.0014
   16CHL1  H22A 1167   4.981   6.990   9.299  1.1025 -1.9549 -0.5461
   16CHL1  H22B 1168   4.922   6.844   9.211  0.5409  0.4671 -0.8387
   16CHL1   C23 1169   4.834   7.026   9.129  0.0639  0.2699 -0.1410
   16CHL1  H23A 1170   4.779   6.953   9.066 -2.0497  1.2819  0.4285
   16CHL1  H23B 1171   4.769   7.103   9.176  1.0880 -0.6847  3.1560
   16CHL1   C24 1172   4.946   7.088   9.041  0.1807 -0.5428  0.5124
   16CHL1  H24A 1173   5.006   7.152   9.109  3.8287 -1.6223 -1.4058
   16CHL1  H24B 1174   5.017   7.005   9.016  0.2073 -1.1234  2.3699
   16CHL1   C25 1175   4.898   7.169   8.919  0.1114 -0.6896  0.2971
   16CHL1   H25 1176   4.829   7.251   8.949  0.4268 -0.8400  1.4829
   16CHL1   C26 1177   5.012   7.255   8.861  0.2838  0.5936  0.4717
   16CHL1  H26A 1178   4.981   7.298   8.763  1.0673  0.4541  0.1539
   16CHL1  H26B 1179   5.039   7.333   8.935 -0.5916  0.4755  0.9317
   16CHL1  H26C 1180   5.102   7.190   8.852 -1.8324 -2.5632  0.4745
   16CHL1   C27 1181   4.823   7.087   8.811 -0.6529  0.4628 -0.2369
   16CHL1  H27A 1182   4.790   7.143   8.720 -0.6502 -0.3853 -0.7702
   16CHL1  H27B 1183   4.884   7.005   8.767  1.8073  2.8008 -1.5092
   16CHL1  H27C 1184   4.734   7.046   8.862  1.1651 -1.2970  1.7400
   17CHL1    C3 1185   2.689   5.557  10.293 -0.2870 -0.4164  0.1059
   17CHL1    H3 1186   2.770   5.483  10.279  1.9156  0.1107  6.5786
   17CHL1    O3 1187   2.663   5.575  10.433  0.3583 -0.0414  0.2120
   17CHL1   H3' 1188   2.612   5.499  10.463  1.3611 -0.9151 -0.2388
   17CHL1    C4 1189   2.719   5.697  10.240  0.6224 -0.6831  0.5901
   17CHL1   H4A 1190   2.629   5.760  10.259  0.5062 -0.6728  0.0250
   17CHL1   H4B 1191   2.795   5.735  10.311  1.9524 -2.7016  0.3234
   17CHL1    C5 1192   2.757   5.695  10.097  0.0196 -0.0925 -0.3978
   17CHL1    C6 1193   2.876   5.752  10.061  0.3248 -0.7336 -0.4855
   17CHL1    H6 1194   2.929   5.817  10.132 -0.6942 -0.6770  0.2426
   17CHL1    C7 1195   2.929   5.762   9.924 -0.4005  0.4991  0.6375
   17CHL1   H7A 1196   2.960   5.867   9.907  0.1870  0.0406 -1.3189
   17CHL1   H7B 1197   3.019   5.700   9.909  0.3716  1.7399 -0.1027
   17CHL1    C8 1198   2.827   5.726   9.811  0.6122  0.1304 -0.5272
   17CHL1    H8 1199   2.762   5.815   9.792 -1.0515 -0.4300  1.9389
   17CHL1   C14 1200   2.893   5.675   9.682 -0.3247 -0.1860 -0.3160
   17CHL1   H14 1201   2.953   5.588   9.716  0.9787  0.3174 -1.2283
   17CHL1   C15 1202   2.987   5.769   9.608 -0.9424  0.0346 -0.1500
   17CHL1  H15A 1203   2.953   5.875   9.599  2.4735  1.2742  0.1129
   17CHL1  H15B 1204   3.081   5.771   9.668  0.2404 -0.3755 -1.9083
   17CHL1   C16 1205   3.008   5.704   9.472  0.5430  0.6705 -0.1826
   17CHL1  H16A 1206   3.013   5.790   9.403 -1.1925 -1.2745 -2.9121
   17CHL1  H16B 1207   3.105   5.650   9.471 -0.4769 -1.3167  0.5988
   17CHL1   C17 1208   2.899   5.597   9.451 -0.1515  0.4657 -0.7428
   17CHL1   H17 1209   2.934   5.495   9.479 -0.8303  0.5647  0.5491
   17CHL1   C13 1210   2.797   5.628   9.570 -0.1479  0.4074 -0.8425
   17CHL1   C18 1211   2.704   5.750   9.543 -0.3966  0.4968 -0.3161
   17CHL1  H18A 1212   2.761   5.840   9.510  0.5180  0.8811  2.1417
   17CHL1  H18B 1213   2.639   5.715   9.460  0.1002  0.4934 -0.7055
   17CHL1  H18C 1214   2.647   5.789   9.630  0.1185  1.1820 -0.2752
   17CHL1   C12 1215   2.712   5.512   9.613  0.0399 -0.2188 -0.7439
   17CHL1  H12A 1216   2.634   5.483   9.540  0.1304 -2.5368 -0.0181
   17CHL1  H12B 1217   2.784   5.429   9.633 -0.6861 -1.0095 -1.3428
   17CHL1   C11 1218   2.644   5.540   9.744 -0.0158  0.1815  0.2636
   17CHL1  H11A 1219   2.559   5.610   9.726  1.4011  1.6318 -1.2077
   17CHL1  H11B 1220   2.603   5.444   9.782 -2.0960  1.3643  1.1858
   17CHL1    C9 1221   2.732   5.603   9.859 -0.6589 -0.6599 -0.2302
   17CHL1    H9 1222   2.810   5.527   9.882  1.3546  1.6626  1.1144
   17CHL1   C10 1223   2.661   5.635   9.994 -0.1752 -0.3093 -0.5395
   17CHL1   C19 1224   2.556   5.737   9.973 -0.1726 -0.8201  0.1613
   17CHL1  H19A 1225   2.480   5.691   9.906  0.3476 -3.0533  1.0184
   17CHL1  H19B 1226   2.513   5.790  10.061  1.7321  2.9541 -0.9621
   17CHL1  H19C 1227   2.597   5.823   9.915 -0.9572 -1.3593 -1.2518
   17CHL1    C1 1228   2.603   5.503  10.061  0.6215  0.8121  0.2076
   17CHL1   H1A 1229   2.515   5.481   9.997  0.3568  1.8903  0.1762
   17CHL1   H1B 1230   2.693   5.440  10.048  1.3960  1.5262  1.7511
   17CHL1    C2 1231   2.569   5.509  10.214  0.2882 -0.8748  0.2384
   17CHL1   H2A 1232   2.522   5.419  10.259 -0.4336 -0.5771  0.0911
   17CHL1   H2B 1233   2.480   5.574  10.206 -0.2958 -1.6495  0.3024
   17CHL1   C20 1234   2.853   5.598   9.310 -0.2062  0.3283  0.2283
   17CHL1   H20 1235   2.815   5.701   9.289  1.4194  0.9460  0.1650
   17CHL1   C21 1236   2.739   5.495   9.283 -0.3859 -0.3146 -0.7837
   17CHL1  H21A 1237   2.770   5.403   9.335  0.9156 -0.8255 -2.3688
   17CHL1  H21B 1238   2.739   5.470   9.174  0.0808  0.1301 -0.8929
   17CHL1  H21C 1239   2.639   5.528   9.319  0.3747  0.0835  1.0294
   17CHL1   C22 1240   2.970   5.569   9.211 -0.0800  0.0875  0.8800
   17CHL1  H22A 1241   3.061   5.534   9.263  0.8393  1.4657  0.2597
   17CHL1  H22B 1242   2.947   5.485   9.143 -0.5785 -0.6757  1.9642
   17CHL1   C23 1243   3.009   5.687   9.124 -0.2449  0.2799 -0.4508
   17CHL1  H23A 1244   2.920   5.721   9.068  0.6063  1.3695 -1.2046
   17CHL1  H23B 1245   3.036   5.759   9.205 -2.9004 -0.9471  1.6802
   17CHL1   C24 1246   3.133   5.678   9.038 -0.1859  0.3857 -0.0122
   17CHL1  H24A 1247   3.185   5.776   9.024  0.1790  0.1005 -0.6700
   17CHL1  H24B 1248   3.211   5.621   9.094 -0.6855  0.3499  0.6630
   17CHL1   C25 1249   3.097   5.614   8.907  0.1006 -0.4297  1.0258
   17CHL1   H25 1250   3.019   5.536   8.917 -2.0012  1.2347 -1.0573
   17CHL1   C26 1251   3.036   5.720   8.809 -0.3495 -0.4823  0.1964
   17CHL1  H26A 1252   2.942   5.766   8.846  0.5672  0.3081  1.6413
   17CHL1  H26B 1253   3.115   5.797   8.794  0.1649 -0.7338  1.5216
   17CHL1  H26C 1254   3.003   5.679   8.712  0.4006  1.4373 -0.9406
   17CHL1   C27 1255   3.224   5.544   8.850 -0.6654 -0.3697  0.4272
   17CHL1  H27A 1256   3.208   5.517   8.743 -2.1711 -1.8809  0.9812
   17CHL1  H27B 1257   3.299   5.625   8.854 -2.1349  1.0511  0.5552
   17CHL1  H27C 1258   3.246   5.449   8.903  0.7939  0.2473  0.9683
   18CHL1    C3 1259   0.197   4.784  10.200  0.1167  0.7840  0.3084
   18CHL1    H3 1260   0.091   4.752  10.195  0.4775 -0.2897 -1.1674
   18CHL1    O3 1261   0.227   4.783  10.339  0.6435 -0.2270 -0.4653
   18CHL1   H3' 1262   0.230   4.690  10.364 -1.2657 -0.1305  0.2979
   18CHL1    C4 1263   0.303   4.688  10.139 -0.2003 -0.0580 -0.1399
   18CHL1   H4A 1264   0.403   4.726  10.167 -0.4739  0.7947 -0.2943
   18CHL1   H4B 1265   0.281   4.585  10.176  1.1661 -1.9323 -3.9784
   18CHL1    C5 1266   0.299   4.686   9.988  0.6367  0.0971  0.8737
   18CHL1    C6 1267   0.279   4.570   9.927  0.2775  0.3196  0.1877
   18CHL1    H6 1268   0.273   4.474   9.980 -0.8944 -0.9472 -2.1008
   18CHL1    C7 1269   0.293   4.558   9.778 -0.2612 -0.8177  1.3866
   18CHL1   H7A 1270   0.366   4.480   9.747 -0.6403 -0.5753 -0.2252
   18CHL1   H7B 1271   0.199   4.533   9.725  0.3750 -2.4181  0.9333
   18CHL1    C8 1272   0.333   4.690   9.708 -0.1619 -0.1665  1.7623
   18CHL1    H8 1273   0.444   4.693   9.703 -0.2132  1.6607  0.8333
   18CHL1   C14 1274   0.280   4.698   9.561 -1.0930  0.9831 -0.5017
   18CHL1   H14 1275   0.170   4.699   9.578 -1.0591  2.4743 -0.2911
   18CHL1   C15 1276   0.312   4.583   9.467 -0.2470 -0.1888  0.2054
   18CHL1  H15A 1277   0.419   4.554   9.461 -0.1793  0.3287 -1.6525
   18CHL1  H15B 1278   0.257   4.491   9.497  0.3443 -1.0287 -1.2162
   18CHL1   C16 1279   0.272   4.637   9.324  0.6016  0.3414  0.5355
   18CHL1  H16A 1280   0.359   4.620   9.257  1.8393  4.9661  0.6488
   18CHL1  H16B 1281   0.181   4.588   9.284  0.8619 -0.1184  0.4951
   18CHL1   C17 1282   0.245   4.790   9.345 -0.8251 -0.1890  0.4964
   18CHL1   H17 1283   0.138   4.818   9.353 -0.4398  2.4186 -1.9078
   18CHL1   C13 1284   0.316   4.819   9.482 -0.2891  0.5427  0.2832
   18CHL1   C18 1285   0.474   4.832   9.462 -0.1249 -0.2235  0.3607
   18CHL1  H18A 1286   0.499   4.938   9.441  2.3530 -1.1475 -1.8853
   18CHL1  H18B 1287   0.535   4.791   9.544  0.5921 -0.2698 -0.1890
   18CHL1  H18C 1288   0.500   4.788   9.364 -0.0246  3.3853 -1.4149
   18CHL1   C12 1289   0.260   4.950   9.550  0.2162  0.1327 -0.1027
   18CHL1  H12A 1290   0.274   5.047   9.498 -0.0258 -0.0411 -0.4965
   18CHL1  H12B 1291   0.151   4.936   9.561 -0.3340  3.1556 -0.8971
   18CHL1   C11 1292   0.323   4.953   9.693  0.9279  0.2647  0.5348
   18CHL1  H11A 1293   0.434   4.959   9.689  0.9427 -0.7975 -1.0814
   18CHL1  H11B 1294   0.287   5.043   9.748  0.2320 -0.5836  1.5030
   18CHL1    C9 1295   0.280   4.823   9.773  0.0467 -0.2747  0.4467
   18CHL1    H9 1296   0.170   4.817   9.763  0.1307 -1.0978 -0.0927
   18CHL1   C10 1297   0.313   4.833   9.921  0.8090 -0.6392 -0.7826
   18CHL1   C19 1298   0.453   4.889   9.948 -1.1477  0.2274 -0.0588
   18CHL1  H19A 1299   0.477   4.980   9.890 -1.8880  0.4525 -0.0182
   18CHL1  H19B 1300   0.469   4.910  10.056 -0.0422 -0.0764 -0.1519
   18CHL1  H19C 1301   0.526   4.810   9.922 -0.9008  0.9342 -1.5761
   18CHL1    C1 1302   0.202   4.925   9.992  0.4498 -0.2100 -0.5405
   18CHL1   H1A 1303   0.195   5.024   9.940 -1.5776 -0.8957 -1.7100
   18CHL1   H1B 1304   0.103   4.882   9.965  0.0618  0.3362 -0.0300
   18CHL1    C2 1305   0.205   4.921  10.145  0.2020  0.2060  0.1444
   18CHL1   H2A 1306   0.116   4.980  10.174  1.0740  0.9873  1.2933
   18CHL1   H2B 1307   0.290   4.983  10.179  0.4744 -0.8415  1.4535
   18CHL1   C20 1308   0.292   4.868   9.216  0.3906 -0.0350 -0.3837
   18CHL1   H20 1309   0.397   4.844   9.185  0.0941  1.2687 -2.6135
   18CHL1   C21 1310   0.264   5.020   9.238 -0.2047  0.5393 -0.2880
   18CHL1  H21A 1311   0.159   5.040   9.267 -0.0077  0.1236  0.7592
   18CHL1  H21B 1312   0.286   5.071   9.142  0.5480 -1.7907 -1.4264
   18CHL1  H21C 1313   0.338   5.065   9.308  1.3851 -0.5539 -1.1789
   18CHL1   C22 1314   0.221   4.817   9.089  0.2862 -0.3693  0.5774
   18CHL1  H22A 1315   0.228   4.706   9.077  0.4632 -0.3223  0.1999
   18CHL1  H22B 1316   0.115   4.844   9.107  0.3410 -1.0751  2.0609
   18CHL1   C23 1317   0.263   4.883   8.955  0.3136 -0.0931 -0.1870
   18CHL1  H23A 1318   0.241   4.991   8.967 -1.5482 -0.2714 -1.5648
   18CHL1  H23B 1319   0.372   4.866   8.940  0.2152 -1.4947  0.4670
   18CHL1   C24 1320   0.189   4.809   8.840  0.1959 -0.7327  0.2756
   18CHL1  H24A 1321   0.203   4.698   8.841  3.1021 -0.4331  0.8758
   18CHL1  H24B 1322   0.084   4.840   8.858  0.5543  0.5803  0.1528
   18CHL1   C25 1323   0.213   4.842   8.689 -0.9123  0.7588  0.7998
   18CHL1   H25 1324   0.174   4.946   8.683 -1.1062  0.6177 -4.2356
   18CHL1   C26 1325   0.367   4.835   8.659 -0.0556  0.2234 -0.2271
   18CHL1  H26A 1326   0.420   4.913   8.718 -0.6108  1.5603 -1.4385
   18CHL1  H26B 1327   0.406   4.738   8.696  0.7311  0.8282  0.5652
   18CHL1  H26C 1328   0.390   4.841   8.550 -1.5543 -0.5637 -0.6138
   18CHL1   C27 1329   0.131   4.757   8.594 -0.1494 -0.1035  0.1671
   18CHL1  H27A 1330   0.131   4.646   8.605 -0.3572 -0.1975 -0.6830
   18CHL1  H27B 1331   0.027   4.795   8.605 -0.0656 -0.1440  1.1809
   18CHL1  H27C 1332   0.172   4.774   8.492 -0.3605 -0.1547  0.0720
   19CHL1    C3 1333   4.705   0.803  10.108  0.0551  0.1582  0.1913
   19CHL1    H3 1334   4.628   0.722  10.107 -1.8542  1.8997 -0.1647
   19CHL1    O3 1335   4.726   0.828  10.243  0.1448 -0.1169  0.2430
   19CHL1   H3' 1336   4.809   0.875  10.247 -0.8477  1.6389  1.9305
   19CHL1    C4 1337   4.837   0.761  10.039  0.0641 -0.1984 -0.1242
   19CHL1   H4A 1338   4.911   0.838  10.068 -1.4911  1.4043 -0.2685
   19CHL1   H4B 1339   4.872   0.662  10.075 -3.2648 -1.4314  0.0431
   19CHL1    C5 1340   4.821   0.750   9.884 -0.2205 -0.7263  0.0323
   19CHL1    C6 1341   4.864   0.643   9.813 -0.6451  0.1189  1.0222
   19CHL1    H6 1342   4.910   0.561   9.871  0.0141 -0.8150 -0.7202
   19CHL1    C7 1343   4.858   0.622   9.666 -0.0705  0.1864  0.2830
   19CHL1   H7A 1344   4.954   0.578   9.631  0.3243  1.5627 -0.4391
   19CHL1   H7B 1345   4.775   0.558   9.630 -0.3014  1.8802 -2.4397
   19CHL1    C8 1346   4.846   0.756   9.594  0.4856  0.2322  0.4467
   19CHL1    H8 1347   4.949   0.797   9.601 -0.1392  1.8032  0.8620
   19CHL1   C14 1348   4.809   0.731   9.441 -0.5995  0.7817 -0.0086
   19CHL1   H14 1349   4.713   0.675   9.445  0.8089 -1.9707 -1.8168
   19CHL1   C15 1350   4.901   0.633   9.364  0.1847  0.2869 -0.2078
   19CHL1  H15A 1351   5.008   0.656   9.383  0.6505 -0.4428 -1.7807
   19CHL1  H15B 1352   4.895   0.523   9.381  3.3521  0.0528 -0.0163
   19CHL1   C16 1353   4.862   0.666   9.210 -0.3946 -0.6231 -0.6409
   19CHL1  H16A 1354   4.956   0.700   9.162  1.0483 -2.1445  0.9944
   19CHL1  H16B 1355   4.810   0.587   9.151  1.5973 -2.6381  0.1898
   19CHL1   C17 1356   4.765   0.791   9.223 -0.0652  0.0525  0.1735
   19CHL1   H17 1357   4.668   0.737   9.219  0.4667 -0.8521 -2.6894
   19CHL1   C13 1358   4.785   0.854   9.365  0.0120  0.1943  0.2352
   19CHL1   C18 1359   4.914   0.944   9.362  0.4094 -0.1871 -0.5871
   19CHL1  H18A 1360   4.938   0.994   9.458 -0.7174 -0.5902 -0.0857
   19CHL1  H18B 1361   5.004   0.883   9.337  1.8662  0.1923  3.1183
   19CHL1  H18C 1362   4.900   1.033   9.297  0.1139 -1.5056 -2.4189
   19CHL1   C12 1363   4.668   0.926   9.434  0.0427  0.1487 -0.2997
   19CHL1  H12A 1364   4.645   1.020   9.380 -2.4851 -0.4153 -0.3108
   19CHL1  H12B 1365   4.578   0.862   9.450  1.5030 -1.3167  2.8655
   19CHL1   C11 1366   4.695   0.965   9.577 -0.2564 -0.3147  0.2910
   19CHL1  H11A 1367   4.775   1.042   9.576 -0.5832  0.0481 -1.4398
   19CHL1  H11B 1368   4.598   1.011   9.605  0.0590  1.6911 -1.6274
   19CHL1    C9 1369   4.735   0.837   9.661 -0.5102  0.3388 -0.2127
   19CHL1    H9 1370   4.648   0.769   9.670 -1.1542  1.1341 -0.3463
   19CHL1   C10 1371   4.766   0.869   9.811  0.0819 -0.0638  0.3177
   19CHL1   C19 1372   4.870   0.982   9.811 -0.1124 -0.4037  0.0418
   19CHL1  H19A 1373   4.832   1.084   9.788 -2.0037 -0.5876  2.0189
   19CHL1  H19B 1374   4.915   0.998   9.912  1.3012 -0.5873 -0.5368
   19CHL1  H19C 1375   4.952   0.969   9.737 -0.6542  1.3565 -0.9387
   19CHL1    C1 1376   4.636   0.902   9.887 -0.1863 -0.1499 -0.2935
   19CHL1   H1A 1377   4.589   0.991   9.839 -0.0417 -0.2778 -0.6819
   19CHL1   H1B 1378   4.562   0.820   9.873 -0.0061 -0.2117 -0.9513
   19CHL1    C2 1379   4.650   0.928  10.036 -0.2181  0.1524  0.4158
   19CHL1   H2A 1380   4.553   0.945  10.087 -1.6978 -2.2344 -1.3594
   19CHL1   H2B 1381   4.719   1.013  10.053 -1.0017  0.4699  2.2660
   19CHL1   C20 1382   4.773   0.892   9.102  0.2551 -0.8569  0.9746
   19CHL1   H20 1383   4.867   0.951   9.104 -0.2331  0.0037 -0.1161
   19CHL1   C21 1384   4.652   0.998   9.114 -0.0865  0.1213 -0.3983
   19CHL1  H21A 1385   4.563   0.941   9.149  0.8144 -1.0492  0.0359
   19CHL1  H21B 1386   4.625   1.047   9.018 -0.7487  2.3034  0.8257
   19CHL1  H21C 1387   4.690   1.071   9.188  0.1530 -0.1338 -0.2667
   19CHL1   C22 1388   4.759   0.821   8.967 -0.1526  0.3116 -0.1612
   19CHL1  H22A 1389   4.824   0.731   8.956  1.3340  1.3596 -0.1938
   19CHL1  H22B 1390   4.652   0.794   8.954 -0.9747  3.5606 -0.8882
   19CHL1   C23 1391   4.779   0.912   8.845 -0.2813 -0.5299 -0.0526
   19CHL1  H23A 1392   4.700   0.989   8.836 -0.4178 -0.6231  0.3470
   19CHL1  H23B 1393   4.875   0.967   8.854 -1.1722  0.9016  1.0403
   19CHL1   C24 1394   4.781   0.823   8.715 -0.1919  0.4533  0.6518
   19CHL1  H24A 1395   4.811   0.884   8.627  0.5164 -1.1820 -0.2698
   19CHL1  H24B 1396   4.851   0.740   8.739 -1.1409 -0.4429  0.3628
   19CHL1   C25 1397   4.646   0.748   8.697 -0.0348 -0.4590  0.4258
   19CHL1   H25 1398   4.642   0.672   8.777 -1.9903 -1.8378 -0.8767
   19CHL1   C26 1399   4.524   0.836   8.693 -0.2563  0.2445  0.6914
   19CHL1  H26A 1400   4.515   0.905   8.607 -0.8887  0.1040  0.6378
   19CHL1  H26B 1401   4.437   0.766   8.692 -0.2124  0.1796 -1.2516
   19CHL1  H26C 1402   4.503   0.892   8.787  2.7583  0.8803  1.0890
   19CHL1   C27 1403   4.651   0.672   8.562  0.0151  0.3671  0.0608
   19CHL1  H27A 1404   4.574   0.593   8.550 -0.9236  1.0351  1.4293
   19CHL1  H27B 1405   4.634   0.737   8.473 -0.1801 -0.7953 -0.7719
   19CHL1  H27C 1406   4.746   0.619   8.540 -1.4660 -2.3800 -0.1716
   20CHL1    C3 1407   5.846   2.104  10.422 -0.1437 -0.0515  0.2961
   20CHL1    H3 1408   5.740   2.133  10.437  0.3016  1.6314  0.3911
   20CHL1    O3 1409   5.890   2.058  10.547  0.5655  0.0644  0.0546
   20CHL1   H3' 1410   5.983   2.037  10.544  1.0721  1.8334  1.5035
   20CHL1    C4 1411   5.873   1.996  10.316 -0.4620  0.4238  0.6078
   20CHL1   H4A 1412   5.972   1.947  10.307 -1.2113 -0.8136 -1.9823
   20CHL1   H4B 1413   5.804   1.910  10.333  0.3221 -0.4593 -0.5531
   20CHL1    C5 1414   5.855   2.045  10.172  0.2788 -0.5039  0.1467
   20CHL1    C6 1415   5.775   1.980  10.088 -0.5600 -0.9428 -0.4149
   20CHL1    H6 1416   5.722   1.888  10.118  0.4381 -1.6122 -0.6640
   20CHL1    C7 1417   5.747   2.026   9.940  0.5559  0.5342 -0.3317
   20CHL1   H7A 1418   5.733   1.938   9.874  0.9762  0.8946 -0.9032
   20CHL1   H7B 1419   5.644   2.067   9.950  0.3668  0.3344 -1.4105
   20CHL1    C8 1420   5.850   2.131   9.887  0.5325 -0.1907  0.6335
   20CHL1    H8 1421   5.946   2.075   9.879  1.2720  0.6218  3.1078
   20CHL1   C14 1422   5.805   2.188   9.756 -0.2255  0.4538 -0.2669
   20CHL1   H14 1423   5.705   2.232   9.774 -0.2881  0.0628  0.3506
   20CHL1   C15 1424   5.776   2.096   9.638 -0.3765  0.1544 -0.4211
   20CHL1  H15A 1425   5.859   2.022   9.634  0.3932  0.7672  2.2781
   20CHL1  H15B 1426   5.688   2.029   9.645  1.1003 -1.9590 -0.9653
   20CHL1   C16 1427   5.768   2.191   9.507  0.0137 -0.3857 -0.2879
   20CHL1  H16A 1428   5.847   2.162   9.434  0.3603 -1.7561  0.5819
   20CHL1  H16B 1429   5.666   2.199   9.464  0.1781  1.1814 -0.4355
   20CHL1   C17 1430   5.804   2.332   9.567 -0.2127 -0.1403 -0.3017
   20CHL1   H17 1431   5.703   2.368   9.595  0.1350  1.9053 -1.4467
   20CHL1   C13 1432   5.886   2.306   9.699  0.6151 -0.3759 -0.9213
   20CHL1   C18 1433   6.026   2.260   9.672 -0.1829 -0.1949 -0.5485
   20CHL1  H18A 1434   6.041   2.210   9.574  1.1482  1.2620 -1.1343
   20CHL1  H18B 1435   6.095   2.347   9.667 -0.4167 -0.0339 -1.0195
   20CHL1  H18C 1436   6.067   2.191   9.748 -1.0037 -1.0302 -0.8458
   20CHL1   C12 1437   5.885   2.425   9.801 -0.1226  0.2652 -0.2769
   20CHL1  H12A 1438   5.954   2.506   9.768  0.6541  0.0221  0.6855
   20CHL1  H12B 1439   5.782   2.464   9.811  0.3215  1.8114 -1.3352
   20CHL1   C11 1440   5.947   2.373   9.935  0.5851  0.9266 -0.0720
   20CHL1  H11A 1441   6.049   2.338   9.907  1.1966  2.9252 -0.5103
   20CHL1  H11B 1442   5.943   2.450  10.015  1.9184  0.5775  0.3531
   20CHL1    C9 1443   5.868   2.244   9.990  0.2636 -0.6472  0.0746
   20CHL1    H9 1444   5.767   2.283  10.015  1.4937  2.6900  0.3284
   20CHL1   C10 1445   5.919   2.184  10.131 -0.5596  1.2632 -0.3514
   20CHL1   C19 1446   6.072   2.172  10.113  0.6911  0.1969 -0.7928
   20CHL1  H19A 1447   6.095   2.117  10.019 -1.2991  0.0564 -1.2416
   20CHL1  H19B 1448   6.117   2.273  10.108 -2.4248  1.7526  0.0948
   20CHL1  H19C 1449   6.123   2.132  10.203  0.6391  2.5233  0.3260
   20CHL1    C1 1450   5.881   2.276  10.246  0.6636 -1.0088 -0.7352
   20CHL1   H1A 1451   5.928   2.374  10.221  2.3494 -1.8964 -1.2524
   20CHL1   H1B 1452   5.770   2.284  10.242  0.7705  0.5927 -1.6268
   20CHL1    C2 1453   5.926   2.232  10.386  0.0815  0.1927 -0.0527
   20CHL1   H2A 1454   5.915   2.314  10.460  1.5003  0.3133  0.0461
   20CHL1   H2B 1455   6.033   2.203  10.389  0.0392  0.0428  2.6618
   20CHL1   C20 1456   5.871   2.421   9.459 -0.0085  0.2163  0.1880
   20CHL1   H20 1457   5.970   2.377   9.435 -0.9926 -1.4978 -0.9166
   20CHL1   C21 1458   5.872   2.570   9.508  0.4555 -0.4015  0.2895
   20CHL1  H21A 1459   5.957   2.591   9.576  1.0698 -0.0303 -0.5847
   20CHL1  H21B 1460   5.775   2.597   9.556  0.8057  1.3047  0.1225
   20CHL1  H21C 1461   5.879   2.646   9.427  0.4941 -0.5501  0.1538
   20CHL1   C22 1462   5.793   2.416   9.322  0.5660 -0.1223  0.4140
   20CHL1  H22A 1463   5.768   2.311   9.300  1.2123  0.2368 -2.3665
   20CHL1  H22B 1464   5.697   2.472   9.327  1.7906  2.3957 -1.6782
   20CHL1   C23 1465   5.869   2.479   9.205 -0.2055 -0.1579 -0.3470
   20CHL1  H23A 1466   5.876   2.588   9.222 -0.9477 -0.1133 -0.2782
   20CHL1  H23B 1467   5.969   2.432   9.194 -1.1700 -2.2149 -0.9854
   20CHL1   C24 1468   5.791   2.451   9.081 -0.7512 -0.2269  0.1162
   20CHL1  H24A 1469   5.793   2.342   9.058 -0.1750 -0.2673  0.3554
   20CHL1  H24B 1470   5.689   2.494   9.076 -1.4783 -1.9649 -3.4335
   20CHL1   C25 1471   5.859   2.517   8.963  0.2392 -0.1087  0.5083
   20CHL1   H25 1472   5.965   2.485   8.964 -0.0006 -0.9857 -0.4695
   20CHL1   C26 1473   5.796   2.456   8.831 -0.0750  1.0585  0.0401
   20CHL1  H26A 1474   5.685   2.454   8.832 -0.1014 -1.4993 -1.0821
   20CHL1  H26B 1475   5.826   2.511   8.739 -3.3240  3.1412  0.0795
   20CHL1  H26C 1476   5.836   2.353   8.838  0.0709  1.1181  0.0948
   20CHL1   C27 1477   5.856   2.676   8.954 -0.0884 -0.6570  0.1483
   20CHL1  H27A 1478   5.874   2.706   8.848 -2.1238 -1.2710 -0.4104
   20CHL1  H27B 1479   5.758   2.712   8.992  0.2226 -0.6658  0.9869
   20CHL1  H27C 1480   5.940   2.724   9.009  0.0115  0.0570 -0.6036
   21CHL1    C3 1481   5.838   5.018  10.452  0.1902  0.1935  0.2005
   21CHL1    H3 1482   5.753   4.968  10.402  0.3032  0.8435 -0.6775
   21CHL1    O3 1483   5.806   5.030  10.587 -0.5020  0.1043 -0.3688
   21CHL1   H3' 1484   5.772   4.942  10.607 -2.8980  0.7736 -1.2228
   21CHL1    C4 1485   5.967   4.945  10.423 -0.2385 -0.9333  0.4538
   21CHL1   H4A 1486   6.050   5.004  10.466  0.0232 -0.9350 -0.0453
   21CHL1   H4B 1487   5.953   4.847  10.474  1.2328 -1.1073  0.5592
   21CHL1    C5 1488   5.994   4.924  10.276 -0.5301  0.2940  0.5199
   21CHL1    C6 1489   6.012   4.807  10.207  0.0043 -0.0703  0.0572
   21CHL1    H6 1490   6.019   4.714  10.264 -0.3505 -0.1986 -0.1095
   21CHL1    C7 1491   6.039   4.793  10.065  0.1078  0.2878 -0.3161
   21CHL1   H7A 1492   6.118   4.716  10.051 -0.8130 -0.6067 -0.7922
   21CHL1   H7B 1493   5.959   4.733  10.016  0.9615 -1.4818  0.3406
   21CHL1    C8 1494   6.054   4.918   9.985 -0.1769 -0.3268  0.9277
   21CHL1    H8 1495   6.156   4.954  10.007 -0.5855  2.5019 -1.2185
   21CHL1   C14 1496   6.017   4.895   9.835  0.0658  0.2346 -0.6148
   21CHL1   H14 1497   5.908   4.876   9.829 -0.3551  1.6022  1.4814
   21CHL1   C15 1498   6.081   4.775   9.760  0.1016 -0.4253  0.1538
   21CHL1  H15A 1499   6.191   4.770   9.774  0.1727 -3.4984 -0.7262
   21CHL1  H15B 1500   6.037   4.677   9.789 -1.1726 -0.1833 -0.9009
   21CHL1   C16 1501   6.047   4.806   9.613  0.2927  0.5853 -0.0904
   21CHL1  H16A 1502   6.136   4.794   9.549  1.2586  0.9659  1.1341
   21CHL1  H16B 1503   5.972   4.734   9.576  0.3307 -1.4209  3.2920
   21CHL1   C17 1504   5.993   4.947   9.614 -0.3370  0.8501  0.1389
   21CHL1   H17 1505   5.882   4.941   9.622 -0.3338  0.0213 -0.3120
   21CHL1   C13 1506   6.036   5.020   9.745  0.6785  0.4015  0.2103
   21CHL1   C18 1507   6.190   5.060   9.738  0.1419  0.0065 -0.4546
   21CHL1  H18A 1508   6.251   4.984   9.684 -2.1004 -1.5376 -0.9286
   21CHL1  H18B 1509   6.217   5.152   9.681  1.5798  0.8898  1.5079
   21CHL1  H18C 1510   6.227   5.077   9.842 -1.5832  1.0282  0.0337
   21CHL1   C12 1511   5.936   5.129   9.800  0.1046  0.2475  0.5239
   21CHL1  H12A 1512   5.950   5.223   9.743 -0.9525  0.0924 -0.0071
   21CHL1  H12B 1513   5.837   5.079   9.802  0.6785 -1.0157 -0.5942
   21CHL1   C11 1514   5.973   5.161   9.947 -0.7368 -0.7874 -0.0877
   21CHL1  H11A 1515   6.073   5.209   9.952 -1.1486  0.0633  0.2850
   21CHL1  H11B 1516   5.897   5.232   9.987  0.7038  0.5560  0.3715
   21CHL1    C9 1517   5.967   5.033  10.037 -0.0085 -0.2265 -0.5164
   21CHL1    H9 1518   5.865   4.991  10.024 -0.2489 -0.5343  1.8594
   21CHL1   C10 1519   5.985   5.058  10.192 -0.4007  0.6417  0.0208
   21CHL1   C19 1520   6.117   5.140  10.225  0.2870 -0.3961 -0.0151
   21CHL1  H19A 1521   6.125   5.170  10.331  0.4424  0.2738 -0.2133
   21CHL1  H19B 1522   6.204   5.080  10.190  0.1231  0.2297 -1.5643
   21CHL1  H19C 1523   6.123   5.234  10.166 -1.8348 -0.8755 -1.0876
   21CHL1    C1 1524   5.856   5.135  10.228 -0.2644 -1.0897 -0.3262
   21CHL1   H1A 1525   5.859   5.240  10.194  2.7979 -0.1580  2.4102
   21CHL1   H1B 1526   5.773   5.075  10.182  0.3910 -3.5230  1.4284
   21CHL1    C2 1527   5.832   5.157  10.381  0.2354  0.0699  0.1012
   21CHL1   H2A 1528   5.728   5.195  10.394  0.7240  1.5066  0.0486
   21CHL1   H2B 1529   5.911   5.219  10.428  0.3371 -0.7205  1.0075
   21CHL1   C20 1530   6.006   5.020   9.473 -0.2719 -0.2211 -0.0168
   21CHL1   H20 1531   6.113   5.007   9.447 -0.0682 -0.5853  0.9333
   21CHL1   C21 1532   5.969   5.172   9.487 -0.5258  0.2303  0.1003
   21CHL1  H21A 1533   5.962   5.240   9.399  1.5896  0.4382  0.0361
   21CHL1  H21B 1534   6.034   5.214   9.567 -1.9519  1.8483  0.4603
   21CHL1  H21C 1535   5.862   5.164   9.514 -0.7117  2.1655  0.0787
   21CHL1   C22 1536   5.929   4.950   9.358 -0.2784  0.1784  0.2323
   21CHL1  H22A 1537   5.967   4.846   9.352  2.8198  1.3049 -1.6937
   21CHL1  H22B 1538   5.823   4.934   9.388  0.0837  0.3629  1.6868
   21CHL1   C23 1539   5.949   5.013   9.220  0.1597 -0.1643 -0.0202
   21CHL1  H23A 1540   5.890   4.954   9.147 -1.2135  2.0421 -0.8169
   21CHL1  H23B 1541   5.897   5.112   9.218 -0.2523 -0.3902 -1.1089
   21CHL1   C24 1542   6.093   5.025   9.173 -0.8242  0.3379 -0.5691
   21CHL1  H24A 1543   6.135   5.108   9.233 -2.3600  1.5156 -1.0538
   21CHL1  H24B 1544   6.140   4.928   9.199 -0.4542  1.2086  2.3105
   21CHL1   C25 1545   6.104   5.046   9.020 -0.1178  0.0456  0.1410
   21CHL1   H25 1546   6.046   4.966   8.970 -3.5699  3.0960 -1.2023
   21CHL1   C26 1547   6.044   5.176   8.975  0.5312 -0.4903  0.3793
   21CHL1  H26A 1548   6.104   5.254   9.026 -0.8082 -0.1422  1.4705
   21CHL1  H26B 1549   6.056   5.200   8.867 -0.5659 -1.5103  0.0069
   21CHL1  H26C 1550   5.940   5.193   9.011  0.9617  1.2686  0.8622
   21CHL1   C27 1551   6.246   5.038   8.974  0.6483 -0.7997  0.0803
   21CHL1  H27A 1552   6.299   4.947   9.011  1.3844 -0.1026  0.8077
   21CHL1  H27B 1553   6.260   5.042   8.864  1.0163  1.6181  0.1535
   21CHL1  H27C 1554   6.302   5.122   9.021  0.9466 -0.8330 -0.2164
   22CHL1    C3 1555   0.582   5.221  10.195 -0.3460  1.0515  0.7999
   22CHL1    H3 1556   0.523   5.135  10.157  0.6973 -0.1502  1.7969
   22CHL1    O3 1557   0.562   5.214  10.334  0.2167  0.7728 -0.4460
   22CHL1   H3' 1558   0.645   5.235  10.377  0.1208 -0.9865  0.7310
   22CHL1    C4 1559   0.726   5.196  10.155  0.1501 -0.0422 -0.3273
   22CHL1   H4A 1560   0.799   5.272  10.190 -1.5783  1.6551 -0.2582
   22CHL1   H4B 1561   0.759   5.099  10.199  3.1887  1.3693  0.7676
   22CHL1    C5 1562   0.733   5.193  10.008  0.5960 -0.0468  0.8289
   22CHL1    C6 1563   0.784   5.085   9.942 -0.4331 -0.1847  0.1790
   22CHL1    H6 1564   0.832   4.997   9.988 -0.5646 -0.1958  0.2952
   22CHL1    C7 1565   0.796   5.075   9.794 -0.5126 -0.1549  0.2885
   22CHL1   H7A 1566   0.898   5.060   9.753 -1.2692  0.2066 -1.8212
   22CHL1   H7B 1567   0.725   4.997   9.758  1.5347 -1.4346 -1.1760
   22CHL1    C8 1568   0.747   5.208   9.717  0.0691 -0.2216 -0.8007
   22CHL1    H8 1569   0.826   5.285   9.709 -0.0771  0.1780  1.1675
   22CHL1   C14 1570   0.710   5.173   9.570 -0.3250 -0.3358  0.3285
   22CHL1   H14 1571   0.630   5.096   9.580  0.4155 -1.1069  0.3806
   22CHL1   C15 1572   0.809   5.094   9.482 -0.3327 -0.5091 -0.7898
   22CHL1  H15A 1573   0.909   5.143   9.480 -1.2380  1.4866  0.0171
   22CHL1  H15B 1574   0.822   4.994   9.530 -0.5645  0.6242  1.8022
   22CHL1   C16 1575   0.755   5.097   9.344  0.1340  0.2210 -0.0805
   22CHL1  H16A 1576   0.837   5.127   9.275  0.9676  0.4350  0.9738
   22CHL1  H16B 1577   0.711   5.004   9.302 -0.3572  0.6663 -0.5609
   22CHL1   C17 1578   0.637   5.202   9.343 -0.9177  0.3720  0.1539
   22CHL1   H17 1579   0.542   5.144   9.349 -1.0026  0.5611  0.7116
   22CHL1   C13 1580   0.655   5.283   9.471 -0.5272 -0.4285 -0.3198
   22CHL1   C18 1581   0.761   5.397   9.451 -0.1016 -0.4023  0.8276
   22CHL1  H18A 1582   0.706   5.473   9.392 -0.7022 -1.4740 -0.0438
   22CHL1  H18B 1583   0.801   5.441   9.545 -0.5776  1.3090  0.2695
   22CHL1  H18C 1584   0.848   5.360   9.391 -1.7696 -2.5750 -0.3986
   22CHL1   C12 1585   0.534   5.336   9.543 -0.4660 -0.3977 -0.2201
   22CHL1  H12A 1586   0.485   5.418   9.486  1.3559  0.7322 -0.2239
   22CHL1  H12B 1587   0.464   5.250   9.558 -2.0028  0.5355 -1.6612
   22CHL1   C11 1588   0.571   5.385   9.693  1.1680  0.0245 -0.2242
   22CHL1  H11A 1589   0.643   5.467   9.675 -1.1240  2.0899 -0.5611
   22CHL1  H11B 1590   0.472   5.417   9.733  0.1730 -1.8072 -1.0666
   22CHL1    C9 1591   0.628   5.276   9.786 -0.1038 -0.6045  0.1395
   22CHL1    H9 1592   0.547   5.201   9.798  0.1698 -0.6793  1.6802
   22CHL1   C10 1593   0.661   5.310   9.930  0.2202  0.6306  0.1386
   22CHL1   C19 1594   0.765   5.423   9.933 -0.1456  0.0394 -0.5464
   22CHL1  H19A 1595   0.795   5.445  10.038  0.0027  0.7554 -0.7354
   22CHL1  H19B 1596   0.859   5.408   9.876  0.7251  1.7123  0.3705
   22CHL1  H19C 1597   0.714   5.512   9.889 -0.1119 -0.0143 -0.6946
   22CHL1    C1 1598   0.522   5.353   9.993  0.6920  0.0826  0.0901
   22CHL1   H1A 1599   0.492   5.455   9.962 -1.0236 -0.2945  0.4082
   22CHL1   H1B 1600   0.446   5.281   9.957 -0.2059  1.4763 -0.9032
   22CHL1    C2 1601   0.528   5.359  10.147  0.2883  0.0967 -0.3152
   22CHL1   H2A 1602   0.423   5.380  10.176  1.0545  1.6712  1.5542
   22CHL1   H2B 1603   0.591   5.445  10.179 -0.3332  0.7066 -0.7199
   22CHL1   C20 1604   0.628   5.273   9.203  0.1594  0.3884  0.1390
   22CHL1   H20 1605   0.720   5.328   9.172  1.2509 -1.5501 -0.2653
   22CHL1   C21 1606   0.503   5.368   9.202 -0.7522 -0.3867 -0.4344
   22CHL1  H21A 1607   0.410   5.321   9.242 -1.2444  0.3690 -0.6606
   22CHL1  H21B 1608   0.491   5.425   9.108  0.4239 -0.7561 -0.8170
   22CHL1  H21C 1609   0.527   5.454   9.269  0.4952 -0.7279 -0.4191
   22CHL1   C22 1610   0.612   5.165   9.095 -0.0641 -0.5097  0.1357
   22CHL1  H22A 1611   0.692   5.087   9.094 -2.2114 -2.8458  0.5057
   22CHL1  H22B 1612   0.519   5.109   9.121  0.2339 -2.1861 -2.0478
   22CHL1   C23 1613   0.606   5.223   8.957  0.2949 -0.2453  0.0800
   22CHL1  H23A 1614   0.518   5.291   8.957 -0.9815 -1.8358  0.7499
   22CHL1  H23B 1615   0.689   5.294   8.935 -3.1731  3.6337 -1.9643
   22CHL1   C24 1616   0.599   5.115   8.846 -0.1044 -0.3842  0.2292
   22CHL1  H24A 1617   0.702   5.075   8.834  0.5830  1.9118 -2.8483
   22CHL1  H24B 1618   0.531   5.032   8.876  0.2686 -1.6451 -2.1772
   22CHL1   C25 1619   0.551   5.174   8.711  0.3025  0.3110 -0.3377
   22CHL1   H25 1620   0.527   5.096   8.635 -1.5758 -1.0131  1.4889
   22CHL1   C26 1621   0.422   5.243   8.734 -0.1320  0.1351 -0.5823
   22CHL1  H26A 1622   0.384   5.268   8.633  1.0994  0.2848 -1.0257
   22CHL1  H26B 1623   0.350   5.175   8.785 -0.1411  0.4859 -0.1146
   22CHL1  H26C 1624   0.439   5.336   8.793 -2.4826 -0.3405  0.9856
   22CHL1   C27 1625   0.657   5.260   8.648 -0.4786 -0.5336  0.0398
   22CHL1  H27A 1626   0.730   5.191   8.601 -1.3693 -1.2805 -0.2608
   22CHL1  H27B 1627   0.613   5.324   8.568  2.0686 -1.8811 -2.6376
   22CHL1  H27C 1628   0.711   5.332   8.714  0.7070 -0.6591 -0.7518
   23CHL1    C3 1629   2.034   0.855  10.308 -0.0695 -0.8671  0.1849
   23CHL1    H3 1630   2.053   0.963  10.291  0.1533 -0.9321  0.0184
   23CHL1    O3 1631   2.026   0.830  10.445  0.7029 -0.1614 -0.4849
   23CHL1   H3' 1632   1.945   0.782  10.462  1.1219 -0.3376  1.1419
   23CHL1    C4 1633   1.908   0.815  10.236 -0.2766  0.7979 -0.5432
   23CHL1   H4A 1634   1.887   0.710  10.263  0.6969  0.7755  0.1547
   23CHL1   H4B 1635   1.822   0.873  10.276 -0.6687 -0.3421  0.3222
   23CHL1    C5 1636   1.920   0.839  10.088  0.6604  0.3767  0.2732
   23CHL1    C6 1637   1.833   0.927  10.032  0.4313 -0.1430 -0.0835
   23CHL1    H6 1638   1.749   0.971  10.088  2.0664  0.7321  1.8186
   23CHL1    C7 1639   1.831   0.950   9.882 -0.1611 -0.2058 -0.5125
   23CHL1   H7A 1640   1.723   0.951   9.857 -1.6213  1.2800  4.6132
   23CHL1   H7B 1641   1.871   1.053   9.876 -2.9572  1.0377  0.6449
   23CHL1    C8 1642   1.925   0.860   9.806  1.0326  0.4501 -0.1673
   23CHL1    H8 1643   1.878   0.761   9.791 -0.7809  0.8763  2.1068
   23CHL1   C14 1644   1.960   0.924   9.670 -0.0552 -0.4830  0.5506
   23CHL1   H14 1645   2.021   1.015   9.691 -0.0917 -0.6342  1.3494
   23CHL1   C15 1646   1.848   0.985   9.582 -0.6716  0.4540  0.0069
   23CHL1  H15A 1647   1.761   0.917   9.598 -1.1966  0.8586 -1.0289
   23CHL1  H15B 1648   1.823   1.089   9.614 -0.1119  0.3094  0.9290
   23CHL1   C16 1649   1.914   0.988   9.441 -1.0781  0.6006  0.0959
   23CHL1  H16A 1650   1.850   0.924   9.377  1.3184 -1.7514 -0.1208
   23CHL1  H16B 1651   1.924   1.092   9.402  0.3688  0.3325 -0.3381
   23CHL1   C17 1652   2.054   0.920   9.445 -0.4101 -0.1920  0.3099
   23CHL1   H17 1653   2.130   0.997   9.469  1.6955 -2.6434  2.0031
   23CHL1   C13 1654   2.045   0.835   9.577 -0.7122  0.1767  0.2016
   23CHL1   C18 1655   1.975   0.702   9.543  0.1340  0.1231 -0.4942
   23CHL1  H18A 1656   2.034   0.641   9.472  1.4810 -0.6706  1.2421
   23CHL1  H18B 1657   1.955   0.636   9.629 -2.7099 -0.9328 -1.8240
   23CHL1  H18C 1658   1.872   0.723   9.505  0.0388  1.3584  0.3710
   23CHL1   C12 1659   2.176   0.806   9.645  0.7004 -0.4483  0.3877
   23CHL1  H12A 1660   2.245   0.750   9.578  2.2500 -0.3140  1.8258
   23CHL1  H12B 1661   2.238   0.898   9.659  0.2614 -0.0626 -0.1375
   23CHL1   C11 1662   2.149   0.745   9.786  0.0257  0.1159  0.4951
   23CHL1  H11A 1663   2.115   0.641   9.770  0.9644 -0.4205  1.8745
   23CHL1  H11B 1664   2.248   0.719   9.830  0.0011 -0.0140  0.4737
   23CHL1    C9 1665   2.060   0.830   9.876  0.1898 -0.3892 -0.1983
   23CHL1    H9 1666   2.111   0.927   9.890  0.3420 -0.2999 -1.2704
   23CHL1   C10 1667   2.041   0.773  10.017 -0.0497  0.4811  0.3892
   23CHL1   C19 1668   2.020   0.610  10.017 -0.6425 -0.3481 -0.0637
   23CHL1  H19A 1669   1.929   0.583   9.960  0.0652  0.2125 -1.5280
   23CHL1  H19B 1670   2.101   0.555   9.964 -0.1207  1.9068 -1.7821
   23CHL1  H19C 1671   2.000   0.575  10.120 -0.9428 -2.0422 -0.6762
   23CHL1    C1 1672   2.167   0.800  10.103 -0.6607  0.4635 -0.0964
   23CHL1   H1A 1673   2.262   0.757  10.064 -0.2323 -2.0587  3.2189
   23CHL1   H1B 1674   2.181   0.909  10.093 -1.0634  0.5735  0.4608
   23CHL1    C2 1675   2.156   0.779  10.255  0.3844 -0.0471 -0.7009
   23CHL1   H2A 1676   2.245   0.822  10.305  0.7827 -1.0449 -0.5399
   23CHL1   H2B 1677   2.155   0.671  10.278  1.2724 -0.0055 -0.4619
   23CHL1   C20 1678   2.092   0.865   9.308 -0.3254 -0.3092 -0.4277
   23CHL1   H20 1679   2.012   0.799   9.270 -0.0044 -1.7868  1.3208
   23CHL1   C21 1680   2.223   0.783   9.317 -0.2422  1.0021 -0.5508
   23CHL1  H21A 1681   2.307   0.830   9.372 -0.9103  0.6323  0.8379
   23CHL1  H21B 1682   2.262   0.760   9.216  0.4055  0.0864 -0.1129
   23CHL1  H21C 1683   2.205   0.680   9.355  2.6779 -0.3566 -2.4865
   23CHL1   C22 1684   2.112   0.979   9.197 -0.3430  0.7276 -0.0792
   23CHL1  H22A 1685   2.031   1.055   9.206 -0.4597  0.3584  3.6444
   23CHL1  H22B 1686   2.194   1.039   9.242  0.4401  0.4436 -1.1016
   23CHL1   C23 1687   2.158   0.933   9.052  0.4014 -0.0604  0.0939
   23CHL1  H23A 1688   2.248   0.869   9.056 -0.2272 -0.9237  2.9831
   23CHL1  H23B 1689   2.088   0.857   9.010  1.2934 -0.3746 -0.8852
   23CHL1   C24 1690   2.162   1.056   8.953  0.5142  0.2917 -0.5548
   23CHL1  H24A 1691   2.066   1.111   8.969  1.0146  0.2753  3.7151
   23CHL1  H24B 1692   2.245   1.121   8.989  1.5603 -1.8938  1.2609
   23CHL1   C25 1693   2.191   1.021   8.806 -0.8198 -0.1562  0.2182
   23CHL1   H25 1694   2.272   0.945   8.810  0.6081  1.3392  1.1428
   23CHL1   C26 1695   2.067   0.971   8.739  0.4004  0.8971  0.5133
   23CHL1  H26A 1696   2.000   1.051   8.703  0.4689  0.3894 -0.7781
   23CHL1  H26B 1697   2.091   0.904   8.653 -2.5076 -1.3575  1.2796
   23CHL1  H26C 1698   2.009   0.899   8.801 -3.1611  4.1539  1.3234
   23CHL1   C27 1699   2.247   1.135   8.718 -0.1853  0.2930  0.1726
   23CHL1  H27A 1700   2.188   1.229   8.713  0.4242  0.6463 -3.3428
   23CHL1  H27B 1701   2.354   1.153   8.745  0.0517 -0.9000  0.0851
   23CHL1  H27C 1702   2.253   1.100   8.612  1.8488 -0.7278  0.5667
   24CHL1    C3 1703   3.019   1.475  10.198 -0.8935  0.4198  0.1876
   24CHL1    H3 1704   2.983   1.577  10.174  1.8434  1.3578 -0.3192
   24CHL1    O3 1705   3.005   1.457  10.338 -0.9432 -0.2921  0.2144
   24CHL1   H3' 1706   3.092   1.485  10.367 -0.5327 -1.3212  0.0073
   24CHL1    C4 1707   2.944   1.361  10.125 -0.5857  0.7739  0.2207
   24CHL1   H4A 1708   2.979   1.263  10.166 -0.6485  0.4880 -0.3841
   24CHL1   H4B 1709   2.836   1.367  10.147 -0.7275 -3.2679  1.5229
   24CHL1    C5 1710   2.966   1.363   9.973  0.2122 -0.7926 -0.0401
   24CHL1    C6 1711   2.860   1.373   9.889  0.7335  0.2856 -0.8242
   24CHL1    H6 1712   2.760   1.368   9.934  1.3168  0.0721  0.4778
   24CHL1    C7 1713   2.861   1.363   9.737 -0.8304  0.2019  0.0764
   24CHL1   H7A 1714   2.804   1.284   9.685  0.2757 -0.7381  0.2488
   24CHL1   H7B 1715   2.832   1.459   9.688 -0.1853  0.2039 -0.3259
   24CHL1    C8 1716   3.008   1.331   9.692  0.2655  0.0870 -0.3300
   24CHL1    H8 1717   3.023   1.222   9.687  1.0372  0.0412  1.7134
   24CHL1   C14 1718   3.015   1.393   9.548  0.7335 -0.2633  0.5592
   24CHL1   H14 1719   3.010   1.501   9.573  1.3380 -0.3109  0.9122
   24CHL1   C15 1720   2.898   1.351   9.447 -0.2106  0.9621  0.3381
   24CHL1  H15A 1721   2.870   1.244   9.456  0.8980  0.5204 -1.2003
   24CHL1  H15B 1722   2.809   1.413   9.474  1.3082  2.3827  2.3813
   24CHL1   C16 1723   2.963   1.382   9.311 -0.7885 -0.1817 -0.0464
   24CHL1  H16A 1724   2.953   1.298   9.239  1.9926  0.6525 -1.5387
   24CHL1  H16B 1725   2.914   1.473   9.270  2.9892  1.8269 -0.5830
   24CHL1   C17 1726   3.111   1.423   9.341  0.1657  0.0045 -0.5712
   24CHL1   H17 1727   3.115   1.531   9.366  2.6243 -0.5696  2.0526
   24CHL1   C13 1728   3.147   1.364   9.476  0.9945 -0.4060 -0.5239
   24CHL1   C18 1729   3.169   1.211   9.462 -0.1678  0.3256 -0.0925
   24CHL1  H18A 1730   3.278   1.191   9.452 -0.4297 -0.4008 -2.0384
   24CHL1  H18B 1731   3.160   1.154   9.557  0.2580  0.7348  0.1955
   24CHL1  H18C 1732   3.118   1.168   9.372 -0.3985 -1.2860  0.7709
   24CHL1   C12 1733   3.252   1.440   9.552 -0.5991  0.4036 -0.4184
   24CHL1  H12A 1734   3.354   1.422   9.510 -0.4408 -0.9389  0.4771
   24CHL1  H12B 1735   3.234   1.549   9.549  0.2748  0.5506 -0.6573
   24CHL1   C11 1736   3.259   1.390   9.701  0.8590  0.2199 -0.4324
   24CHL1  H11A 1737   3.296   1.285   9.700 -0.2327 -0.1891 -0.1555
   24CHL1  H11B 1738   3.323   1.465   9.752  0.6476  0.8754 -1.1239
   24CHL1    C9 1739   3.117   1.401   9.775  0.5318  0.9759  0.6812
   24CHL1    H9 1740   3.089   1.509   9.778 -0.5191  0.7035  0.9731
   24CHL1   C10 1741   3.114   1.367   9.925 -0.0770  0.4177 -1.1841
   24CHL1   C19 1742   3.185   1.226   9.945 -0.4579  0.0295  0.1247
   24CHL1  H19A 1743   3.294   1.221   9.928 -0.5748 -0.6948 -0.4447
   24CHL1  H19B 1744   3.190   1.196  10.052  0.0810  0.3662  0.1988
   24CHL1  H19C 1745   3.147   1.141   9.885  1.7610 -1.8854  1.2791
   24CHL1    C1 1746   3.186   1.484  10.005  0.3366 -0.3188 -0.2689
   24CHL1   H1A 1747   3.292   1.479   9.972 -0.5726 -2.4974 -3.2493
   24CHL1   H1B 1748   3.143   1.577   9.962 -0.1600  0.1059  1.0704
   24CHL1    C2 1749   3.168   1.477  10.159  0.2220 -0.1334  0.7343
   24CHL1   H2A 1750   3.209   1.570  10.203  0.0787 -0.1243  0.8496
   24CHL1   H2B 1751   3.218   1.384  10.196  0.1016  0.2148  1.7976
   24CHL1   C20 1752   3.209   1.398   9.220  0.5991 -0.2426  0.9730
   24CHL1   H20 1753   3.206   1.288   9.207 -1.9737 -0.6684  4.0637
   24CHL1   C21 1754   3.362   1.419   9.246  1.0680  0.2955 -0.4735
   24CHL1  H21A 1755   3.421   1.386   9.157  2.4186  1.7337 -0.1379
   24CHL1  H21B 1756   3.398   1.353   9.327  1.0931  2.2625  1.1868
   24CHL1  H21C 1757   3.381   1.526   9.268 -2.1115  0.9549 -0.5175
   24CHL1   C22 1758   3.165   1.466   9.090  0.2151  1.1141 -0.4982
   24CHL1  H22A 1759   3.057   1.445   9.078  0.2990 -0.3716  0.9839
   24CHL1  H22B 1760   3.166   1.571   9.125 -1.0218  0.2573  2.3537
   24CHL1   C23 1761   3.243   1.430   8.960 -0.4160 -0.0124  0.0689
   24CHL1  H23A 1762   3.332   1.497   8.961 -0.3127 -0.1276  1.5390
   24CHL1  H23B 1763   3.283   1.326   8.963 -1.4929 -0.5193 -1.5957
   24CHL1   C24 1764   3.155   1.438   8.837  0.4959 -0.2645  0.3485
   24CHL1  H24A 1765   3.051   1.411   8.864 -0.0958  4.3811  4.0005
   24CHL1  H24B 1766   3.147   1.547   8.816  2.0222  0.0251  1.1129
   24CHL1   C25 1767   3.198   1.368   8.707  0.5040  0.5581  0.1664
   24CHL1   H25 1768   3.202   1.260   8.733 -1.8295  0.0638 -1.3182
   24CHL1   C26 1769   3.100   1.381   8.594  0.6564 -0.0362 -0.3293
   24CHL1  H26A 1770   3.009   1.318   8.607  0.4591  0.7601  2.9373
   24CHL1  H26B 1771   3.063   1.485   8.584  0.5822  0.0063  0.3318
   24CHL1  H26C 1772   3.137   1.340   8.498  1.7531  0.0642  0.0364
   24CHL1   C27 1773   3.340   1.410   8.663  0.0465  0.1852  0.3561
   24CHL1  H27A 1774   3.360   1.354   8.568 -1.5632 -2.5453  1.4945
   24CHL1  H27B 1775   3.336   1.520   8.647 -1.3822  0.0173 -0.7130
   24CHL1  H27C 1776   3.416   1.385   8.739 -1.4071 -1.4646  1.3706
   25CHL1    C3 1777   6.568   2.681  10.390  0.2889 -0.1357 -0.2572
   25CHL1    H3 1778   6.589   2.782  10.430 -0.6941 -0.4470  1.1477
   25CHL1    O3 1779   6.469   2.618  10.471  0.3439  0.0897 -0.1110
   25CHL1   H3' 1780   6.468   2.669  10.552  2.2951  0.2788 -0.1611
   25CHL1    C4 1781   6.511   2.706  10.256 -0.3786  0.1404 -0.1138
   25CHL1   H4A 1782   6.465   2.608  10.231 -0.3779  0.3269 -0.8520
   25CHL1   H4B 1783   6.422   2.773  10.262  0.3850  1.1167  0.6950
   25CHL1    C5 1784   6.606   2.754  10.152 -0.2623 -0.6845  0.5614
   25CHL1    C6 1785   6.576   2.867  10.077 -0.0406 -0.1007 -0.4648
   25CHL1    H6 1786   6.477   2.916  10.086  0.0956 -0.1685  1.8525
   25CHL1    C7 1787   6.671   2.933   9.985 -0.8866 -0.4789 -0.2033
   25CHL1   H7A 1788   6.619   2.963   9.891 -0.8201  3.0323  0.7311
   25CHL1   H7B 1789   6.725   3.015  10.037 -0.4384 -1.3789  0.7673
   25CHL1    C8 1790   6.783   2.839   9.934 -0.5965 -0.0660  0.7740
   25CHL1    H8 1791   6.743   2.777   9.852  0.5017  1.4143 -0.9743
   25CHL1   C14 1792   6.900   2.916   9.874  0.4040 -0.3595 -0.5874
   25CHL1   H14 1793   6.947   2.968   9.960 -0.7340 -0.0894 -0.1018
   25CHL1   C15 1794   6.874   3.019   9.763 -0.1733 -0.6294  0.2031
   25CHL1  H15A 1795   6.782   2.993   9.705 -0.8093  2.2038 -0.2309
   25CHL1  H15B 1796   6.856   3.121   9.804  1.1551 -0.0967 -0.4656
   25CHL1   C16 1797   7.004   3.026   9.683 -0.2813  0.4606  0.3270
   25CHL1  H16A 1798   6.975   2.999   9.579 -0.0059 -1.5597  0.7351
   25CHL1  H16B 1799   7.038   3.132   9.685 -0.6340  0.5684  0.8729
   25CHL1   C17 1800   7.107   2.932   9.749  0.1117 -0.1210 -0.2603
   25CHL1   H17 1801   7.145   2.994   9.833  0.2528  0.3612 -0.6781
   25CHL1   C13 1802   7.011   2.825   9.816 -0.0748 -0.6042  0.0195
   25CHL1   C18 1803   6.952   2.724   9.708  0.6906 -0.5587 -0.4484
   25CHL1  H18A 1804   6.900   2.785   9.632 -1.8471 -0.4240  1.2899
   25CHL1  H18B 1805   7.035   2.670   9.657  0.3459 -0.2693 -1.3268
   25CHL1  H18C 1806   6.882   2.647   9.747  3.3767 -2.7004  0.5226
   25CHL1   C12 1807   7.069   2.739   9.927 -0.7716 -0.4061 -0.6249
   25CHL1  H12A 1808   7.132   2.658   9.886  0.5145 -2.2448  4.2387
   25CHL1  H12B 1809   7.136   2.794   9.997  1.5087 -2.0486 -1.4347
   25CHL1   C11 1810   6.962   2.674  10.009 -0.0737  0.4747  0.6871
   25CHL1  H11A 1811   6.923   2.583   9.958 -0.5925  1.5910 -1.0007
   25CHL1  H11B 1812   7.004   2.632  10.102  0.0777 -0.8573  0.0355
   25CHL1    C9 1813   6.842   2.756  10.053  0.4049 -1.1886  0.8292
   25CHL1    H9 1814   6.888   2.836  10.115  1.7710 -0.7422 -0.6884
   25CHL1   C10 1815   6.743   2.686  10.148  0.1555  0.5634 -0.0783
   25CHL1   C19 1816   6.724   2.542  10.093  0.1836 -0.3364  0.4776
   25CHL1  H19A 1817   6.810   2.475  10.115  0.4442  0.4163  1.9151
   25CHL1  H19B 1818   6.632   2.500  10.139 -0.4941  0.7901  0.1968
   25CHL1  H19C 1819   6.688   2.551   9.988 -1.0127 -0.1790  0.8934
   25CHL1    C1 1820   6.808   2.658  10.285  0.2301  0.5457  0.5407
   25CHL1   H1A 1821   6.894   2.589  10.273  1.7149  2.3218  0.4359
   25CHL1   H1B 1822   6.851   2.755  10.319 -0.4746  1.4858 -1.1401
   25CHL1    C2 1823   6.706   2.602  10.390 -0.3114 -0.4659 -0.0660
   25CHL1   H2A 1824   6.756   2.609  10.489 -1.0253 -2.2300  0.4635
   25CHL1   H2B 1825   6.685   2.499  10.355 -4.3881  1.1575 -3.3123
   25CHL1   C20 1826   7.227   2.874   9.679  0.6196 -0.5054  0.3757
   25CHL1   H20 1827   7.210   2.765   9.668 -1.6503 -0.3209  1.5749
   25CHL1   C21 1828   7.350   2.894   9.775  0.3182 -0.0991 -0.3735
   25CHL1  H21A 1829   7.442   2.836   9.753  0.8133 -0.2756  1.9006
   25CHL1  H21B 1830   7.330   2.867   9.881 -0.7060 -1.9581 -0.9827
   25CHL1  H21C 1831   7.380   3.001   9.773 -1.2794  0.3566 -1.6728
   25CHL1   C22 1832   7.245   2.934   9.537  0.3188  0.0421  0.7438
   25CHL1  H22A 1833   7.215   3.040   9.540 -0.2199 -0.0825  0.0612
   25CHL1  H22B 1834   7.352   2.932   9.509  0.7229  1.0362  2.1593
   25CHL1   C23 1835   7.176   2.852   9.427 -0.1840 -0.0629 -0.3394
   25CHL1  H23A 1836   7.233   2.761   9.398 -1.4118 -0.5678 -1.2522
   25CHL1  H23B 1837   7.079   2.813   9.463 -0.3193 -0.9284 -1.5669
   25CHL1   C24 1838   7.170   2.936   9.309  0.0710 -0.7574 -0.5853
   25CHL1  H24A 1839   7.094   3.015   9.326  0.8928  0.0642 -0.6672
   25CHL1  H24B 1840   7.270   2.981   9.293  2.1342 -4.7441 -0.1772
   25CHL1   C25 1841   7.126   2.863   9.180 -0.7721 -0.2897  0.0177
   25CHL1   H25 1842   7.175   2.764   9.169 -0.0321  0.1015 -0.2271
   25CHL1   C26 1843   6.980   2.833   9.185  0.2727 -0.0226  0.4811
   25CHL1  H26A 1844   6.942   2.819   9.081  1.3491  2.2744 -0.2839
   25CHL1  H26B 1845   6.945   2.762   9.263  0.0084  0.5693  0.9010
   25CHL1  H26C 1846   6.920   2.921   9.215  1.6430  1.0318  0.2227
   25CHL1   C27 1847   7.158   2.957   9.060 -1.1461 -0.8349 -0.5495
   25CHL1  H27A 1848   7.110   2.921   8.966 -1.4256  0.2447 -0.8375
   25CHL1  H27B 1849   7.098   3.049   9.081  0.0365 -0.4137  1.1801
   25CHL1  H27C 1850   7.267   2.969   9.047 -1.2355  2.3987  0.8106
   26CHL1    C3 1851   1.377   6.431  10.223 -0.7140  0.1603  0.6784
   26CHL1    H3 1852   1.306   6.516  10.238  1.4841  2.3349 -0.5577
   26CHL1    O3 1853   1.418   6.386  10.354  0.5230  0.4024  0.6576
   26CHL1   H3' 1854   1.433   6.470  10.398 -0.5010  1.0300 -0.1068
   26CHL1    C4 1855   1.309   6.323  10.138 -0.2719  0.2302 -0.1135
   26CHL1   H4A 1856   1.368   6.231  10.116  0.3381 -0.1657  2.7457
   26CHL1   H4B 1857   1.221   6.285  10.194 -0.2305  0.8308  0.3759
   26CHL1    C5 1858   1.273   6.374  10.000  0.8096  0.2035  0.2905
   26CHL1    C6 1859   1.149   6.368   9.954 -0.3760  0.3370 -0.4971
   26CHL1    H6 1860   1.063   6.337  10.015 -0.6461  0.8811 -0.5949
   26CHL1    C7 1861   1.116   6.426   9.821 -0.6010  0.3706 -0.4748
   26CHL1   H7A 1862   1.059   6.353   9.760 -0.4560  0.0864 -0.2707
   26CHL1   H7B 1863   1.051   6.516   9.833  0.1408  0.7743  0.6457
   26CHL1    C8 1864   1.236   6.455   9.731 -0.4070 -0.0404  0.1277
   26CHL1    H8 1865   1.270   6.357   9.692 -0.3392  0.0214  0.0297
   26CHL1   C14 1866   1.195   6.528   9.607 -0.1617  0.5446  0.2646
   26CHL1   H14 1867   1.137   6.617   9.639 -0.1073  1.9557 -3.1576
   26CHL1   C15 1868   1.093   6.454   9.519 -0.1564 -0.1737  0.4959
   26CHL1  H15A 1869   1.124   6.348   9.507 -1.3368 -0.2947 -2.1887
   26CHL1  H15B 1870   0.994   6.461   9.569 -0.8103 -0.1318 -0.7696
   26CHL1   C16 1871   1.095   6.525   9.385  0.1033 -0.1841  0.8238
   26CHL1  H16A 1872   1.111   6.447   9.308 -0.5066  0.2348  0.2559
   26CHL1  H16B 1873   0.996   6.570   9.363  0.6881 -0.0133 -1.8226
   26CHL1   C17 1874   1.214   6.631   9.398  0.3138 -0.5947  0.4935
   26CHL1   H17 1875   1.156   6.718   9.436 -1.1004 -0.8822 -0.8928
   26CHL1   C13 1876   1.306   6.578   9.510  0.5536  0.4342 -0.2235
   26CHL1   C18 1877   1.388   6.459   9.451 -0.2900 -0.1019 -0.4991
   26CHL1  H18A 1878   1.333   6.410   9.368 -1.0267  0.6401 -0.4663
   26CHL1  H18B 1879   1.493   6.488   9.431 -0.2410  1.0993  1.2743
   26CHL1  H18C 1880   1.401   6.384   9.531 -0.9133  2.8531  2.5950
   26CHL1   C12 1881   1.402   6.666   9.589  0.1365  0.1682 -0.2184
   26CHL1  H12A 1882   1.494   6.700   9.537  0.3420  2.0469  1.2618
   26CHL1  H12B 1883   1.345   6.756   9.621 -0.0452 -0.6761  2.0249
   26CHL1   C11 1884   1.452   6.592   9.714  0.0989 -0.4007 -0.4004
   26CHL1  H11A 1885   1.520   6.510   9.685 -0.4746 -1.9011  2.1639
   26CHL1  H11B 1886   1.519   6.652   9.779  1.5066 -1.3706 -0.9115
   26CHL1    C9 1887   1.342   6.530   9.805  0.0718  0.1673 -0.4076
   26CHL1    H9 1888   1.292   6.621   9.846 -1.5395 -1.2726  0.9726
   26CHL1   C10 1889   1.391   6.439   9.920 -0.2351 -0.2862 -0.6028
   26CHL1   C19 1890   1.485   6.332   9.868  0.1366  0.2649 -0.1333
   26CHL1  H19A 1891   1.584   6.377   9.842  0.1614 -1.0376 -2.6527
   26CHL1  H19B 1892   1.515   6.271   9.955 -1.4154 -1.7306 -0.9301
   26CHL1  H19C 1893   1.436   6.261   9.798 -3.0023  0.0601  2.1012
   26CHL1    C1 1894   1.472   6.540  10.016 -0.0426 -0.2807 -0.2589
   26CHL1   H1A 1895   1.569   6.559   9.965 -0.8989 -1.2094 -2.3336
   26CHL1   H1B 1896   1.428   6.641  10.000  0.2687 -0.1638 -0.3970
   26CHL1    C2 1897   1.500   6.492  10.158  0.2013  0.0138  0.1583
   26CHL1   H2A 1898   1.539   6.579  10.215  0.8788  0.3358 -0.7799
   26CHL1   H2B 1899   1.576   6.411  10.154  0.2955  0.0929 -3.5069
   26CHL1   C20 1900   1.275   6.671   9.261  0.5977  1.4650  0.4757
   26CHL1   H20 1901   1.336   6.582   9.233 -1.4166  0.4735 -1.0267
   26CHL1   C21 1902   1.364   6.791   9.272  0.8585  0.5532 -0.0147
   26CHL1  H21A 1903   1.411   6.831   9.179 -0.5949 -0.9712 -1.4602
   26CHL1  H21B 1904   1.445   6.755   9.340  0.1480 -0.8314  0.1253
   26CHL1  H21C 1905   1.334   6.882   9.328  1.4019  2.9663 -3.3251
   26CHL1   C22 1906   1.169   6.685   9.149 -0.0710 -0.0466  0.0975
   26CHL1  H22A 1907   1.074   6.631   9.167 -0.4529  1.0150  1.4630
   26CHL1  H22B 1908   1.146   6.793   9.141 -1.5808 -0.4573 -1.4496
   26CHL1   C23 1909   1.226   6.653   9.003  0.0886  0.1609  0.4850
   26CHL1  H23A 1910   1.313   6.720   8.984 -0.2326  0.8599  1.4351
   26CHL1  H23B 1911   1.266   6.550   9.003 -0.6338 -0.1557 -1.4670
   26CHL1   C24 1912   1.109   6.671   8.911  0.0287 -0.6860  0.9225
   26CHL1  H24A 1913   1.043   6.581   8.912  0.3026 -0.9018  0.2536
   26CHL1  H24B 1914   1.056   6.765   8.939 -0.4718 -0.9641  0.9313
   26CHL1   C25 1915   1.153   6.679   8.758 -0.0807 -0.8970  0.3550
   26CHL1   H25 1916   1.198   6.781   8.755  0.8114 -1.2933 -0.0678
   26CHL1   C26 1917   1.248   6.569   8.725  0.3889 -0.6469 -0.6081
   26CHL1  H26A 1918   1.250   6.540   8.618 -3.4900 -0.6951 -0.7863
   26CHL1  H26B 1919   1.351   6.580   8.766  0.4993 -0.0388 -1.0399
   26CHL1  H26C 1920   1.197   6.484   8.776  0.5542  0.8982  2.3718
   26CHL1   C27 1921   1.038   6.682   8.662 -0.0292 -0.1700 -0.2441
   26CHL1  H27A 1922   0.963   6.760   8.685 -1.1161 -0.0793 -3.5177
   26CHL1  H27B 1923   1.066   6.701   8.556 -0.9148  2.1511 -0.1368
   26CHL1  H27C 1924   0.990   6.586   8.691  1.8700 -1.3346 -0.7896
   27CHL1    C3 1925   5.576   3.413  10.408  0.8990  0.2513  1.1773
   27CHL1    H3 1926   5.677   3.369  10.420 -0.1033 -2.5898 -0.0620
   27CHL1    O3 1927   5.519   3.441  10.537 -0.0114  0.2575 -0.0473
   27CHL1   H3' 1928   5.583   3.500  10.577 -0.8370  0.9435  0.2921
   27CHL1    C4 1929   5.578   3.545  10.333 -0.4364  0.0918  0.1931
   27CHL1   H4A 1930   5.478   3.591  10.344 -1.2187 -1.7343  1.1126
   27CHL1   H4B 1931   5.640   3.615  10.392  1.5730 -0.5484 -1.0572
   27CHL1    C5 1932   5.619   3.528  10.188  1.0051  0.5654 -0.6443
   27CHL1    C6 1933   5.726   3.592  10.136  0.6470 -0.4868 -0.3285
   27CHL1    H6 1934   5.775   3.671  10.195 -1.0066  0.4692 -0.1615
   27CHL1    C7 1935   5.773   3.580   9.997 -0.3678  0.4942  0.1321
   27CHL1   H7A 1936   5.804   3.675   9.950 -0.9348 -0.3124 -1.9717
   27CHL1   H7B 1937   5.877   3.541   9.990 -0.9815 -1.2865  0.4170
   27CHL1    C8 1938   5.663   3.516   9.904 -0.4493  0.3612 -0.4649
   27CHL1    H8 1939   5.580   3.585   9.877 -0.0044  0.2429 -2.3184
   27CHL1   C14 1940   5.725   3.488   9.777 -0.1471  0.8948  0.3182
   27CHL1   H14 1941   5.805   3.411   9.790  0.7246  1.5024 -1.0791
   27CHL1   C15 1942   5.793   3.605   9.709  1.1940  0.6319 -0.0256
   27CHL1  H15A 1943   5.743   3.703   9.720  1.1197  0.5293  0.5518
   27CHL1  H15B 1944   5.896   3.613   9.749  0.3586  2.2990  1.9634
   27CHL1   C16 1945   5.799   3.554   9.565  0.2565 -0.4343 -0.2593
   27CHL1  H16A 1946   5.745   3.635   9.511 -0.4267  0.4404  1.6479
   27CHL1  H16B 1947   5.900   3.548   9.519 -1.1348 -0.6885 -3.5156
   27CHL1   C17 1948   5.708   3.426   9.551 -0.7136  0.0177  0.9504
   27CHL1   H17 1949   5.790   3.351   9.561  2.3066  3.0285  0.6139
   27CHL1   C13 1950   5.622   3.422   9.682  0.5956  0.1473  0.0282
   27CHL1   C18 1951   5.500   3.525   9.658  0.0997  0.4401 -1.0642
   27CHL1  H18A 1952   5.443   3.495   9.567 -2.3151  0.7767  0.2323
   27CHL1  H18B 1953   5.431   3.523   9.745  2.5516 -1.1451  1.0069
   27CHL1  H18C 1954   5.543   3.627   9.660 -1.4172  1.0899 -0.3785
   27CHL1   C12 1955   5.591   3.287   9.740 -0.0872  0.1727 -0.4102
   27CHL1  H12A 1956   5.519   3.235   9.674  1.9359 -2.4249 -0.7341
   27CHL1  H12B 1957   5.686   3.231   9.753 -1.4142 -2.1631 -0.2082
   27CHL1   C11 1958   5.540   3.292   9.882 -0.3773 -0.1503 -0.2345
   27CHL1  H11A 1959   5.436   3.326   9.863 -0.5459 -0.8739 -0.6838
   27CHL1  H11B 1960   5.537   3.187   9.918 -0.1428 -1.0624 -2.6665
   27CHL1    C9 1961   5.613   3.388   9.976 -0.1189 -0.6567 -0.6741
   27CHL1    H9 1962   5.705   3.333  10.007 -0.9085 -1.2983  0.6188
   27CHL1   C10 1963   5.539   3.420  10.107  0.3838 -1.3118 -0.5551
   27CHL1   C19 1964   5.395   3.477  10.083 -0.7987  0.1384  0.3128
   27CHL1  H19A 1965   5.339   3.505  10.174 -1.6803 -1.3493  0.2712
   27CHL1  H19B 1966   5.392   3.563  10.013  0.6390  0.9900  1.2630
   27CHL1  H19C 1967   5.339   3.390  10.040 -0.7283  0.4168 -0.3634
   27CHL1    C1 1968   5.540   3.296  10.195 -0.0055  0.3715  0.6358
   27CHL1   H1A 1969   5.469   3.217  10.164  1.4649 -1.6200  2.1441
   27CHL1   H1B 1970   5.645   3.259  10.202 -0.4565 -0.9988  0.4517
   27CHL1    C2 1971   5.491   3.308  10.343 -0.4308 -0.5585  0.3932
   27CHL1   H2A 1972   5.502   3.208  10.389  2.1889 -0.0530  1.0258
   27CHL1   H2B 1973   5.381   3.327  10.338 -0.3962 -0.5820 -0.6920
   27CHL1   C20 1974   5.648   3.414   9.407 -0.6949 -0.8717 -0.1108
   27CHL1   H20 1975   5.574   3.494   9.386  1.2754  1.2619  0.6278
   27CHL1   C21 1976   5.572   3.276   9.400  0.4507  0.2577 -0.6113
   27CHL1  H21A 1977   5.478   3.278   9.459  0.0445  0.6199 -1.2465
   27CHL1  H21B 1978   5.639   3.196   9.435  0.6921  1.0017  0.6718
   27CHL1  H21C 1979   5.531   3.253   9.299 -1.5140 -3.0636  0.7683
   27CHL1   C22 1980   5.763   3.423   9.306 -0.2028 -0.1794  0.1807
   27CHL1  H22A 1981   5.838   3.503   9.328 -1.5236  1.3994 -0.8400
   27CHL1  H22B 1982   5.809   3.322   9.298 -0.4158 -0.4080  1.5229
   27CHL1   C23 1983   5.724   3.445   9.156  0.2132 -0.2457 -0.2626
   27CHL1  H23A 1984   5.652   3.369   9.118 -0.9318  1.6195 -2.0354
   27CHL1  H23B 1985   5.669   3.542   9.162 -1.1990 -1.1149  1.7813
   27CHL1   C24 1986   5.840   3.453   9.048  0.7479 -0.0732  0.0968
   27CHL1  H24A 1987   5.916   3.525   9.085  0.0023  0.2341  1.0652
   27CHL1  H24B 1988   5.880   3.351   9.034 -0.0606 -0.2700 -0.8862
   27CHL1   C25 1989   5.802   3.501   8.904 -0.4424 -0.1240  0.1420
   27CHL1   H25 1990   5.745   3.595   8.920 -1.6451 -0.9663  1.0622
   27CHL1   C26 1991   5.923   3.522   8.813  0.0673  0.2458  0.3830
   27CHL1  H26A 1992   5.893   3.570   8.717  1.3248  2.7976  1.1952
   27CHL1  H26B 1993   5.992   3.593   8.862  0.7998 -0.2373  0.0668
   27CHL1  H26C 1994   5.968   3.422   8.793  1.2589  0.5639  1.3516
   27CHL1   C27 1995   5.723   3.389   8.834  1.1283 -0.1009 -0.3150
   27CHL1  H27A 1996   5.624   3.372   8.883 -0.8021  1.9284 -3.1496
   27CHL1  H27B 1997   5.689   3.426   8.735 -0.8186 -1.6608 -0.2982
   27CHL1  H27C 1998   5.783   3.296   8.837  1.2782 -0.0661 -1.7327
   28CHL1    C3 1999   5.716   0.652  10.032 -0.2129 -0.2111 -1.0176
   28CHL1    H3 2000   5.809   0.607  10.072  0.1646  2.0765  0.8991
   28CHL1    O3 2001   5.661   0.725  10.143  0.3303  0.2469 -0.3799
   28CHL1   H3' 2002   5.569   0.747  10.124  0.1369 -0.8089 -0.7426
   28CHL1    C4 2003   5.767   0.750   9.927 -0.3490 -0.0567  0.0203
   28CHL1   H4A 2004   5.684   0.813   9.890  0.0133  0.9068  0.8116
   28CHL1   H4B 2005   5.844   0.812   9.978  0.8866 -1.0251 -0.5843
   28CHL1    C5 2006   5.814   0.670   9.807 -0.7180  0.8560  0.2915
   28CHL1    C6 2007   5.946   0.688   9.761  0.0002  0.2338  0.1809
   28CHL1    H6 2008   6.010   0.767   9.802  1.1920  1.0578 -2.9931
   28CHL1    C7 2009   6.004   0.615   9.640  0.5528  0.0051 -0.0954
   28CHL1   H7A 2010   6.065   0.689   9.583  1.3332 -0.3206  0.3027
   28CHL1   H7B 2011   6.078   0.542   9.681  0.2306  0.0730  0.6116
   28CHL1    C8 2012   5.895   0.543   9.558  0.2169  0.0021  0.3129
   28CHL1    H8 2013   5.845   0.628   9.506 -0.4358 -0.6443 -0.1526
   28CHL1   C14 2014   5.957   0.441   9.458 -0.2168 -0.1237 -0.2844
   28CHL1   H14 2015   6.000   0.358   9.518 -1.3898 -1.2141 -0.9004
   28CHL1   C15 2016   6.072   0.505   9.375  0.2572  0.8909  0.6668
   28CHL1  H15A 2017   6.045   0.608   9.340 -0.5159 -0.0632 -1.7350
   28CHL1  H15B 2018   6.158   0.512   9.445  0.3431  2.0784  0.4762
   28CHL1   C16 2019   6.084   0.397   9.263  0.0778  0.4733  0.3182
   28CHL1  H16A 2020   6.071   0.432   9.159 -0.4702 -0.9355 -0.1042
   28CHL1  H16B 2021   6.185   0.353   9.276 -0.6399 -0.9606  1.3656
   28CHL1   C17 2022   5.971   0.288   9.283 -0.2622  0.0016  0.5204
   28CHL1   H17 2023   6.001   0.203   9.348 -1.6547  1.2947  2.9946
   28CHL1   C13 2024   5.865   0.366   9.365  0.2029  0.1726 -0.8500
   28CHL1   C18 2025   5.786   0.464   9.275  0.8262  0.3223  0.4410
   28CHL1  H18A 2026   5.696   0.496   9.331 -1.3327 -0.3774 -2.3885
   28CHL1  H18B 2027   5.844   0.549   9.233 -0.5446  0.7276 -0.7099
   28CHL1  H18C 2028   5.747   0.414   9.183  2.4838  1.9782 -1.2644
   28CHL1   C12 2029   5.777   0.275   9.460 -0.0428 -0.5958  0.0358
   28CHL1  H12A 2030   5.706   0.224   9.391  1.0620  2.1310 -3.4640
   28CHL1  H12B 2031   5.843   0.200   9.508 -2.0519 -1.7422  1.1193
   28CHL1   C11 2032   5.709   0.362   9.568  0.4795 -0.1997  0.7211
   28CHL1  H11A 2033   5.631   0.423   9.518  0.3736  0.6394  1.8779
   28CHL1  H11B 2034   5.670   0.293   9.646  0.5621  1.9580  2.7944
   28CHL1    C9 2035   5.804   0.465   9.643  0.2344 -0.3104 -0.7227
   28CHL1    H9 2036   5.871   0.402   9.705 -0.0833 -0.4427 -0.5110
   28CHL1   C10 2037   5.725   0.554   9.747  0.4365 -0.2138  0.4951
   28CHL1   C19 2038   5.605   0.622   9.683  0.1599 -0.8013  0.2006
   28CHL1  H19A 2039   5.570   0.713   9.737  0.9828  0.0300 -0.6310
   28CHL1  H19B 2040   5.642   0.670   9.590 -0.9237  2.8652  1.4697
   28CHL1  H19C 2041   5.518   0.555   9.666 -0.6727 -0.2412  2.0231
   28CHL1    C1 2042   5.673   0.472   9.864  0.5929  0.4323  0.2030
   28CHL1   H1A 2043   5.598   0.402   9.822  0.6374  1.0924 -1.0455
   28CHL1   H1B 2044   5.752   0.400   9.892 -1.6850 -2.2992 -0.0221
   28CHL1    C2 2045   5.618   0.548   9.989  0.0192  0.6608 -0.2461
   28CHL1   H2A 2046   5.594   0.477  10.071  1.1213  2.1411  1.4130
   28CHL1   H2B 2047   5.521   0.591   9.955  0.3550  0.0074 -2.2104
   28CHL1   C20 2048   5.941   0.214   9.151  0.0236  0.6606  0.2106
   28CHL1   H20 2049   5.902   0.283   9.073 -2.6107  0.2597  1.0528
   28CHL1   C21 2050   5.836   0.097   9.175  0.4121 -0.5971 -0.0745
   28CHL1  H21A 2051   5.739   0.128   9.218 -0.3030 -2.6737 -0.0919
   28CHL1  H21B 2052   5.878   0.028   9.251  1.8057  2.3406  1.9939
   28CHL1  H21C 2053   5.811   0.042   9.081 -0.9184 -1.0824  0.5508
   28CHL1   C22 2054   6.070   0.137   9.098  0.0542 -0.2767  0.7229
   28CHL1  H22A 2055   6.151   0.212   9.091  0.5988 -0.7046  2.0506
   28CHL1  H22B 2056   6.095   0.054   9.169 -0.3092 -1.0065  0.0129
   28CHL1   C23 2057   6.045   0.072   8.961  0.7623 -0.1357 -0.0067
   28CHL1  H23A 2058   6.144   0.027   8.934  1.4547  0.7490  0.9867
   28CHL1  H23B 2059   5.971  -0.009   8.978  1.6609 -1.2972 -1.3744
   28CHL1   C24 2060   5.998   0.165   8.849  0.2579 -0.2805 -0.0203
   28CHL1  H24A 2061   6.010   0.112   8.752 -3.0724 -1.4525  0.0680
   28CHL1  H24B 2062   5.890   0.189   8.862 -0.4929 -2.6801 -1.1303
   28CHL1   C25 2063   6.090   0.292   8.829  0.0897  0.5479  0.3991
   28CHL1   H25 2064   6.097   0.358   8.918 -2.4500  0.4101  0.7888
   28CHL1   C26 2065   6.229   0.249   8.787 -0.1091  0.3115  0.4484
   28CHL1  H26A 2066   6.213   0.174   8.707 -3.1986  0.6972  0.5803
   28CHL1  H26B 2067   6.285   0.337   8.748 -0.8286  0.9599  0.8575
   28CHL1  H26C 2068   6.286   0.203   8.870 -1.5745 -3.1984 -0.3404
   28CHL1   C27 2069   6.031   0.380   8.714 -0.5912  0.2608 -0.0324
   28CHL1  H27A 2070   6.030   0.321   8.620  1.0666  0.9376 -0.5130
   28CHL1  H27B 2071   5.930   0.408   8.751 -0.0140  0.9796  1.0454
   28CHL1  H27C 2072   6.087   0.476   8.711 -0.0538 -0.0695 -0.6610
   29CHL1    C3 2073   5.986   4.659   6.830 -0.4461 -0.3127 -0.5407
   29CHL1    H3 2074   6.034   4.759   6.832 -0.8967 -0.1043  0.9959
   29CHL1    O3 2075   5.981   4.629   6.691  0.4196  0.0450 -0.1779
   29CHL1   H3' 2076   5.946   4.539   6.696  2.0344 -0.6990 -1.2562
   29CHL1    C4 2077   6.074   4.567   6.912 -0.8540 -0.2698  0.4726
   29CHL1   H4A 2078   6.030   4.465   6.906 -0.9343 -0.1398 -1.9016
   29CHL1   H4B 2079   6.172   4.567   6.860 -1.4611  1.9456 -0.7933
   29CHL1    C5 2080   6.082   4.616   7.059  0.6846 -0.4921 -0.4370
   29CHL1    C6 2081   6.202   4.645   7.122  0.2111  0.8322 -0.7944
   29CHL1    H6 2082   6.298   4.626   7.072  0.3253 -1.9272  0.2743
   29CHL1    C7 2083   6.225   4.679   7.263 -0.5220 -0.2195 -0.8671
   29CHL1   H7A 2084   6.309   4.624   7.313 -1.3696 -1.2172 -0.4917
   29CHL1   H7B 2085   6.251   4.786   7.275 -0.9415 -0.2109  0.0082
   29CHL1    C8 2086   6.101   4.645   7.349  0.3603  0.0646  0.4354
   29CHL1    H8 2087   6.100   4.534   7.355  0.9032  0.0778  0.8879
   29CHL1   C14 2088   6.104   4.703   7.479  0.2398 -0.8575 -0.5218
   29CHL1   H14 2089   6.107   4.813   7.463  1.8816 -0.5107  1.6225
   29CHL1   C15 2090   6.236   4.675   7.565  0.3498  0.1457  0.0386
   29CHL1  H15A 2091   6.269   4.569   7.563 -0.1708 -0.0183 -1.0806
   29CHL1  H15B 2092   6.315   4.744   7.529 -0.6408  0.2799 -2.0653
   29CHL1   C16 2093   6.182   4.694   7.705 -0.0253  0.5432 -0.3957
   29CHL1  H16A 2094   6.213   4.603   7.760  1.1094  1.1762  0.0532
   29CHL1  H16B 2095   6.228   4.783   7.753  0.9133 -1.0392  1.8362
   29CHL1   C17 2096   6.024   4.724   7.702 -0.6668  0.0667  0.8609
   29CHL1   H17 2097   6.016   4.833   7.681 -0.2933 -0.0698 -0.0499
   29CHL1   C13 2098   5.981   4.665   7.570  0.3505  0.3533  0.1489
   29CHL1   C18 2099   5.970   4.511   7.588 -0.4546 -0.4566 -0.7554
   29CHL1  H18A 2100   5.885   4.480   7.651  0.2463 -0.6737  0.0998
   29CHL1  H18B 2101   5.954   4.474   7.484 -0.4319  2.4481 -1.9002
   29CHL1  H18C 2102   6.065   4.471   7.629  0.7512  0.5951 -2.3547
   29CHL1   C12 2103   5.856   4.726   7.503  0.0357 -0.0049 -0.7162
   29CHL1  H12A 2104   5.763   4.699   7.557  1.1010 -1.0992  0.6451
   29CHL1  H12B 2105   5.866   4.836   7.490  0.4693  0.0363 -0.0988
   29CHL1   C11 2106   5.842   4.665   7.366  0.1344  0.5248 -0.3678
   29CHL1  H11A 2107   5.819   4.557   7.379  2.3993  0.2357  2.1185
   29CHL1  H11B 2108   5.755   4.716   7.321 -0.9610 -3.2051 -2.9859
   29CHL1    C9 2109   5.968   4.685   7.282  0.6402  0.0367  0.5996
   29CHL1    H9 2110   5.975   4.796   7.270 -2.5431  0.6069  2.7583
   29CHL1   C10 2111   5.946   4.620   7.132 -0.3544  0.0280 -0.3869
   29CHL1   C19 2112   5.890   4.475   7.150  0.4845  0.0424  0.7192
   29CHL1  H19A 2113   5.898   4.423   7.053  3.6086 -0.8451  1.3391
   29CHL1  H19B 2114   5.943   4.422   7.233  0.6361 -1.2746 -0.1931
   29CHL1  H19C 2115   5.782   4.485   7.171 -0.0296  0.1470 -1.7190
   29CHL1    C1 2116   5.846   4.704   7.041  0.0249 -0.2072  0.1755
   29CHL1   H1A 2117   5.746   4.687   7.086  0.7129  0.6210  2.1327
   29CHL1   H1B 2118   5.868   4.813   7.043  0.4099 -0.2725 -0.2881
   29CHL1    C2 2119   5.846   4.669   6.887  0.0134  0.2435 -0.3298
   29CHL1   H2A 2120   5.787   4.742   6.828 -1.0083 -0.7128 -0.5163
   29CHL1   H2B 2121   5.801   4.568   6.881  2.5220 -0.9786 -0.0660
   29CHL1   C20 2122   5.950   4.685   7.830 -0.0086 -0.8705 -0.3060
   29CHL1   H20 2123   5.948   4.574   7.836  0.2840 -0.8011  2.6720
   29CHL1   C21 2124   5.804   4.739   7.837 -0.8980 -0.3561  0.0166
   29CHL1  H21A 2125   5.738   4.688   7.764 -2.2704 -0.1412  1.0683
   29CHL1  H21B 2126   5.804   4.849   7.820  0.6957 -0.1927  0.9005
   29CHL1  H21C 2127   5.763   4.725   7.939  0.0384 -1.4082  0.2634
   29CHL1   C22 2128   6.021   4.748   7.955  0.2114 -0.0219  0.0495
   29CHL1  H22A 2129   6.082   4.838   7.932  0.8312 -0.7704 -1.3052
   29CHL1  H22B 2130   5.949   4.787   8.030  0.0661 -1.0241  0.4405
   29CHL1   C23 2131   6.115   4.646   8.026 -0.3138  0.3154  0.1098
   29CHL1  H23A 2132   6.061   4.549   8.026 -1.4623  0.9116  1.8531
   29CHL1  H23B 2133   6.203   4.632   7.959 -0.3483  0.7500 -0.0278
   29CHL1   C24 2134   6.160   4.681   8.173 -0.7095  0.1763 -0.1369
   29CHL1  H24A 2135   6.231   4.766   8.164 -2.6481  1.7984 -0.5857
   29CHL1  H24B 2136   6.071   4.722   8.225 -1.6591  1.1670 -2.4024
   29CHL1   C25 2137   6.218   4.562   8.261 -1.1756  0.2436 -0.1745
   29CHL1   H25 2138   6.289   4.503   8.198 -0.6266  1.4226 -0.6935
   29CHL1   C26 2139   6.300   4.604   8.382 -0.3483 -0.6666 -0.0689
   29CHL1  H26A 2140   6.381   4.671   8.344 -0.3191 -0.9591 -0.5233
   29CHL1  H26B 2141   6.230   4.661   8.448 -1.9903 -0.0482 -2.2301
   29CHL1  H26C 2142   6.332   4.508   8.427  1.6048 -0.1286 -0.2184
   29CHL1   C27 2143   6.109   4.466   8.304 -0.1202  0.0024  0.0066
   29CHL1  H27A 2144   6.145   4.361   8.317 -0.6279 -0.5067 -2.1646
   29CHL1  H27B 2145   6.067   4.493   8.403  0.7041 -0.1252  0.3982
   29CHL1  H27C 2146   6.026   4.468   8.230  0.7665 -0.4847 -1.0227
   30CHL1    C3 2147   5.489   5.130   7.153  0.5025  0.4618 -0.9762
   30CHL1    H3 2148   5.543   5.224   7.177 -0.2523  1.4858 -3.0453
   30CHL1    O3 2149   5.509   5.090   7.018  0.2432  0.4249  0.4313
   30CHL1   H3' 2150   5.433   5.035   7.005 -0.8651  2.0029 -0.0867
   30CHL1    C4 2151   5.537   5.029   7.252 -0.1993  0.0368 -0.8036
   30CHL1   H4A 2152   5.488   4.929   7.240  1.2801 -0.5003 -3.0673
   30CHL1   H4B 2153   5.638   5.000   7.217 -0.6479  0.9097 -3.0192
   30CHL1    C5 2154   5.509   5.072   7.395 -0.1384  0.6556  0.0854
   30CHL1    C6 2155   5.617   5.078   7.475  0.1198  0.9332 -0.0834
   30CHL1    H6 2156   5.714   5.044   7.436 -0.9346  0.9084 -2.8574
   30CHL1    C7 2157   5.602   5.133   7.613 -0.1460 -0.2124 -0.2715
   30CHL1   H7A 2158   5.655   5.068   7.687  1.4941 -0.1196 -1.3061
   30CHL1   H7B 2159   5.645   5.235   7.621 -2.4387  0.9388 -1.8455
   30CHL1    C8 2160   5.456   5.136   7.670  0.2201 -0.0888  0.0687
   30CHL1    H8 2161   5.417   5.038   7.705 -1.0706  0.3542 -0.0821
   30CHL1   C14 2162   5.446   5.230   7.794 -0.1361  0.7512  0.5065
   30CHL1   H14 2163   5.466   5.337   7.774 -0.1782  0.3504 -2.1135
   30CHL1   C15 2164   5.545   5.197   7.904  0.1924  0.5718 -0.0322
   30CHL1  H15A 2165   5.574   5.090   7.912  0.5201  0.7661  1.8508
   30CHL1  H15B 2166   5.645   5.241   7.884 -0.8155  1.1905 -4.8044
   30CHL1   C16 2167   5.481   5.268   8.029 -0.1722 -0.1447 -0.7012
   30CHL1  H16A 2168   5.486   5.192   8.110  2.4701 -1.0881 -1.6304
   30CHL1  H16B 2169   5.544   5.354   8.059 -0.9277 -0.1381  0.9509
   30CHL1   C17 2170   5.345   5.308   7.987  0.1942  1.2625  0.0785
   30CHL1   H17 2171   5.356   5.415   7.958  0.8877  1.2666  0.3588
   30CHL1   C13 2172   5.311   5.221   7.865  0.0646  0.6254 -0.3043
   30CHL1   C18 2173   5.283   5.076   7.909  0.5409 -1.3523 -0.6331
   30CHL1  H18A 2174   5.356   5.035   7.982 -0.5919 -2.5117 -0.1125
   30CHL1  H18B 2175   5.190   5.095   7.966  0.1103  1.1487 -2.0161
   30CHL1  H18C 2176   5.253   5.003   7.830 -0.9513 -0.6506 -0.7432
   30CHL1   C12 2177   5.218   5.286   7.760 -0.1886  0.5598  0.4317
   30CHL1  H12A 2178   5.109   5.276   7.776 -0.5228  0.1508 -1.7331
   30CHL1  H12B 2179   5.257   5.391   7.759  3.9976 -0.7819  2.3321
   30CHL1   C11 2180   5.215   5.218   7.618 -0.3046  0.3326  0.2242
   30CHL1  H11A 2181   5.166   5.119   7.630  0.1813  0.3063  2.3704
   30CHL1  H11B 2182   5.165   5.286   7.546 -0.7312 -2.0988 -1.9023
   30CHL1    C9 2183   5.356   5.201   7.567 -0.5869  0.0662  0.1388
   30CHL1    H9 2184   5.406   5.300   7.554  0.7955 -0.3286  2.0362
   30CHL1   C10 2185   5.368   5.123   7.433 -0.1736 -0.0899  0.6604
   30CHL1   C19 2186   5.275   5.000   7.435  0.4589  0.2745  0.0265
   30CHL1  H19A 2187   5.169   5.014   7.464  0.7796  0.0191  1.3646
   30CHL1  H19B 2188   5.278   4.939   7.342 -0.8271 -2.6004  1.7316
   30CHL1  H19C 2189   5.320   4.936   7.514  0.1649  0.2910  0.2100
   30CHL1    C1 2190   5.325   5.216   7.322  0.0271 -0.1035  1.3554
   30CHL1   H1A 2191   5.216   5.214   7.342 -0.2359  2.8807  0.6043
   30CHL1   H1B 2192   5.362   5.321   7.331 -0.7898  0.1966  1.2639
   30CHL1    C2 2193   5.341   5.160   7.178 -0.1914 -0.6412  0.7163
   30CHL1   H2A 2194   5.301   5.234   7.105  1.5696 -0.8714 -0.5329
   30CHL1   H2B 2195   5.288   5.063   7.168 -1.9475  0.0707  2.3245
   30CHL1   C20 2196   5.253   5.311   8.116  0.9415  0.0613  0.0556
   30CHL1   H20 2197   5.252   5.207   8.157 -1.9823  0.1687  0.4517
   30CHL1   C21 2198   5.116   5.358   8.063 -0.4914  0.2153  0.9313
   30CHL1  H21A 2199   5.124   5.451   8.002  2.3514 -0.6792 -0.1965
   30CHL1  H21B 2200   5.045   5.357   8.149 -1.9787 -3.2215 -0.1571
   30CHL1  H21C 2201   5.068   5.275   8.007  0.7496 -1.2813  2.0322
   30CHL1   C22 2202   5.299   5.409   8.229  0.7808  0.3630 -0.1917
   30CHL1  H22A 2203   5.408   5.397   8.245  0.9136  0.9898 -0.5742
   30CHL1  H22B 2204   5.265   5.510   8.196  2.3332  1.1293  0.4737
   30CHL1   C23 2205   5.233   5.369   8.365 -0.1274  0.4332  0.0738
   30CHL1  H23A 2206   5.125   5.397   8.361 -0.2843 -0.2874 -1.5597
   30CHL1  H23B 2207   5.237   5.259   8.378 -0.6120  0.4629  0.5049
   30CHL1   C24 2208   5.292   5.442   8.484 -0.6955 -0.6730 -0.2572
   30CHL1  H24A 2209   5.386   5.389   8.506 -0.7602 -0.6524  0.0617
   30CHL1  H24B 2210   5.306   5.548   8.451 -1.2623 -0.4356  0.2421
   30CHL1   C25 2211   5.190   5.455   8.597 -0.2355 -0.5920  0.6137
   30CHL1   H25 2212   5.092   5.479   8.551 -1.5251 -1.9329  2.4980
   30CHL1   C26 2213   5.172   5.315   8.669 -0.3586  0.0047  0.2447
   30CHL1  H26A 2214   5.098   5.328   8.751  0.5444  2.8961  0.7078
   30CHL1  H26B 2215   5.138   5.234   8.601  2.9527 -0.6084 -0.8513
   30CHL1  H26C 2216   5.269   5.284   8.713 -0.7433 -1.2552  0.2348
   30CHL1   C27 2217   5.230   5.557   8.703 -0.2575  0.1666 -0.0638
   30CHL1  H27A 2218   5.336   5.535   8.729 -0.4981 -0.9640 -0.0183
   30CHL1  H27B 2219   5.220   5.657   8.656 -1.5035  1.2695  2.3230
   30CHL1  H27C 2220   5.162   5.552   8.791  2.1687 -0.1786  1.9124
   31CHL1    C3 2221   4.591   0.462   6.715 -0.1209  0.0250 -0.1757
   31CHL1    H3 2222   4.487   0.438   6.686 -0.2524 -0.8545  0.9564
   31CHL1    O3 2223   4.677   0.499   6.605 -0.0327  0.5621  0.5681
   31CHL1   H3' 2224   4.664   0.434   6.537  0.4558  1.0968 -0.0451
   31CHL1    C4 2225   4.593   0.577   6.824 -0.8173 -0.4467  0.6546
   31CHL1   H4A 2226   4.699   0.611   6.833 -0.4333 -1.8639  1.8663
   31CHL1   H4B 2227   4.532   0.658   6.779 -1.1110 -0.2193  1.4472
   31CHL1    C5 2228   4.534   0.543   6.962  0.1278 -0.2577  0.1793
   31CHL1    C6 2229   4.432   0.617   7.014 -0.1930 -0.3970  0.2878
   31CHL1    H6 2230   4.399   0.707   6.960 -0.5527 -0.6194  0.1362
   31CHL1    C7 2231   4.384   0.590   7.149 -0.4347  0.0307 -0.2585
   31CHL1   H7A 2232   4.366   0.690   7.194 -0.3503  0.0381 -0.2407
   31CHL1   H7B 2233   4.282   0.547   7.142 -1.1003  1.6610 -1.2469
   31CHL1    C8 2234   4.479   0.498   7.232  0.7461  0.2649  0.6293
   31CHL1    H8 2235   4.559   0.570   7.259 -0.4186  1.8478  0.1003
   31CHL1   C14 2236   4.412   0.453   7.358  0.3147  0.3076 -1.1152
   31CHL1   H14 2237   4.340   0.374   7.327  1.3194 -1.6246  1.1006
   31CHL1   C15 2238   4.347   0.559   7.443 -0.2381  0.1298  0.2642
   31CHL1  H15A 2239   4.415   0.646   7.456  0.7715  0.1947 -4.0112
   31CHL1  H15B 2240   4.251   0.596   7.403 -0.3427 -0.8898 -0.4540
   31CHL1   C16 2241   4.319   0.491   7.580 -0.4297 -0.2870 -0.4796
   31CHL1  H16A 2242   4.364   0.541   7.668 -0.6681 -2.4965  0.9897
   31CHL1  H16B 2243   4.214   0.465   7.607  0.2824 -1.7687  1.0358
   31CHL1   C17 2244   4.397   0.355   7.573  0.3669 -0.1553 -0.2859
   31CHL1   H17 2245   4.317   0.288   7.536 -0.4375  1.2040 -1.1109
   31CHL1   C13 2246   4.496   0.375   7.450 -0.2292  1.1824  0.3348
   31CHL1   C18 2247   4.622   0.460   7.502 -0.4277 -0.3124 -0.3973
   31CHL1  H18A 2248   4.676   0.510   7.419  0.4463 -2.2986 -1.0756
   31CHL1  H18B 2249   4.590   0.541   7.570 -1.2138 -1.6926  0.9453
   31CHL1  H18C 2250   4.681   0.387   7.561 -2.9092 -2.2701 -0.1203
   31CHL1   C12 2251   4.533   0.243   7.373 -0.1375  0.1385 -0.0376
   31CHL1  H12A 2252   4.600   0.171   7.424 -0.0330  0.8706  0.8858
   31CHL1  H12B 2253   4.440   0.189   7.343 -0.2265  1.2048 -1.8074
   31CHL1   C11 2254   4.609   0.281   7.239 -0.4314  0.0504 -0.8405
   31CHL1  H11A 2255   4.703   0.329   7.274 -0.1195 -0.6056 -0.7741
   31CHL1  H11B 2256   4.631   0.187   7.185 -0.5462 -1.7287  2.0118
   31CHL1    C9 2257   4.533   0.384   7.153 -0.1335  0.0647  0.6493
   31CHL1    H9 2258   4.440   0.336   7.116  0.2950 -0.4424  0.2235
   31CHL1   C10 2259   4.599   0.420   7.022 -0.1691 -0.2359  0.0852
   31CHL1   C19 2260   4.753   0.440   7.056  0.0130  0.0692  0.0923
   31CHL1  H19A 2261   4.768   0.498   7.149  0.7581 -1.1670  0.7712
   31CHL1  H19B 2262   4.800   0.340   7.070 -0.8560 -0.9143 -3.0839
   31CHL1  H19C 2263   4.802   0.485   6.966  0.5127 -0.1262  0.2620
   31CHL1    C1 2264   4.584   0.305   6.919  0.2145  0.0945  0.5074
   31CHL1   H1A 2265   4.617   0.205   6.955 -1.8711 -1.3016 -1.2269
   31CHL1   H1B 2266   4.475   0.292   6.904  0.1061  0.8976  0.5516
   31CHL1    C2 2267   4.648   0.335   6.776 -0.3015 -0.9385 -0.0915
   31CHL1   H2A 2268   4.643   0.252   6.704 -0.1007 -1.3618  0.3744
   31CHL1   H2B 2269   4.755   0.351   6.804 -0.5829  0.1733  0.4248
   31CHL1   C20 2270   4.450   0.311   7.704 -0.2093  1.0066 -0.5881
   31CHL1   H20 2271   4.518   0.388   7.745  0.5785  1.3962 -2.4954
   31CHL1   C21 2272   4.537   0.178   7.689  0.2277 -0.1538  0.1203
   31CHL1  H21A 2273   4.573   0.155   7.791  1.6146  0.8646 -0.1062
   31CHL1  H21B 2274   4.629   0.198   7.629 -0.4475  0.2791 -0.7935
   31CHL1  H21C 2275   4.490   0.090   7.640  0.7408 -1.2854  1.5823
   31CHL1   C22 2276   4.337   0.274   7.801 -0.0762 -0.0431 -0.2902
   31CHL1  H22A 2277   4.264   0.356   7.817 -0.2618 -0.3290  0.3591
   31CHL1  H22B 2278   4.273   0.191   7.764 -1.8261  1.3784 -0.5938
   31CHL1   C23 2279   4.388   0.237   7.941  0.4761 -0.7092  0.5694
   31CHL1  H23A 2280   4.446   0.142   7.937  0.9775 -0.4017 -3.3721
   31CHL1  H23B 2281   4.453   0.312   7.992 -1.3587  1.0805  0.3914
   31CHL1   C24 2282   4.272   0.210   8.039 -0.5148 -0.3552 -0.0185
   31CHL1  H24A 2283   4.213   0.302   8.058  0.0897 -0.4183  2.6127
   31CHL1  H24B 2284   4.194   0.150   7.988  0.1735  0.7520 -2.5379
   31CHL1   C25 2285   4.319   0.144   8.172  0.5812 -0.0770  0.6298
   31CHL1   H25 2286   4.386   0.057   8.152 -0.4916 -1.1183  1.3951
   31CHL1   C26 2287   4.403   0.239   8.261 -0.6488  0.3375  0.8677
   31CHL1  H26A 2288   4.485   0.273   8.195 -0.2663  0.2954  1.3161
   31CHL1  H26B 2289   4.339   0.322   8.299 -2.7976 -0.6982 -0.3101
   31CHL1  H26C 2290   4.449   0.189   8.349  1.2750 -1.5982 -1.1123
   31CHL1   C27 2291   4.202   0.093   8.253  0.1602  0.1856  0.2539
   31CHL1  H27A 2292   4.119   0.166   8.240  1.1087  1.4443  1.0316
   31CHL1  H27B 2293   4.220   0.065   8.358 -1.4893 -1.2061  0.2042
   31CHL1  H27C 2294   4.156   0.005   8.204 -0.5233  0.5148  0.2862
   32CHL1    C3 2295   4.887   4.973   6.973  0.3160 -0.5675 -0.5182
   32CHL1    H3 2296   4.846   4.881   7.021 -1.2448  1.1371  1.6880
   32CHL1    O3 2297   4.939   4.964   6.838 -0.1533  0.1625 -0.1333
   32CHL1   H3' 2298   5.021   4.915   6.842 -0.0249 -0.1937 -3.5448
   32CHL1    C4 2299   4.780   5.080   6.962  0.6020  0.1796  0.0623
   32CHL1   H4A 2300   4.821   5.166   6.903 -0.2293  0.7006  0.2290
   32CHL1   H4B 2301   4.697   5.042   6.899  0.3267  0.6204  0.1499
   32CHL1    C5 2302   4.738   5.131   7.094  0.2617 -0.2910 -0.0673
   32CHL1    C6 2303   4.599   5.143   7.120 -0.4559 -0.0323 -0.5284
   32CHL1    H6 2304   4.529   5.111   7.042 -2.3754 -1.2484  1.5572
   32CHL1    C7 2305   4.544   5.203   7.243 -0.4387 -1.0465  0.0406
   32CHL1   H7A 2306   4.464   5.276   7.215 -0.9786 -1.9788 -0.9327
   32CHL1   H7B 2307   4.496   5.118   7.297 -1.2265  0.3597  1.6428
   32CHL1    C8 2308   4.644   5.265   7.347  0.2199  0.7095  0.0176
   32CHL1    H8 2309   4.664   5.368   7.312  2.0144  0.0207 -1.1238
   32CHL1   C14 2310   4.596   5.266   7.490 -0.2268  0.3187  0.4702
   32CHL1   H14 2311   4.591   5.161   7.526 -2.0316  1.1077  2.7882
   32CHL1   C15 2312   4.450   5.303   7.526 -0.2467  0.5606  0.6802
   32CHL1  H15A 2313   4.419   5.381   7.453  2.4592 -0.1784 -1.4098
   32CHL1  H15B 2314   4.381   5.217   7.514  1.9638 -1.4056  1.3040
   32CHL1   C16 2315   4.457   5.338   7.673 -0.4126 -0.2602  0.1070
   32CHL1  H16A 2316   4.434   5.446   7.676 -0.6902 -0.3467  1.2214
   32CHL1  H16B 2317   4.390   5.282   7.741 -0.8848 -0.1867 -0.2930
   32CHL1   C17 2318   4.607   5.324   7.719 -0.3878  0.1016  0.6213
   32CHL1   H17 2319   4.623   5.221   7.756 -0.1168  0.0830  0.4535
   32CHL1   C13 2320   4.696   5.333   7.587  0.0351  0.1607 -0.5274
   32CHL1   C18 2321   4.708   5.481   7.543  0.2304  0.0150  0.1432
   32CHL1  H18A 2322   4.794   5.522   7.600  2.5240 -0.9712 -2.3492
   32CHL1  H18B 2323   4.728   5.506   7.436 -0.3306  2.5081  0.5774
   32CHL1  H18C 2324   4.613   5.533   7.566  0.2930  0.0441  0.3319
   32CHL1   C12 2325   4.834   5.263   7.586  0.1264  0.3267  0.9656
   32CHL1  H12A 2326   4.911   5.303   7.655 -0.8854  0.6120  1.9586
   32CHL1  H12B 2327   4.793   5.162   7.609 -2.8005  0.9025 -1.0704
   32CHL1   C11 2328   4.885   5.265   7.439  0.4164 -0.8100  0.0941
   32CHL1  H11A 2329   4.887   5.369   7.401  0.0396 -0.7987  0.0965
   32CHL1  H11B 2330   4.987   5.222   7.433  1.9188  2.5034 -0.4437
   32CHL1    C9 2331   4.782   5.190   7.343 -0.1449 -0.6932  0.1102
   32CHL1    H9 2332   4.762   5.091   7.389 -0.6974 -0.9566 -0.6732
   32CHL1   C10 2333   4.842   5.169   7.200  0.2714 -0.0945 -0.2607
   32CHL1   C19 2334   4.925   5.287   7.151 -0.6315  0.0874  0.0405
   32CHL1  H19A 2335   5.023   5.297   7.202  0.7133 -0.0258 -2.3514
   32CHL1  H19B 2336   4.957   5.268   7.046  1.1487 -0.3499  0.6291
   32CHL1  H19C 2337   4.864   5.380   7.147  0.6226  0.8899 -1.1404
   32CHL1    C1 2338   4.943   5.046   7.209  0.4104 -1.3781 -0.1897
   32CHL1   H1A 2339   5.025   5.088   7.271  1.3711 -1.5891 -1.2803
   32CHL1   H1B 2340   4.893   4.960   7.258  0.6031 -2.2175 -1.4290
   32CHL1    C2 2341   4.998   5.006   7.072  0.0328  0.0354  0.1604
   32CHL1   H2A 2342   5.077   4.927   7.070 -0.2575 -0.2612  0.2460
   32CHL1   H2B 2343   5.044   5.097   7.029 -2.7748  2.0759  1.1920
   32CHL1   C20 2344   4.632   5.431   7.828 -1.0575  0.0823 -0.2614
   32CHL1   H20 2345   4.632   5.531   7.779  1.4129  0.9757  1.3626
   32CHL1   C21 2346   4.770   5.402   7.890  0.0393  0.3648 -0.4306
   32CHL1  H21A 2347   4.771   5.295   7.918 -0.8565  0.0578 -1.5292
   32CHL1  H21B 2348   4.789   5.468   7.978 -0.9257  0.9451 -0.6489
   32CHL1  H21C 2349   4.848   5.428   7.815 -0.3036  1.6623 -0.3665
   32CHL1   C22 2350   4.526   5.440   7.941  0.0904  0.6571 -0.6386
   32CHL1  H22A 2351   4.424   5.457   7.900  0.2669  1.2581 -0.8412
   32CHL1  H22B 2352   4.529   5.341   7.992  0.6612  0.7036 -0.5758
   32CHL1   C23 2353   4.547   5.553   8.047  0.4077 -0.2403 -0.1446
   32CHL1  H23A 2354   4.644   5.540   8.100  0.0775 -0.6747  0.3659
   32CHL1  H23B 2355   4.549   5.650   7.993  2.0929 -0.5061 -0.6097
   32CHL1   C24 2356   4.442   5.570   8.159 -0.4890 -0.4939  0.2342
   32CHL1  H24A 2357   4.345   5.580   8.105 -0.9642 -1.1259  0.9416
   32CHL1  H24B 2358   4.447   5.468   8.204  0.7813 -0.7068 -0.3448
   32CHL1   C25 2359   4.468   5.685   8.260  0.6733 -0.0300 -0.6934
   32CHL1   H25 2360   4.448   5.780   8.205 -0.1223 -0.8744 -1.9389
   32CHL1   C26 2361   4.358   5.695   8.365  0.3281  0.3479 -0.0523
   32CHL1  H26A 2362   4.369   5.778   8.438 -3.0027  0.1955  0.7923
   32CHL1  H26B 2363   4.262   5.695   8.309  0.4052  1.9917 -0.2164
   32CHL1  H26C 2364   4.360   5.597   8.418 -0.8420 -1.3540 -2.8903
   32CHL1   C27 2365   4.606   5.696   8.324 -0.0685  0.0229  0.5190
   32CHL1  H27A 2366   4.623   5.606   8.386  0.1877 -0.2560  0.0534
   32CHL1  H27B 2367   4.693   5.712   8.257  1.2713 -0.6771  2.0367
   32CHL1  H27C 2368   4.595   5.790   8.383  1.4333  0.4131  0.2253
   33CHL1    C3 2369   6.738   5.418   6.900  0.1739 -0.2736  0.0010
   33CHL1    H3 2370   6.748   5.316   6.943 -1.1675 -0.2132  0.5194
   33CHL1    O3 2371   6.738   5.406   6.761 -0.5972 -0.3006  0.7234
   33CHL1   H3' 2372   6.716   5.495   6.731 -3.6175 -1.7541 -2.1158
   33CHL1    C4 2373   6.600   5.472   6.948  0.0638  0.1116  0.6255
   33CHL1   H4A 2374   6.586   5.569   6.895  3.6795 -0.0138 -0.8515
   33CHL1   H4B 2375   6.520   5.412   6.900 -1.5611  2.4925  0.1625
   33CHL1    C5 2376   6.595   5.492   7.098 -0.4390  0.7683  0.6959
   33CHL1    C6 2377   6.492   5.449   7.172  1.0405 -0.4552  0.3623
   33CHL1    H6 2378   6.405   5.407   7.120 -0.0104  0.1391  1.5837
   33CHL1    C7 2379   6.471   5.467   7.319  0.0979  0.1720  0.0476
   33CHL1   H7A 2380   6.378   5.522   7.345  0.4052  0.5581  0.3308
   33CHL1   H7B 2381   6.464   5.365   7.364 -0.2554  0.6328  1.0471
   33CHL1    C8 2382   6.581   5.540   7.390 -0.9314  0.6705  1.2405
   33CHL1    H8 2383   6.562   5.649   7.374 -0.2699  0.5175 -0.8140
   33CHL1   C14 2384   6.584   5.508   7.538 -0.5205 -0.2237 -0.8025
   33CHL1   H14 2385   6.611   5.401   7.540  0.5283 -0.0177 -2.2628
   33CHL1   C15 2386   6.459   5.528   7.632 -0.2129  0.3231  0.1949
   33CHL1  H15A 2387   6.406   5.618   7.594  0.4413  0.8510  0.5167
   33CHL1  H15B 2388   6.385   5.446   7.620 -1.2486  0.7279  3.1687
   33CHL1   C16 2389   6.503   5.523   7.777 -0.4909 -0.5218 -0.1603
   33CHL1  H16A 2390   6.459   5.612   7.826  0.1392 -0.6706  0.6863
   33CHL1  H16B 2391   6.461   5.435   7.830 -1.4994  0.1809  0.2301
   33CHL1   C17 2392   6.664   5.521   7.761 -0.0244 -0.3479 -0.7258
   33CHL1   H17 2393   6.699   5.416   7.754  0.8487 -0.0801 -0.5322
   33CHL1   C13 2394   6.687   5.583   7.622  0.0997  0.2911  0.2484
   33CHL1   C18 2395   6.655   5.738   7.622 -0.0293  0.0236 -0.4470
   33CHL1  H18A 2396   6.691   5.788   7.529  2.4420 -4.1612 -2.0628
   33CHL1  H18B 2397   6.547   5.761   7.634  0.5477  1.3102  4.0392
   33CHL1  H18C 2398   6.709   5.789   7.705  1.0423 -2.7139  0.6499
   33CHL1   C12 2399   6.821   5.551   7.557 -0.0350  0.2529  0.3206
   33CHL1  H12A 2400   6.886   5.627   7.605 -0.2060  1.5367 -1.3846
   33CHL1  H12B 2401   6.858   5.447   7.573 -0.7164 -0.6561 -3.1799
   33CHL1   C11 2402   6.824   5.597   7.409  0.2261 -0.0972 -0.1276
   33CHL1  H11A 2403   6.806   5.706   7.405 -2.9089 -0.4973  0.2068
   33CHL1  H11B 2404   6.920   5.580   7.357  0.1632  0.6462 -0.4931
   33CHL1    C9 2405   6.714   5.517   7.322 -0.0368  0.1259  0.4691
   33CHL1    H9 2406   6.740   5.409   7.321 -0.1141  0.0742 -2.1875
   33CHL1   C10 2407   6.722   5.549   7.168 -0.0477  0.2523  0.2463
   33CHL1   C19 2408   6.711   5.704   7.147  1.0764  0.1918 -0.2426
   33CHL1  H19A 2409   6.804   5.757   7.175  0.0812  1.0820  1.5341
   33CHL1  H19B 2410   6.692   5.735   7.042 -0.8123  1.6990  0.4946
   33CHL1  H19C 2411   6.633   5.757   7.205  1.1909  1.5217 -1.2632
   33CHL1    C1 2412   6.853   5.495   7.105 -0.1132  0.1563  0.1298
   33CHL1   H1A 2413   6.945   5.544   7.145 -0.1000 -0.4725  0.8693
   33CHL1   H1B 2414   6.865   5.391   7.140  0.3196  0.4554  0.8953
   33CHL1    C2 2415   6.853   5.508   6.951  0.6756  0.4860  0.4321
   33CHL1   H2A 2416   6.946   5.467   6.907 -0.0460 -0.0505 -0.6314
   33CHL1   H2B 2417   6.847   5.614   6.917  0.3698 -0.1518 -1.6539
   33CHL1   C20 2418   6.739   5.577   7.881  0.3971 -0.8824 -0.6036
   33CHL1   H20 2419   6.735   5.688   7.890 -0.7928 -0.9047 -0.6380
   33CHL1   C21 2420   6.883   5.536   7.875  0.2397  0.3926 -0.0496
   33CHL1  H21A 2421   6.929   5.523   7.976 -1.0290 -1.3738  0.3679
   33CHL1  H21B 2422   6.940   5.595   7.800  0.5998  1.2248  0.8576
   33CHL1  H21C 2423   6.891   5.431   7.839 -1.2300  0.1878  0.1605
   33CHL1   C22 2424   6.684   5.541   8.026 -0.1288 -0.3355  0.4198
   33CHL1  H22A 2425   6.575   5.558   8.012 -0.0667 -0.0566  0.2658
   33CHL1  H22B 2426   6.690   5.431   8.042 -3.6611 -0.5636  0.9920
   33CHL1   C23 2427   6.739   5.610   8.143  0.1922 -0.1238 -0.2842
   33CHL1  H23A 2428   6.838   5.564   8.162  0.8188  2.0010  2.0557
   33CHL1  H23B 2429   6.771   5.711   8.112 -1.5033  0.6371  0.3159
   33CHL1   C24 2430   6.654   5.614   8.271  0.2743  0.3145 -0.4671
   33CHL1  H24A 2431   6.560   5.656   8.229  1.0056  0.6884 -1.7720
   33CHL1  H24B 2432   6.644   5.509   8.305 -0.3485  0.0461 -1.4409
   33CHL1   C25 2433   6.724   5.693   8.375 -0.2679 -0.2169 -0.4399
   33CHL1   H25 2434   6.829   5.660   8.392  0.4570  2.5139  1.0727
   33CHL1   C26 2435   6.735   5.844   8.351 -0.2591  0.7051 -0.1623
   33CHL1  H26A 2436   6.813   5.882   8.282  1.1194 -1.4840  0.1125
   33CHL1  H26B 2437   6.633   5.874   8.320  0.1872  1.2259 -1.1812
   33CHL1  H26C 2438   6.752   5.891   8.451 -1.5071 -0.9967  0.9060
   33CHL1   C27 2439   6.666   5.658   8.510 -0.3692  0.7587 -0.7986
   33CHL1  H27A 2440   6.562   5.698   8.519 -1.4956 -1.9046 -0.9658
   33CHL1  H27B 2441   6.660   5.547   8.523 -3.5855  0.8335 -0.6383
   33CHL1  H27C 2442   6.740   5.698   8.582 -0.9822  1.5830 -0.6144
   34CHL1    C3 2443   0.323   4.111   7.113 -0.3143  0.0680 -0.1196
   34CHL1    H3 2444   0.391   4.023   7.104 -1.0225 -0.5641  0.5639
   34CHL1    O3 2445   0.298   4.167   6.991  0.1200  0.2073  0.5030
   34CHL1   H3' 2446   0.264   4.093   6.940  1.4700 -0.9484  1.2029
   34CHL1    C4 2447   0.197   4.068   7.170 -0.1600  0.2753 -0.1973
   34CHL1   H4A 2448   0.126   4.154   7.177 -0.8263 -0.4145  2.2571
   34CHL1   H4B 2449   0.128   4.008   7.106  0.5458  0.6853 -1.3892
   34CHL1    C5 2450   0.206   4.019   7.318  0.5107 -0.3540  0.4947
   34CHL1    C6 2451   0.163   3.899   7.362 -0.0257 -0.2110 -0.0379
   34CHL1    H6 2452   0.116   3.817   7.305  2.1044 -0.8655 -0.9837
   34CHL1    C7 2453   0.165   3.863   7.508 -0.3138  0.5621  0.6249
   34CHL1   H7A 2454   0.067   3.817   7.533 -0.5565 -0.8401 -2.4226
   34CHL1   H7B 2455   0.253   3.797   7.523 -0.7728 -0.0902  0.4724
   34CHL1    C8 2456   0.194   3.979   7.604 -0.2435  0.2916  0.1650
   34CHL1    H8 2457   0.104   4.044   7.610 -0.0902  0.6166 -0.7569
   34CHL1   C14 2458   0.241   3.921   7.738  0.0025 -0.7835 -0.1418
   34CHL1   H14 2459   0.325   3.851   7.716  0.1679 -0.3672 -0.8552
   34CHL1   C15 2460   0.132   3.833   7.809  0.0019  0.0210 -0.6374
   34CHL1  H15A 2461   0.027   3.867   7.794 -0.9551 -2.2826  0.3546
   34CHL1  H15B 2462   0.135   3.730   7.769 -0.1403 -0.8318  1.4067
   34CHL1   C16 2463   0.174   3.836   7.959  0.5839 -1.0060 -0.6658
   34CHL1  H16A 2464   0.085   3.876   8.012  1.6994 -0.2042  0.6572
   34CHL1  H16B 2465   0.194   3.737   8.003 -0.8037 -1.8983 -1.9420
   34CHL1   C17 2466   0.296   3.930   7.965 -0.0598 -0.9078  0.3127
   34CHL1   H17 2467   0.383   3.862   7.954  1.4720  0.8288  1.2653
   34CHL1   C13 2468   0.283   4.028   7.845  1.0320 -0.6500  0.6189
   34CHL1   C18 2469   0.175   4.136   7.880 -0.1774  0.4291 -1.0194
   34CHL1  H18A 2470   0.080   4.085   7.906 -1.8529  3.2181 -1.2045
   34CHL1  H18B 2471   0.201   4.211   7.958 -3.5825 -0.4134  1.1513
   34CHL1  H18C 2472   0.150   4.202   7.794 -0.8568 -0.9150 -1.9016
   34CHL1   C12 2473   0.409   4.096   7.791 -0.7127  0.0793  0.4907
   34CHL1  H12A 2474   0.444   4.185   7.848 -0.2159 -0.2964  0.7831
   34CHL1  H12B 2475   0.487   4.017   7.794 -1.2801 -0.4683  1.6116
   34CHL1   C11 2476   0.387   4.149   7.641 -0.1218 -0.5900  1.1210
   34CHL1  H11A 2477   0.337   4.248   7.652 -0.1672 -0.7156  2.1675
   34CHL1  H11B 2478   0.483   4.185   7.598 -1.2378  1.1642 -0.0330
   34CHL1    C9 2479   0.316   4.052   7.542 -0.9718  0.0584  0.1977
   34CHL1    H9 2480   0.398   3.978   7.529  1.0873  1.9853  1.4542
   34CHL1   C10 2481   0.282   4.119   7.410 -0.5764  0.5086 -0.1396
   34CHL1   C19 2482   0.201   4.237   7.431  0.2713 -0.3891 -1.0670
   34CHL1  H19A 2483   0.099   4.219   7.472  1.3094  0.4759  2.1622
   34CHL1  H19B 2484   0.240   4.316   7.498 -1.6173  0.4410 -0.8846
   34CHL1  H19C 2485   0.177   4.298   7.341 -1.7880  1.9371  0.8887
   34CHL1    C1 2486   0.408   4.165   7.344  0.7315 -0.2905  0.2899
   34CHL1   H1A 2487   0.457   4.244   7.406 -1.1687 -0.8426  2.6192
   34CHL1   H1B 2488   0.470   4.073   7.337 -1.9563 -2.0773 -1.6171
   34CHL1    C2 2489   0.400   4.214   7.199  0.0201  0.1586  0.1094
   34CHL1   H2A 2490   0.507   4.226   7.170  0.2294 -1.6302  0.0330
   34CHL1   H2B 2491   0.349   4.309   7.176  3.4507  1.9448 -0.8064
   34CHL1   C20 2492   0.310   3.996   8.104 -0.5740 -0.2766 -0.1280
   34CHL1   H20 2493   0.232   4.071   8.128 -0.3063  0.0797 -0.3462
   34CHL1   C21 2494   0.447   4.073   8.116  0.0657 -0.1664  0.2041
   34CHL1  H21A 2495   0.529   4.007   8.078  0.0010  1.2935 -2.7799
   34CHL1  H21B 2496   0.460   4.106   8.221  2.4680 -0.7856  0.1679
   34CHL1  H21C 2497   0.442   4.162   8.049 -0.5831 -1.3192 -1.3331
   34CHL1   C22 2498   0.304   3.890   8.218 -0.0087 -0.3851 -0.0371
   34CHL1  H22A 2499   0.207   3.839   8.206 -0.9627  1.8573 -3.1354
   34CHL1  H22B 2500   0.387   3.816   8.212  0.1437 -0.3151  1.0041
   34CHL1   C23 2501   0.291   3.947   8.361  0.4464  0.7133  0.2399
   34CHL1  H23A 2502   0.389   3.995   8.382  0.7174  2.3773 -3.9214
   34CHL1  H23B 2503   0.209   4.020   8.375  0.5785  0.9775 -0.3514
   34CHL1   C24 2504   0.265   3.831   8.463  0.3563 -0.4260 -0.3119
   34CHL1  H24A 2505   0.168   3.782   8.438  1.1951 -3.8076  2.2892
   34CHL1  H24B 2506   0.350   3.760   8.459 -1.0883 -2.3078  0.8798
   34CHL1   C25 2507   0.259   3.872   8.610 -0.5443  0.0343 -0.0313
   34CHL1   H25 2508   0.258   3.781   8.673  1.3252  0.5221  0.7810
   34CHL1   C26 2509   0.384   3.941   8.658 -0.8523 -0.2386  0.0595
   34CHL1  H26A 2510   0.476   3.886   8.627 -0.1166  0.0414  1.6496
   34CHL1  H26B 2511   0.386   4.041   8.609  1.9380 -1.0374 -1.6864
   34CHL1  H26C 2512   0.390   3.946   8.769 -2.2256 -1.7976  0.2467
   34CHL1   C27 2513   0.139   3.956   8.647  0.3031  0.3791 -0.0640
   34CHL1  H27A 2514   0.058   3.917   8.582  0.9310  0.9616 -1.2321
   34CHL1  H27B 2515   0.114   3.942   8.755  1.6518 -3.4996 -0.0931
   34CHL1  H27C 2516   0.160   4.060   8.614  1.1658 -0.4587 -2.3467
   35CHL1    C3 2517   2.703   4.631   7.300 -0.5703  0.6724  0.5904
   35CHL1    H3 2518   2.602   4.641   7.345 -0.4275  0.4568  0.9729
   35CHL1    O3 2519   2.683   4.623   7.160 -0.2534 -0.7169 -0.3491
   35CHL1   H3' 2520   2.768   4.596   7.123  0.7550  1.2427  0.3960
   35CHL1    C4 2521   2.791   4.748   7.321 -0.4677 -0.5731 -0.1346
   35CHL1   H4A 2522   2.886   4.741   7.265 -0.1915  0.8215  0.1266
   35CHL1   H4B 2523   2.740   4.841   7.286 -1.6088  0.6315  4.0556
   35CHL1    C5 2524   2.831   4.754   7.470  0.0141 -0.4666  0.0676
   35CHL1    C6 2525   2.793   4.864   7.551 -1.1928 -0.8496  0.4640
   35CHL1    H6 2526   2.757   4.958   7.506  2.4943  0.4050 -0.1743
   35CHL1    C7 2527   2.830   4.878   7.698  0.1007 -0.1025  0.1960
   35CHL1   H7A 2528   2.869   4.981   7.716 -2.7703  1.3230 -0.9491
   35CHL1   H7B 2529   2.743   4.865   7.766  0.0803 -1.2297 -0.0259
   35CHL1    C8 2530   2.941   4.779   7.734  0.7501  0.6971  0.2742
   35CHL1    H8 2531   3.040   4.815   7.700 -0.0393  1.3623 -1.4696
   35CHL1   C14 2532   2.955   4.761   7.887 -0.2682 -0.2548  0.5054
   35CHL1   H14 2533   2.858   4.714   7.913 -0.2493 -0.1965  0.6787
   35CHL1   C15 2534   2.970   4.897   7.961  0.0041  0.5131  0.5235
   35CHL1  H15A 2535   3.044   4.962   7.910  0.9925 -0.1634  1.0525
   35CHL1  H15B 2536   2.873   4.952   7.967  0.7035  1.7329  0.9084
   35CHL1   C16 2537   3.016   4.850   8.100 -0.2764 -0.0975  0.4876
   35CHL1  H16A 2538   3.110   4.899   8.135  0.0804 -1.5128  1.6069
   35CHL1  H16B 2539   2.941   4.875   8.178  0.2371 -0.4005  1.0920
   35CHL1   C17 2540   3.043   4.693   8.092  0.8898 -0.4518  0.0459
   35CHL1   H17 2541   2.953   4.634   8.118  1.0379 -0.8696 -0.3767
   35CHL1   C13 2542   3.067   4.673   7.941  0.4426 -0.1860  0.7023
   35CHL1   C18 2543   3.204   4.725   7.900  0.3474 -0.4917 -0.3142
   35CHL1  H18A 2544   3.243   4.817   7.948 -0.9648 -0.3776  0.5683
   35CHL1  H18B 2545   3.271   4.640   7.929  0.9005  0.0911  0.1390
   35CHL1  H18C 2546   3.222   4.737   7.791 -0.0805  2.1791 -0.1591
   35CHL1   C12 2547   3.048   4.533   7.883 -0.2854  0.4456 -0.0854
   35CHL1  H12A 2548   3.127   4.462   7.913 -1.6688 -0.1495  2.4578
   35CHL1  H12B 2549   2.957   4.490   7.929 -0.3571 -0.7105 -1.2422
   35CHL1   C11 2550   3.029   4.534   7.731  0.2302 -0.6149 -0.3108
   35CHL1  H11A 2551   3.122   4.566   7.679 -1.6483  1.0583 -2.8281
   35CHL1  H11B 2552   3.005   4.430   7.698 -1.0942  0.0219 -1.4620
   35CHL1    C9 2553   2.920   4.635   7.676 -0.0614  0.4266 -0.4031
   35CHL1    H9 2554   2.823   4.606   7.721  1.1970 -0.8817  1.6266
   35CHL1   C10 2555   2.907   4.637   7.527 -0.7793  0.1538  0.3586
   35CHL1   C19 2556   3.053   4.643   7.458 -0.4849  0.8542 -0.1812
   35CHL1  H19A 2557   3.110   4.712   7.524 -1.5203 -1.3271  3.2858
   35CHL1  H19B 2558   3.104   4.544   7.456  3.2173  2.5808  0.7562
   35CHL1  H19C 2559   3.046   4.682   7.354  1.1092  0.4474 -0.4708
   35CHL1    C1 2560   2.831   4.513   7.485  0.2695  0.4501 -0.1560
   35CHL1   H1A 2561   2.900   4.427   7.498 -1.2604 -0.6040  1.2473
   35CHL1   H1B 2562   2.746   4.513   7.556 -0.4367  3.5387 -0.8315
   35CHL1    C2 2563   2.777   4.508   7.340 -0.0883 -0.5140  0.7518
   35CHL1   H2A 2564   2.706   4.424   7.324 -1.2171  0.7233 -1.2158
   35CHL1   H2B 2565   2.852   4.479   7.263  0.4999  0.1274  1.0667
   35CHL1   C20 2566   3.157   4.642   8.182  0.0187 -0.2652  0.1935
   35CHL1   H20 2567   3.251   4.695   8.155  0.9099 -1.4817  0.8014
   35CHL1   C21 2568   3.174   4.489   8.161  0.1850 -1.2707  0.1287
   35CHL1  H21A 2569   3.208   4.445   8.257  0.0672  0.3407  0.9483
   35CHL1  H21B 2570   3.251   4.478   8.082 -0.4040  2.7754 -1.2438
   35CHL1  H21C 2571   3.081   4.437   8.129 -0.4849 -0.2905  0.4401
   35CHL1   C22 2572   3.132   4.669   8.332 -0.3128  0.2824 -0.7523
   35CHL1  H22A 2573   3.225   4.628   8.377 -1.2492 -1.6958 -0.5196
   35CHL1  H22B 2574   3.123   4.780   8.342 -1.0624  0.1791 -0.2064
   35CHL1   C23 2575   3.009   4.606   8.412 -0.2446 -0.4280  0.9917
   35CHL1  H23A 2576   2.921   4.666   8.382  1.4972  1.4197 -0.8422
   35CHL1  H23B 2577   2.991   4.501   8.378 -0.3791 -0.4585  1.1600
   35CHL1   C24 2578   3.029   4.618   8.561  0.6099 -0.2355 -0.8121
   35CHL1  H24A 2579   3.001   4.518   8.600  3.3039 -0.6196  0.3457
   35CHL1  H24B 2580   3.135   4.621   8.594  0.3390 -0.5001  0.0867
   35CHL1   C25 2581   2.952   4.734   8.633 -0.7041 -0.0156  0.6701
   35CHL1   H25 2582   2.993   4.825   8.585 -2.2698  1.2079  1.5486
   35CHL1   C26 2583   2.801   4.738   8.623  0.2362  0.1208  0.1708
   35CHL1  H26A 2584   2.768   4.725   8.517 -1.0507 -1.4828  0.7242
   35CHL1  H26B 2585   2.763   4.649   8.676 -0.6734 -1.0377 -2.2491
   35CHL1  H26C 2586   2.753   4.828   8.668  1.4911  0.5985  0.5831
   35CHL1   C27 2587   3.009   4.748   8.778 -0.5827 -0.1372 -0.0754
   35CHL1  H27A 2588   3.119   4.764   8.776 -0.3249 -1.6518 -2.2799
   35CHL1  H27B 2589   2.981   4.657   8.835 -0.4362 -0.4343 -0.4727
   35CHL1  H27C 2590   2.967   4.840   8.826  0.9309 -0.8091  2.7343
   36CHL1    C3 2591   2.799   3.202   7.088  0.6606  0.2326 -0.1299
   36CHL1    H3 2592   2.766   3.301   7.127  0.0061 -0.4660  1.1283
   36CHL1    O3 2593   2.807   3.213   6.948 -0.2989  0.1639 -0.0454
   36CHL1   H3' 2594   2.792   3.126   6.910 -0.2872  0.0483  0.2112
   36CHL1    C4 2595   2.927   3.162   7.150 -0.4655  0.1460  0.0617
   36CHL1   H4A 2596   2.965   3.066   7.108  1.0607  1.4110 -1.6136
   36CHL1   H4B 2597   3.002   3.236   7.116  0.3087  0.1667  1.7331
   36CHL1    C5 2598   2.911   3.149   7.299 -0.3221  0.4205  0.5050
   36CHL1    C6 2599   3.006   3.186   7.381 -0.4759  0.1153 -0.4029
   36CHL1    H6 2600   3.099   3.231   7.341 -0.2754 -0.3280 -0.4441
   36CHL1    C7 2601   3.010   3.177   7.533 -0.1600  0.2923 -0.0952
   36CHL1   H7A 2602   3.116   3.151   7.556 -0.9360 -1.7620  1.3748
   36CHL1   H7B 2603   2.986   3.273   7.583 -0.0498  0.6555 -0.7170
   36CHL1    C8 2604   2.921   3.070   7.584  1.1944  0.1057 -0.1035
   36CHL1    H8 2605   2.966   2.971   7.564  0.7017 -0.2989  0.7268
   36CHL1   C14 2606   2.901   3.077   7.732 -0.2612 -0.3621 -0.4240
   36CHL1   H14 2607   2.849   3.174   7.753 -0.0194 -0.0295 -1.3376
   36CHL1   C15 2608   3.028   3.078   7.821  0.0779  0.4954 -0.5800
   36CHL1  H15A 2609   3.111   3.019   7.776 -0.2959  1.3269 -2.4637
   36CHL1  H15B 2610   3.057   3.182   7.848 -2.1032  1.2849 -1.0768
   36CHL1   C16 2611   2.984   3.020   7.954 -0.3290  0.1990  0.3462
   36CHL1  H16A 2612   3.032   2.920   7.968 -0.5696  0.2538  1.8000
   36CHL1  H16B 2613   3.004   3.087   8.041 -0.9052  1.5809 -0.5663
   36CHL1   C17 2614   2.830   3.013   7.940  0.0386  0.3364  0.4444
   36CHL1   H17 2615   2.797   3.119   7.952  1.1505  0.7691 -0.1118
   36CHL1   C13 2616   2.812   2.981   7.792  0.1561 -0.0191  0.3079
   36CHL1   C18 2617   2.859   2.830   7.763  0.2411  0.5316  0.1073
   36CHL1  H18A 2618   2.852   2.799   7.656  3.1966 -0.4351  0.0948
   36CHL1  H18B 2619   2.968   2.823   7.783  0.0160  1.0628  1.5950
   36CHL1  H18C 2620   2.796   2.758   7.819  0.5969 -0.4158 -0.6837
   36CHL1   C12 2621   2.665   2.999   7.726  0.2539 -0.2445 -0.1398
   36CHL1  H12A 2622   2.597   2.923   7.771 -0.8044  0.2925 -0.7719
   36CHL1  H12B 2623   2.624   3.096   7.761 -2.2171 -0.9408 -0.9046
   36CHL1   C11 2624   2.669   2.992   7.570 -0.2973  0.0865  0.0003
   36CHL1  H11A 2625   2.686   2.886   7.541 -0.1832 -0.1251  0.8229
   36CHL1  H11B 2626   2.570   3.025   7.532 -0.3485  1.5140  1.2708
   36CHL1    C9 2627   2.781   3.085   7.508 -0.4179  0.8107 -0.1514
   36CHL1    H9 2628   2.753   3.192   7.525  1.5127  1.3539 -0.2162
   36CHL1   C10 2629   2.783   3.075   7.352 -0.2625  0.5924  0.8095
   36CHL1   C19 2630   2.816   2.927   7.314 -0.1519 -0.4194 -0.5073
   36CHL1  H19A 2631   2.819   2.914   7.203  0.2234 -0.7279 -0.4608
   36CHL1  H19B 2632   2.912   2.895   7.359 -1.2050  0.9175  3.0109
   36CHL1  H19C 2633   2.745   2.853   7.357  1.1396 -0.3274  1.9113
   36CHL1    C1 2634   2.656   3.120   7.286 -0.3812  0.3674 -0.1819
   36CHL1   H1A 2635   2.580   3.045   7.317  1.3185 -1.6104 -0.5972
   36CHL1   H1B 2636   2.639   3.224   7.320 -0.1202  0.0641  0.9448
   36CHL1    C2 2637   2.671   3.117   7.130 -0.3841  0.2110 -0.3141
   36CHL1   H2A 2638   2.585   3.157   7.072  0.1137 -1.6099 -2.4178
   36CHL1   H2B 2639   2.680   3.013   7.095 -2.3931  0.0726 -0.5299
   36CHL1   C20 2640   2.756   2.935   8.043  0.0361  0.0988  0.1561
   36CHL1   H20 2641   2.728   2.837   7.998  1.4202  0.1167 -0.8297
   36CHL1   C21 2642   2.630   3.006   8.076 -0.6701 -0.2806 -0.6708
   36CHL1  H21A 2643   2.650   3.107   8.117 -0.4039 -1.2453  1.7754
   36CHL1  H21B 2644   2.578   2.959   8.162  3.3821 -0.2092  2.1264
   36CHL1  H21C 2645   2.581   3.026   7.979  1.4463 -1.1967 -2.0079
   36CHL1   C22 2646   2.825   2.917   8.183  0.1237  0.1637 -0.4725
   36CHL1  H22A 2647   2.933   2.894   8.174 -0.0518 -0.6218 -0.6165
   36CHL1  H22B 2648   2.806   3.016   8.230  0.5684  0.4247 -0.8288
   36CHL1   C23 2649   2.780   2.795   8.263  0.8031  0.8122  0.6530
   36CHL1  H23A 2650   2.797   2.811   8.372  1.5315  0.5623  0.5805
   36CHL1  H23B 2651   2.669   2.789   8.259  0.8563 -0.7094  0.6329
   36CHL1   C24 2652   2.823   2.657   8.213 -0.4346 -0.1048  0.0975
   36CHL1  H24A 2653   2.793   2.662   8.105 -0.3824  0.0989  0.0918
   36CHL1  H24B 2654   2.933   2.648   8.208 -0.3466  0.0379  1.5451
   36CHL1   C25 2655   2.742   2.544   8.272  0.7079  0.5341  0.6583
   36CHL1   H25 2656   2.635   2.563   8.294  0.1459 -3.3306  2.1118
   36CHL1   C26 2657   2.751   2.412   8.184  0.3706  0.8483 -0.4691
   36CHL1  H26A 2658   2.727   2.328   8.252  2.7544 -0.0223 -0.5843
   36CHL1  H26B 2659   2.677   2.409   8.102 -0.4491  2.5465  0.1646
   36CHL1  H26C 2660   2.857   2.398   8.151  0.1253  0.7224 -1.2270
   36CHL1   C27 2661   2.799   2.503   8.406 -0.0224  0.1016 -1.2815
   36CHL1  H27A 2662   2.737   2.419   8.444 -1.1557  0.1497 -2.9182
   36CHL1  H27B 2663   2.904   2.473   8.384 -0.4179 -1.7336 -0.7971
   36CHL1  H27C 2664   2.793   2.572   8.493  1.5867 -1.9551  0.5744
   37CHL1    C3 2665   1.026   5.475   7.175 -0.3920  0.0392  0.4005
   37CHL1    H3 2666   1.106   5.398   7.190  1.7109  2.0108 -0.0620
   37CHL1    O3 2667   0.979   5.485   7.043  0.2282  0.4471  0.5344
   37CHL1   H3' 2668   0.932   5.404   7.023 -2.8740  2.2037  0.0041
   37CHL1    C4 2669   0.909   5.451   7.284 -0.8058  0.1292  0.0980
   37CHL1   H4A 2670   0.838   5.536   7.274 -2.6470 -1.2603  0.7691
   37CHL1   H4B 2671   0.858   5.355   7.258  1.9010 -1.9228  1.8397
   37CHL1    C5 2672   0.970   5.430   7.419  0.0194 -0.0758 -0.6294
   37CHL1    C6 2673   0.940   5.329   7.496 -0.9242 -0.0253 -0.0970
   37CHL1    H6 2674   0.868   5.255   7.456  0.3295  0.6800 -4.2264
   37CHL1    C7 2675   0.992   5.321   7.634 -0.3672  0.1490 -0.3163
   37CHL1   H7A 2676   0.916   5.289   7.708  1.3730  0.2058  1.5733
   37CHL1   H7B 2677   1.077   5.251   7.651 -0.1220  0.4071 -0.4727
   37CHL1    C8 2678   1.047   5.457   7.693  0.2660  0.4439 -0.8767
   37CHL1    H8 2679   0.967   5.525   7.727  0.3617  0.3561 -0.4741
   37CHL1   C14 2680   1.138   5.422   7.808 -0.6390  0.0046  0.1195
   37CHL1   H14 2681   1.226   5.361   7.777 -1.3582 -0.8852 -0.2157
   37CHL1   C15 2682   1.076   5.345   7.928 -0.8426  0.4655  0.1668
   37CHL1  H15A 2683   0.978   5.391   7.954 -1.2073 -0.6474  0.8436
   37CHL1  H15B 2684   1.066   5.237   7.904  2.8191  0.4594 -2.0226
   37CHL1   C16 2685   1.168   5.361   8.047 -0.0927  0.4813  0.2120
   37CHL1  H16A 2686   1.094   5.374   8.128 -0.8575 -3.6681  0.3998
   37CHL1  H16B 2687   1.228   5.269   8.068  0.3332  0.6710 -0.1346
   37CHL1   C17 2688   1.275   5.474   7.998 -0.3092  0.1795 -0.0216
   37CHL1   H17 2689   1.364   5.417   7.962 -0.1542  0.0629  0.5315
   37CHL1   C13 2690   1.211   5.543   7.876 -0.1877 -0.2835  0.8786
   37CHL1   C18 2691   1.104   5.646   7.916  0.1373 -0.4096 -0.1134
   37CHL1  H18A 2692   1.152   5.729   7.973 -1.7290  0.9124 -0.3778
   37CHL1  H18B 2693   1.056   5.684   7.823  2.4383  0.5979 -0.9738
   37CHL1  H18C 2694   1.033   5.597   7.986  0.2247  1.0854  1.0648
   37CHL1   C12 2695   1.298   5.607   7.767  0.6882 -0.0237  0.2970
   37CHL1  H12A 2696   1.359   5.687   7.815 -0.0211  0.1046  1.0242
   37CHL1  H12B 2697   1.377   5.536   7.737  2.1442  1.8640 -0.5350
   37CHL1   C11 2698   1.221   5.639   7.637  0.4033  0.2348 -0.9423
   37CHL1  H11A 2699   1.165   5.734   7.646  1.5506  0.6994  3.0099
   37CHL1  H11B 2700   1.301   5.662   7.564 -0.6158  2.4087 -1.4644
   37CHL1    C9 2701   1.136   5.523   7.585 -0.2453 -0.0685 -0.5297
   37CHL1    H9 2702   1.214   5.445   7.567  0.1209  0.5917 -1.9087
   37CHL1   C10 2703   1.061   5.549   7.460 -0.3905 -0.3126  0.2102
   37CHL1   C19 2704   0.967   5.668   7.490  0.1100 -0.0297  0.2520
   37CHL1  H19A 2705   0.913   5.701   7.399  0.8699  0.3238 -0.0786
   37CHL1  H19B 2706   0.880   5.652   7.557 -0.0653  0.4786  0.1524
   37CHL1  H19C 2707   1.017   5.764   7.518  1.3613 -0.5693 -0.0643
   37CHL1    C1 2708   1.159   5.592   7.347 -0.4395  0.1412  0.3115
   37CHL1   H1A 2709   1.214   5.683   7.379  1.3083 -1.6947  2.9141
   37CHL1   H1B 2710   1.230   5.507   7.352 -0.7207 -0.1230 -0.1174
   37CHL1    C2 2711   1.095   5.606   7.207 -0.3533 -0.8118 -0.2376
   37CHL1   H2A 2712   1.175   5.605   7.131  0.5202 -0.2140  0.6545
   37CHL1   H2B 2713   1.024   5.691   7.197 -2.2800 -2.0952  1.5127
   37CHL1   C20 2714   1.329   5.563   8.104 -0.5470  0.4395  0.8132
   37CHL1   H20 2715   1.346   5.667   8.069 -1.3584  0.6553  1.0501
   37CHL1   C21 2716   1.459   5.503   8.150  0.6191  0.2458 -0.1987
   37CHL1  H21A 2717   1.527   5.474   8.067 -0.4811  1.3520 -1.5447
   37CHL1  H21B 2718   1.426   5.413   8.206  1.0340  0.5094  0.4681
   37CHL1  H21C 2719   1.504   5.570   8.226  0.4035  1.5727 -1.2029
   37CHL1   C22 2720   1.246   5.577   8.240 -0.1368 -0.0717 -0.1228
   37CHL1  H22A 2721   1.142   5.573   8.202  1.2565 -3.4793 -4.5347
   37CHL1  H22B 2722   1.267   5.487   8.301 -1.5197  0.2647  0.8763
   37CHL1   C23 2723   1.272   5.709   8.314 -0.5999 -1.2162 -1.1439
   37CHL1  H23A 2724   1.376   5.721   8.351 -1.0517 -0.8069  0.0166
   37CHL1  H23B 2725   1.257   5.802   8.255  2.4322  1.2955  1.6407
   37CHL1   C24 2726   1.163   5.734   8.425 -0.1932 -0.1277  0.6141
   37CHL1  H24A 2727   1.065   5.745   8.374 -0.5479  3.1649  1.8362
   37CHL1  H24B 2728   1.172   5.648   8.494 -0.5897 -1.9332 -1.4467
   37CHL1   C25 2729   1.195   5.863   8.504  0.1928 -0.2709 -0.2550
   37CHL1   H25 2730   1.303   5.868   8.528  0.4497 -0.5277 -1.2775
   37CHL1   C26 2731   1.156   5.991   8.433 -0.2706  0.1418  0.6550
   37CHL1  H26A 2732   1.201   6.003   8.333 -0.3267  0.5945  0.6833
   37CHL1  H26B 2733   1.046   5.976   8.430 -0.3023 -1.2316  3.8241
   37CHL1  H26C 2734   1.183   6.073   8.503  1.0186  1.2069 -1.0164
   37CHL1   C27 2735   1.126   5.856   8.636 -0.7357  0.6947 -0.0591
   37CHL1  H27A 2736   1.167   5.770   8.693  0.4560 -0.1647 -2.1162
   37CHL1  H27B 2737   1.133   5.946   8.701 -1.0475  0.8278 -0.2086
   37CHL1  H27C 2738   1.020   5.832   8.614  0.0489 -1.1384 -2.1486
   38CHL1    C3 2739   4.850   0.872   6.683  0.5206  0.4209 -0.3513
   38CHL1    H3 2740   4.786   0.781   6.690  0.1549  0.7793  1.2221
   38CHL1    O3 2741   4.882   0.896   6.545  0.2100  0.4688  0.1678
   38CHL1   H3' 2742   4.951   0.832   6.529 -0.4589  0.2881 -2.5783
   38CHL1    C4 2743   4.765   0.986   6.745  0.4435  0.6335 -0.9115
   38CHL1   H4A 2744   4.823   1.080   6.730 -0.6430  1.4184 -0.3291
   38CHL1   H4B 2745   4.663   0.987   6.702 -0.5904  2.3071  1.4106
   38CHL1    C5 2746   4.749   0.964   6.893  0.3887  0.4273 -0.7125
   38CHL1    C6 2747   4.628   0.973   6.947  0.9326 -1.0527 -0.2203
   38CHL1    H6 2748   4.547   1.007   6.882  1.0927 -1.5195 -0.6742
   38CHL1    C7 2749   4.585   0.948   7.091  0.3088 -0.1108 -1.3830
   38CHL1   H7A 2750   4.511   1.023   7.125 -0.9046 -1.2247 -1.4695
   38CHL1   H7B 2751   4.535   0.849   7.095  0.4263 -0.1306 -0.0738
   38CHL1    C8 2752   4.709   0.957   7.184  0.4982  0.4028  0.1591
   38CHL1    H8 2753   4.731   1.066   7.187 -0.2282  0.6054 -1.1998
   38CHL1   C14 2754   4.667   0.912   7.322  0.3872 -0.6507  0.6647
   38CHL1   H14 2755   4.624   0.811   7.309 -2.2910  0.1628  2.4115
   38CHL1   C15 2756   4.544   0.978   7.394  0.3172 -0.6152 -0.1190
   38CHL1  H15A 2757   4.541   1.088   7.387  1.1804 -0.4013  2.0002
   38CHL1  H15B 2758   4.452   0.927   7.359 -0.8088  1.4426 -0.2990
   38CHL1   C16 2759   4.557   0.940   7.543  0.0398 -0.8443  0.7235
   38CHL1  H16A 2760   4.560   1.037   7.599  0.9684 -0.6836  0.4238
   38CHL1  H16B 2761   4.469   0.879   7.571 -0.4984 -0.7022 -0.6220
   38CHL1   C17 2762   4.700   0.865   7.553  0.3154  0.4690 -0.7331
   38CHL1   H17 2763   4.673   0.757   7.550 -2.6557  1.0972  0.1447
   38CHL1   C13 2764   4.774   0.903   7.420  0.6659 -0.9346 -0.3178
   38CHL1   C18 2765   4.836   1.045   7.436  0.0958 -0.7190  0.5285
   38CHL1  H18A 2766   4.878   1.089   7.343 -1.5264 -0.2000  0.0110
   38CHL1  H18B 2767   4.763   1.120   7.475  0.5289  0.8870 -1.5641
   38CHL1  H18C 2768   4.924   1.043   7.505  2.7219  1.7394 -2.4288
   38CHL1   C12 2769   4.875   0.798   7.371  0.3964 -0.0703  0.0192
   38CHL1  H12A 2770   4.960   0.801   7.442  0.6912 -0.3227 -0.3180
   38CHL1  H12B 2771   4.821   0.702   7.365 -1.2212  0.7054  1.3283
   38CHL1   C11 2772   4.930   0.843   7.230 -0.1339  0.6881 -0.1904
   38CHL1  H11A 2773   4.992   0.934   7.250  2.2133 -0.5964 -1.1949
   38CHL1  H11B 2774   5.003   0.766   7.197 -3.2597 -1.6027 -2.2495
   38CHL1    C9 2775   4.818   0.870   7.121  0.0482  0.1630 -0.2571
   38CHL1    H9 2776   4.775   0.768   7.110  0.5807 -0.1811  0.7083
   38CHL1   C10 2777   4.867   0.920   6.976  0.5183 -0.4407  0.1490
   38CHL1   C19 2778   4.947   1.050   6.989 -0.4043  1.1504  0.4831
   38CHL1  H19A 2779   4.892   1.131   7.041 -1.7270  1.4335 -1.2278
   38CHL1  H19B 2780   5.035   1.037   7.055 -0.1347 -0.3683 -0.1306
   38CHL1  H19C 2781   4.982   1.082   6.888 -0.7174 -3.1285 -1.1933
   38CHL1    C1 2782   4.949   0.808   6.914  0.5089 -0.0132 -0.1605
   38CHL1   H1A 2783   5.046   0.788   6.964 -0.7457 -0.9515  2.0281
   38CHL1   H1B 2784   4.893   0.712   6.917 -0.1930  0.3619  3.5049
   38CHL1    C2 2785   4.985   0.845   6.767  0.4154  0.0196  0.5660
   38CHL1   H2A 2786   5.029   0.758   6.715 -1.8168 -0.9425  0.1726
   38CHL1   H2B 2787   5.056   0.930   6.759  1.0055 -0.6362 -2.3309
   38CHL1   C20 2788   4.781   0.880   7.690  0.1341  0.8259 -0.0114
   38CHL1   H20 2789   4.826   0.981   7.694  1.4236  0.2478  2.8099
   38CHL1   C21 2790   4.886   0.769   7.710  0.2236 -0.9359 -0.0860
   38CHL1  H21A 2791   4.922   0.774   7.815 -1.5091  0.6861  0.4890
   38CHL1  H21B 2792   4.975   0.790   7.647 -0.0003 -1.8625 -0.7324
   38CHL1  H21C 2793   4.856   0.668   7.676  3.4981 -1.8346 -0.6541
   38CHL1   C22 2794   4.695   0.890   7.823  0.2968 -0.5333  0.9387
   38CHL1  H22A 2795   4.758   0.936   7.902 -0.8646 -1.1022  2.2439
   38CHL1  H22B 2796   4.616   0.963   7.797  0.5158 -1.4452 -2.8182
   38CHL1   C23 2797   4.627   0.764   7.875 -0.0917  0.3787  0.1603
   38CHL1  H23A 2798   4.562   0.723   7.795 -0.4350  0.8951  0.1694
   38CHL1  H23B 2799   4.698   0.688   7.913 -1.9821 -1.1780  0.7240
   38CHL1   C24 2800   4.536   0.811   7.993  0.6125 -0.4453 -0.7419
   38CHL1  H24A 2801   4.591   0.861   8.075 -0.0714  0.4943 -0.8384
   38CHL1  H24B 2802   4.478   0.897   7.953 -0.0710  0.0064  1.0886
   38CHL1   C25 2803   4.443   0.699   8.051 -0.1468 -0.8155  0.2627
   38CHL1   H25 2804   4.505   0.611   8.078  0.7627  0.2455  1.7354
   38CHL1   C26 2805   4.367   0.747   8.178  0.1209  0.2936  0.1289
   38CHL1  H26A 2806   4.440   0.765   8.260 -1.2251 -1.6828  1.8896
   38CHL1  H26B 2807   4.304   0.838   8.169  2.3644  2.0495  1.2902
   38CHL1  H26C 2808   4.304   0.667   8.223  0.4356  0.5263  1.0123
   38CHL1   C27 2809   4.358   0.644   7.940  0.3431  0.1715 -0.3950
   38CHL1  H27A 2810   4.331   0.727   7.871  0.8213  1.6765  1.1548
   38CHL1  H27B 2811   4.416   0.566   7.886  1.2709 -0.6095  1.6121
   38CHL1  H27C 2812   4.264   0.596   7.975  1.3675 -0.6912  1.3301
   39CHL1    C3 2813   4.657   6.390   7.022  0.2061  0.1984  0.0396
   39CHL1    H3 2814   4.714   6.306   7.066  1.5600  0.2035 -1.6004
   39CHL1    O3 2815   4.686   6.383   6.880 -0.3687 -0.1365 -0.2810
   39CHL1   H3' 2816   4.666   6.473   6.855  0.7007  1.1229  2.8477
   39CHL1    C4 2817   4.507   6.360   7.044 -0.1684  0.1180 -0.1341
   39CHL1   H4A 2818   4.454   6.446   6.999  1.9442  2.2783  1.2242
   39CHL1   H4B 2819   4.479   6.265   6.995  0.1601 -1.7668  3.0754
   39CHL1    C5 2820   4.478   6.355   7.193 -0.0358 -0.3931  0.0655
   39CHL1    C6 2821   4.408   6.252   7.242  0.1296 -0.1506  0.1729
   39CHL1    H6 2822   4.366   6.182   7.168 -1.5124 -2.4015  3.0384
   39CHL1    C7 2823   4.352   6.244   7.380  0.5420  0.1726 -0.5708
   39CHL1   H7A 2824   4.245   6.214   7.387  0.3397  1.0643  0.4976
   39CHL1   H7B 2825   4.402   6.164   7.439 -0.6093  1.2832  2.0575
   39CHL1    C8 2826   4.388   6.371   7.460  0.8437 -0.4455 -0.6834
   39CHL1    H8 2827   4.305   6.440   7.435 -0.7171 -1.9397  0.1105
   39CHL1   C14 2828   4.391   6.330   7.609 -0.2114  0.6628 -0.4797
   39CHL1   H14 2829   4.483   6.269   7.618 -0.4032 -0.0776 -2.8818
   39CHL1   C15 2830   4.275   6.229   7.659 -0.2120  0.3596  0.1282
   39CHL1  H15A 2831   4.182   6.272   7.616  0.9748  0.7019 -2.2553
   39CHL1  H15B 2832   4.282   6.122   7.627  0.6146 -0.0468  1.5709
   39CHL1   C16 2833   4.282   6.246   7.809  0.4136 -0.1606  0.0987
   39CHL1  H16A 2834   4.183   6.278   7.847 -0.9926 -0.0568 -3.2965
   39CHL1  H16B 2835   4.308   6.146   7.850  2.2525 -0.3306 -1.3584
   39CHL1   C17 2836   4.381   6.367   7.841  0.3484  0.0144  0.1722
   39CHL1   H17 2837   4.484   6.331   7.863  0.0948 -0.8711 -0.0459
   39CHL1   C13 2838   4.398   6.443   7.713 -0.8585 -0.9366  0.6792
   39CHL1   C18 2839   4.284   6.539   7.696 -0.3523 -1.2662 -0.1399
   39CHL1  H18A 2840   4.283   6.620   7.772  1.5721 -0.4613 -0.9279
   39CHL1  H18B 2841   4.293   6.591   7.599  0.1586 -0.2115  0.4638
   39CHL1  H18C 2842   4.185   6.489   7.685 -0.8620 -0.3807  0.2583
   39CHL1   C12 2843   4.540   6.508   7.684 -0.1758 -0.5397 -0.4512
   39CHL1  H12A 2844   4.566   6.590   7.754  3.0182 -1.7882 -0.0075
   39CHL1  H12B 2845   4.613   6.426   7.701 -0.3774 -0.6840 -0.2808
   39CHL1   C11 2846   4.556   6.552   7.533 -0.1276 -0.8484  0.6177
   39CHL1  H11A 2847   4.490   6.639   7.510  0.0976 -0.0942  2.6604
   39CHL1  H11B 2848   4.663   6.579   7.518  0.2240 -2.9233 -1.1164
   39CHL1    C9 2849   4.524   6.437   7.429 -0.0088  0.4406 -0.3193
   39CHL1    H9 2850   4.595   6.355   7.452 -1.0986  0.0077  1.8310
   39CHL1   C10 2851   4.531   6.475   7.279  0.7172 -0.8754 -0.0040
   39CHL1   C19 2852   4.437   6.596   7.250  0.5040 -0.4372 -0.3954
   39CHL1  H19A 2853   4.440   6.614   7.140  1.3774 -0.6654 -0.4179
   39CHL1  H19B 2854   4.332   6.566   7.270 -0.5959  1.0167 -3.3892
   39CHL1  H19C 2855   4.455   6.686   7.313 -1.9191 -0.8096  0.9346
   39CHL1    C1 2856   4.680   6.505   7.237 -0.3646 -0.4900 -0.3180
   39CHL1   H1A 2857   4.704   6.608   7.271 -2.5396 -0.3119  0.8004
   39CHL1   H1B 2858   4.751   6.436   7.287 -0.0206 -1.1842 -1.6952
   39CHL1    C2 2859   4.713   6.514   7.090  0.0409  0.5314  0.8895
   39CHL1   H2A 2860   4.819   6.526   7.061  0.4746 -2.2151  1.1142
   39CHL1   H2B 2861   4.663   6.605   7.050  0.0906 -0.3729 -1.3559
   39CHL1   C20 2862   4.346   6.454   7.967 -0.1900  0.0419  0.2392
   39CHL1   H20 2863   4.252   6.509   7.946 -0.9090  0.0591  3.1886
   39CHL1   C21 2864   4.456   6.552   8.001 -0.0328  0.6650 -0.2698
   39CHL1  H21A 2865   4.554   6.503   8.018 -0.3986  0.4737  1.5468
   39CHL1  H21B 2866   4.425   6.607   8.093 -1.6159  0.4063 -0.6165
   39CHL1  H21C 2867   4.459   6.630   7.922 -0.1653  0.5214 -0.4185
   39CHL1   C22 2868   4.314   6.355   8.082 -0.2265 -0.7379  0.1593
   39CHL1  H22A 2869   4.214   6.313   8.060  0.0979 -1.1387 -0.5952
   39CHL1  H22B 2870   4.393   6.277   8.089  0.1482 -0.2367  2.3534
   39CHL1   C23 2871   4.286   6.424   8.220 -0.3407  0.0663  0.5093
   39CHL1  H23A 2872   4.381   6.417   8.276  1.3855  1.5872 -2.0222
   39CHL1  H23B 2873   4.260   6.531   8.211 -0.9245 -0.1440 -0.4880
   39CHL1   C24 2874   4.196   6.347   8.315  0.5297  0.2861  0.1299
   39CHL1  H24A 2875   4.097   6.324   8.271  0.4389 -1.5738  1.2178
   39CHL1  H24B 2876   4.236   6.245   8.334  1.1131  0.4220 -0.3200
   39CHL1   C25 2877   4.186   6.402   8.457 -0.2279 -0.4029  0.0647
   39CHL1   H25 2878   4.290   6.413   8.495 -0.9809  0.9887  1.8232
   39CHL1   C26 2879   4.113   6.538   8.462 -0.2747 -0.9035  0.0635
   39CHL1  H26A 2880   4.095   6.566   8.568 -0.9458  2.0944 -0.7421
   39CHL1  H26B 2881   4.170   6.621   8.414  0.3220 -0.5695  1.3005
   39CHL1  H26C 2882   4.013   6.522   8.417 -0.8554 -0.7510  1.2750
   39CHL1   C27 2883   4.114   6.308   8.553  0.2649  0.3337  0.5527
   39CHL1  H27A 2884   4.038   6.250   8.496  1.3556  1.6221 -2.3593
   39CHL1  H27B 2885   4.194   6.236   8.582  0.0195 -0.1956 -0.0685
   39CHL1  H27C 2886   4.053   6.359   8.632 -1.8898 -2.0271  0.5608
   40CHL1    C3 2887   6.218   5.766   6.910 -0.1374 -0.3061  0.7782
   40CHL1    H3 2888   6.255   5.868   6.886 -0.7201 -0.4239 -0.6935
   40CHL1    O3 2889   6.240   5.683   6.791  0.1889  0.2363 -0.4308
   40CHL1   H3' 2890   6.210   5.596   6.818  0.0446  0.5306  0.3920
   40CHL1    C4 2891   6.278   5.702   7.034 -0.2782  0.0191  0.6715
   40CHL1   H4A 2892   6.249   5.595   7.036  3.0322 -1.0009  0.8903
   40CHL1   H4B 2893   6.386   5.698   7.008 -0.8771  2.7971 -3.0638
   40CHL1    C5 2894   6.245   5.760   7.165  0.1879  0.5967  0.2910
   40CHL1    C6 2895   6.341   5.814   7.239  0.3701  0.1286 -0.0042
   40CHL1    H6 2896   6.445   5.801   7.207 -0.1131 -1.0857 -1.1752
   40CHL1    C7 2897   6.321   5.868   7.374 -0.4451  0.0982 -0.0152
   40CHL1   H7A 2898   6.402   5.830   7.441 -0.5587 -0.5642 -0.2439
   40CHL1   H7B 2899   6.332   5.978   7.375  0.4636  0.0504  2.2590
   40CHL1    C8 2900   6.184   5.831   7.425  0.5566 -0.1348  0.8933
   40CHL1    H8 2901   6.193   5.730   7.470  0.9393  0.1885  1.5488
   40CHL1   C14 2902   6.159   5.933   7.536 -0.1474  0.3296 -0.0982
   40CHL1   H14 2903   6.145   6.031   7.485 -1.1539  0.8767  1.1906
   40CHL1   C15 2904   6.261   5.944   7.647 -0.4322  0.1024 -0.2115
   40CHL1  H15A 2905   6.292   5.842   7.678 -3.1472  0.0245  2.7739
   40CHL1  H15B 2906   6.353   6.003   7.628  1.1102 -0.9289  3.2208
   40CHL1   C16 2907   6.178   5.992   7.771  0.2678 -0.2852  0.3131
   40CHL1  H16A 2908   6.181   5.922   7.857 -0.0399 -0.5548  0.1120
   40CHL1  H16B 2909   6.211   6.097   7.789 -0.9419  0.1517  0.1168
   40CHL1   C17 2910   6.030   6.004   7.721 -0.3209  0.3553  0.2644
   40CHL1   H17 2911   6.020   6.097   7.661 -2.3107 -0.9964 -1.6624
   40CHL1   C13 2912   6.016   5.904   7.599  0.3901 -0.3227  0.0894
   40CHL1   C18 2913   6.007   5.759   7.653 -0.5388  0.8528 -0.2563
   40CHL1  H18A 2914   6.096   5.734   7.713 -0.4331 -1.5212 -1.2807
   40CHL1  H18B 2915   5.913   5.741   7.710 -0.5663  1.9379  0.0571
   40CHL1  H18C 2916   6.000   5.687   7.568 -1.7357  0.8238 -0.1545
   40CHL1   C12 2917   5.911   5.935   7.496 -0.0997 -0.3876  0.2938
   40CHL1  H12A 2918   5.807   5.929   7.536 -1.3238  2.2401 -2.1031
   40CHL1  H12B 2919   5.914   6.040   7.458  1.3598 -1.3729 -2.5258
   40CHL1   C11 2920   5.927   5.846   7.370  0.7645  0.3824  0.4853
   40CHL1  H11A 2921   5.886   5.746   7.393 -0.7961  0.7421 -0.6094
   40CHL1  H11B 2922   5.872   5.888   7.283 -0.1965  1.7482  1.7001
   40CHL1    C9 2923   6.072   5.846   7.315 -0.2645  0.7181 -0.3432
   40CHL1    H9 2924   6.089   5.953   7.293  0.9294  0.2816 -1.7520
   40CHL1   C10 2925   6.090   5.764   7.179 -0.3994 -0.0452 -0.2480
   40CHL1   C19 2926   6.039   5.620   7.196 -0.3742 -0.0286  0.6261
   40CHL1  H19A 2927   6.095   5.559   7.270  0.8234 -0.0948 -0.3067
   40CHL1  H19B 2928   5.933   5.633   7.227  0.0112  1.1826  1.5478
   40CHL1  H19C 2929   6.040   5.566   7.099 -0.2473  1.0625  0.0027
   40CHL1    C1 2930   6.030   5.843   7.058  0.5085 -0.1121  0.3019
   40CHL1   H1A 2931   5.918   5.844   7.055  0.5143 -0.8284 -0.3688
   40CHL1   H1B 2932   6.071   5.946   7.067  1.3797 -0.5213  1.0439
   40CHL1    C2 2933   6.067   5.778   6.923  0.3030  0.1602  0.3826
   40CHL1   H2A 2934   6.022   5.835   6.839 -0.4939  1.5872  1.7102
   40CHL1   H2B 2935   6.024   5.676   6.913 -1.6101  0.8623  1.0519
   40CHL1   C20 2936   5.928   6.010   7.830  0.3060 -0.0590  0.2237
   40CHL1   H20 2937   5.935   5.912   7.882 -1.8267  0.6580  1.9680
   40CHL1   C21 2938   5.784   6.018   7.779  0.1664 -0.0642 -0.2241
   40CHL1  H21A 2939   5.750   5.924   7.731  0.5077 -0.5423  0.4760
   40CHL1  H21B 2940   5.777   6.109   7.715  1.0824  0.6280  0.6261
   40CHL1  H21C 2941   5.710   6.036   7.860  0.6537  0.3473  0.1315
   40CHL1   C22 2942   5.969   6.120   7.937 -0.1845  0.2987 -0.0994
   40CHL1  H22A 2943   6.077   6.119   7.966 -0.3878 -1.7555  0.7604
   40CHL1  H22B 2944   5.931   6.218   7.902 -1.7267  0.2956  1.4327
   40CHL1   C23 2945   5.901   6.088   8.070  0.2353  0.2849  0.8979
   40CHL1  H23A 2946   5.799   6.045   8.064  0.7912 -1.4806  2.8492
   40CHL1  H23B 2947   5.960   6.005   8.115 -2.1706 -1.1809  1.5255
   40CHL1   C24 2948   5.908   6.205   8.171 -0.4153  0.4976  0.7200
   40CHL1  H24A 2949   6.010   6.246   8.155 -0.1029 -1.3909 -3.2473
   40CHL1  H24B 2950   5.849   6.299   8.161 -0.3412  0.4618 -0.1087
   40CHL1   C25 2951   5.890   6.164   8.317 -0.0370  0.4050 -0.3179
   40CHL1   H25 2952   5.942   6.070   8.347 -0.0119  0.4261 -0.2951
   40CHL1   C26 2953   5.955   6.267   8.409 -0.1614 -0.1389  1.0993
   40CHL1  H26A 2954   5.929   6.248   8.515 -1.7110  0.9295  0.9409
   40CHL1  H26B 2955   6.066   6.275   8.401  0.0152 -1.7482  1.4644
   40CHL1  H26C 2956   5.925   6.370   8.380  0.8392 -0.7558 -2.7658
   40CHL1   C27 2957   5.741   6.141   8.342  0.0212  0.4523 -0.0443
   40CHL1  H27A 2958   5.698   6.240   8.313 -0.3655  0.3967  0.3246
   40CHL1  H27B 2959   5.696   6.066   8.274 -0.0405 -1.6104  2.1429
   40CHL1  H27C 2960   5.721   6.121   8.450  1.9006  0.2020  0.2861
   41CHL1    C3 2961   0.740   6.123   6.935 -0.9148  0.2259  0.0676
   41CHL1    H3 2962   0.787   6.223   6.931  2.1043 -1.1119 -1.2918
   41CHL1    O3 2963   0.705   6.096   6.803 -0.2448  0.3912 -0.4854
   41CHL1   H3' 2964   0.787   6.091   6.752 -0.3717 -3.3092 -0.6309
   41CHL1    C4 2965   0.837   6.014   6.986 -1.0195  0.3887 -0.3224
   41CHL1   H4A 2966   0.787   5.917   6.963 -0.9129  0.3878 -0.5496
   41CHL1   H4B 2967   0.933   6.012   6.930  0.9813  1.0748  2.8236
   41CHL1    C5 2968   0.867   6.021   7.137 -0.4692  0.5894 -0.2013
   41CHL1    C6 2969   0.990   6.023   7.190  0.3222 -0.1556  0.2240
   41CHL1    H6 2970   1.074   6.024   7.118  0.2194 -1.2654  0.0722
   41CHL1    C7 2971   1.015   6.036   7.341  0.4801 -0.5614  0.1268
   41CHL1   H7A 2972   1.093   5.964   7.372  0.6632 -0.2247  0.4573
   41CHL1   H7B 2973   1.048   6.141   7.359 -0.5127  0.0562 -1.3695
   41CHL1    C8 2974   0.897   6.017   7.435  0.9266  0.1462  0.3733
   41CHL1    H8 2975   0.890   5.907   7.441  1.9123  0.0416 -0.2028
   41CHL1   C14 2976   0.917   6.065   7.576  0.1591  0.0599  1.1682
   41CHL1   H14 2977   0.914   6.176   7.570 -2.7835 -0.0352 -1.7763
   41CHL1   C15 2978   1.050   6.035   7.643 -0.2834 -0.1937  0.3418
   41CHL1  H15A 2979   1.092   5.933   7.630  2.1558  0.7791 -0.0526
   41CHL1  H15B 2980   1.127   6.103   7.600  1.2548 -2.1476 -0.1581
   41CHL1   C16 2981   1.023   6.064   7.793  0.0359  0.3433  0.6672
   41CHL1  H16A 2982   1.052   5.976   7.855 -1.7584 -0.1588  0.8405
   41CHL1  H16B 2983   1.092   6.150   7.806  2.0075 -0.2397 -3.9894
   41CHL1   C17 2984   0.872   6.094   7.808 -0.2438  0.0549  0.2454
   41CHL1   H17 2985   0.865   6.204   7.804  2.9197  0.3789  0.7912
   41CHL1   C13 2986   0.810   6.035   7.674  0.6407  0.7742  0.5426
   41CHL1   C18 2987   0.786   5.883   7.684 -0.2347  0.3658 -0.5297
   41CHL1  H18A 2988   0.872   5.816   7.702 -1.3837 -1.0037  0.0614
   41CHL1  H18B 2989   0.706   5.849   7.753 -1.1292 -1.7073 -2.4381
   41CHL1  H18C 2990   0.749   5.837   7.590 -1.2838  0.8277 -0.3558
   41CHL1   C12 2991   0.677   6.100   7.624  0.0542  0.4687 -1.0539
   41CHL1  H12A 2992   0.594   6.054   7.682 -0.0267 -0.7486 -2.1047
   41CHL1  H12B 2993   0.690   6.209   7.642  0.1913  0.5682 -1.7137
   41CHL1   C11 2994   0.649   6.074   7.479  0.3355  0.3222  0.0382
   41CHL1  H11A 2995   0.633   5.966   7.460  0.2445  0.4232 -0.4634
   41CHL1  H11B 2996   0.562   6.132   7.441 -0.2384 -0.6677 -0.1970
   41CHL1    C9 2997   0.769   6.080   7.377 -0.0462 -0.0602  0.1481
   41CHL1    H9 2998   0.796   6.188   7.375  1.7904 -0.4657  1.0176
   41CHL1   C10 2999   0.739   6.036   7.231  1.0089  0.0087  0.2485
   41CHL1   C19 3000   0.656   5.904   7.219 -0.1195  0.1703  0.2718
   41CHL1  H19A 3001   0.707   5.816   7.264 -1.8700 -0.9629  0.1312
   41CHL1  H19B 3002   0.555   5.900   7.264 -0.9147  0.4265 -1.3980
   41CHL1  H19C 3003   0.649   5.870   7.114 -1.0499 -0.6736  0.5961
   41CHL1    C1 3004   0.657   6.151   7.162 -0.1787  1.0170 -0.4879
   41CHL1   H1A 3005   0.567   6.164   7.226  0.7125  1.6252  0.6748
   41CHL1   H1B 3006   0.715   6.246   7.171 -0.2465  0.8492  3.3268
   41CHL1    C2 3007   0.614   6.124   7.022  0.1655 -0.5970 -0.3059
   41CHL1   H2A 3008   0.551   6.207   6.983 -1.2261 -1.2304  0.5051
   41CHL1   H2B 3009   0.558   6.028   7.013 -1.1029  0.1854 -1.0736
   41CHL1   C20 3010   0.805   6.047   7.933  0.1969 -0.3535  0.2240
   41CHL1   H20 3011   0.795   5.937   7.942  0.0669 -0.3539  0.0676
   41CHL1   C21 3012   0.667   6.110   7.947  0.1121 -0.3127  0.3417
   41CHL1  H21A 3013   0.668   6.221   7.939 -0.6064 -0.2443  1.0849
   41CHL1  H21B 3014   0.640   6.100   8.054  0.0011 -2.0617  0.1713
   41CHL1  H21C 3015   0.589   6.065   7.882  1.5931 -0.7871 -1.1633
   41CHL1   C22 3016   0.897   6.070   8.060  0.2763 -0.2813 -0.0872
   41CHL1  H22A 3017   0.830   6.052   8.147 -0.8623  2.6654 -0.2539
   41CHL1  H22B 3018   0.985   6.004   8.050  2.9672  2.7979  1.5506
   41CHL1   C23 3019   0.932   6.222   8.076  0.0101 -0.6114 -0.0218
   41CHL1  H23A 3020   1.010   6.252   8.002  0.3448  0.4100  0.7190
   41CHL1  H23B 3021   0.845   6.290   8.082  1.4826  1.5718 -1.7076
   41CHL1   C24 3022   1.012   6.243   8.210 -0.1251 -0.2537  0.0373
   41CHL1  H24A 3023   0.938   6.217   8.289  0.0033 -0.6786  0.0227
   41CHL1  H24B 3024   1.091   6.165   8.213  0.4073  0.2800 -0.0786
   41CHL1   C25 3025   1.071   6.383   8.222 -0.1796 -0.4059 -0.8199
   41CHL1   H25 3026   1.140   6.399   8.136  0.0360  0.7591 -0.4443
   41CHL1   C26 3027   0.970   6.494   8.210  0.0907  0.4566  0.5829
   41CHL1  H26A 3028   0.918   6.489   8.112  0.8037 -1.6027  0.2780
   41CHL1  H26B 3029   0.889   6.492   8.287 -0.7167  0.4273 -0.2437
   41CHL1  H26C 3030   1.030   6.587   8.225 -0.9126  1.1503  0.4500
   41CHL1   C27 3031   1.150   6.388   8.348 -0.3157  0.4359 -0.1564
   41CHL1  H27A 3032   1.091   6.345   8.431 -0.4066 -0.7158 -0.7947
   41CHL1  H27B 3033   1.247   6.333   8.338  0.5962  2.0857 -0.7577
   41CHL1  H27C 3034   1.172   6.494   8.372 -0.8519  0.3550  0.6991
   42CHL1    C3 3035   2.609   2.024   7.040 -0.0087  0.1981 -0.5439
   42CHL1    H3 3036   2.634   1.924   7.083  1.5979  0.9340  0.3420
   42CHL1    O3 3037   2.533   2.009   6.924 -0.3406 -0.2795  0.6918
   42CHL1   H3' 3038   2.483   2.091   6.917 -1.4758 -1.0357 -0.7992
   42CHL1    C4 3039   2.527   2.111   7.141  0.1661  0.3798 -0.4109
   42CHL1   H4A 3040   2.505   2.208   7.092  0.8458  0.3175 -0.8611
   42CHL1   H4B 3041   2.432   2.058   7.166  1.2258 -0.7699  1.3839
   42CHL1    C5 3042   2.607   2.136   7.272 -0.5616 -0.0258  1.4772
   42CHL1    C6 3043   2.565   2.094   7.391  0.8240  0.4959 -0.1047
   42CHL1    H6 3044   2.465   2.047   7.388 -0.1595  2.4155  0.7533
   42CHL1    C7 3045   2.625   2.138   7.525  0.2733 -0.6417  0.0731
   42CHL1   H7A 3046   2.546   2.174   7.594 -1.2944  0.4235 -2.1184
   42CHL1   H7B 3047   2.670   2.042   7.557 -0.1541 -1.3150 -1.2456
   42CHL1    C8 3048   2.730   2.258   7.506  0.0187 -0.1884  0.2517
   42CHL1    H8 3049   2.682   2.356   7.486  1.3751  0.8349  1.7921
   42CHL1   C14 3050   2.820   2.274   7.629 -1.1074 -0.6302  0.4695
   42CHL1   H14 3051   2.869   2.175   7.639  1.2219  0.2564 -1.3634
   42CHL1   C15 3052   2.738   2.301   7.755  0.1167 -0.6714  0.5951
   42CHL1  H15A 3053   2.661   2.379   7.738 -0.2428 -1.5705 -2.5705
   42CHL1  H15B 3054   2.691   2.208   7.793 -0.0801 -1.4429 -1.3830
   42CHL1   C16 3055   2.835   2.348   7.855 -0.0839  0.2067 -0.2428
   42CHL1  H16A 3056   2.801   2.450   7.883 -0.8311  0.4142 -1.8148
   42CHL1  H16B 3057   2.841   2.288   7.948  1.2982  1.5829  0.6063
   42CHL1   C17 3058   2.968   2.361   7.776 -0.6729 -0.5115 -0.7311
   42CHL1   H17 3059   3.023   2.265   7.782 -0.1224 -0.1215  1.5239
   42CHL1   C13 3060   2.934   2.368   7.630  0.6903  0.0846 -0.0250
   42CHL1   C18 3061   2.875   2.512   7.603  0.1082  0.2669  0.0602
   42CHL1  H18A 3062   2.829   2.517   7.502 -1.4523 -0.8885  0.6812
   42CHL1  H18B 3063   2.796   2.544   7.674 -0.0935  0.3354 -0.1941
   42CHL1  H18C 3064   2.958   2.586   7.601  0.5444 -0.1409  1.7053
   42CHL1   C12 3065   3.026   2.321   7.520  0.7214  0.1996  0.2484
   42CHL1  H12A 3066   3.095   2.407   7.513  0.4733  0.3778 -0.0431
   42CHL1  H12B 3067   3.080   2.226   7.543  2.1449  1.0102  0.3588
   42CHL1   C11 3068   2.948   2.312   7.388 -0.4211  0.2038 -0.0735
   42CHL1  H11A 3069   2.913   2.415   7.364  0.0200  0.4394  0.2884
   42CHL1  H11B 3070   3.010   2.279   7.302  0.2142 -0.2627  0.5494
   42CHL1    C9 3071   2.821   2.215   7.383  0.3979 -0.0543 -0.8038
   42CHL1    H9 3072   2.870   2.120   7.415 -0.6388 -0.4412 -0.3144
   42CHL1   C10 3073   2.745   2.211   7.251 -0.1753 -0.4070 -0.4375
   42CHL1   C19 3074   2.707   2.353   7.202  0.1011  0.7789  0.0804
   42CHL1  H19A 3075   2.635   2.398   7.274 -0.4999  0.4265 -0.2841
   42CHL1  H19B 3076   2.793   2.418   7.175 -0.4292  0.8191 -1.6488
   42CHL1  H19C 3077   2.655   2.350   7.103  2.4846 -1.6252 -1.2232
   42CHL1    C1 3078   2.830   2.145   7.137 -0.2646  0.7985 -0.3345
   42CHL1   H1A 3079   2.921   2.203   7.110 -1.2360  1.7561 -1.6562
   42CHL1   H1B 3080   2.854   2.042   7.170 -0.1901  0.4280 -1.4907
   42CHL1    C2 3081   2.743   2.107   7.009  0.2955  0.2493 -0.5377
   42CHL1   H2A 3082   2.803   2.059   6.929  0.9106 -1.7028  0.9959
   42CHL1   H2B 3083   2.712   2.205   6.966  1.9416  0.7445 -0.6740
   42CHL1   C20 3084   3.055   2.470   7.831  0.2510  0.7612  0.8791
   42CHL1   H20 3085   3.028   2.575   7.803  1.3693  1.3485  1.9134
   42CHL1   C21 3086   3.201   2.472   7.768  0.4106 -0.1227 -0.3717
   42CHL1  H21A 3087   3.272   2.528   7.833 -0.2824 -1.1703  1.3506
   42CHL1  H21B 3088   3.194   2.522   7.669 -0.1693  1.2148  0.3172
   42CHL1  H21C 3089   3.232   2.366   7.756 -3.0845 -1.3783  0.5811
   42CHL1   C22 3090   3.071   2.476   7.991 -0.2647  0.7798 -0.5462
   42CHL1  H22A 3091   3.096   2.580   8.021  2.4417  0.3070 -0.8959
   42CHL1  H22B 3092   2.972   2.453   8.038  0.6451 -1.9495  0.2200
   42CHL1   C23 3093   3.172   2.368   8.041  0.0929  0.2524 -0.4079
   42CHL1  H23A 3094   3.146   2.278   7.981  1.8302 -0.7924  0.3172
   42CHL1  H23B 3095   3.276   2.396   8.012  0.5225 -0.5707  0.2938
   42CHL1   C24 3096   3.164   2.342   8.193  0.7022 -0.1929 -0.2820
   42CHL1  H24A 3097   3.212   2.420   8.257  0.0281 -0.5947  0.7299
   42CHL1  H24B 3098   3.060   2.333   8.230  1.1039 -0.3056  0.8568
   42CHL1   C25 3099   3.226   2.207   8.242 -0.4461 -0.1675  0.1267
   42CHL1   H25 3100   3.332   2.203   8.212 -0.0692 -1.7793  1.4944
   42CHL1   C26 3101   3.215   2.196   8.397 -0.5026 -0.3302  0.2910
   42CHL1  H26A 3102   3.244   2.287   8.453 -0.1020  0.0242 -0.4722
   42CHL1  H26B 3103   3.108   2.185   8.424 -0.7965 -1.1355 -1.0982
   42CHL1  H26C 3104   3.267   2.104   8.431  0.9384 -0.5153 -2.1886
   42CHL1   C27 3105   3.161   2.080   8.190  0.2173 -0.0960 -0.3579
   42CHL1  H27A 3106   3.055   2.079   8.223  0.3693  2.4117  0.4212
   42CHL1  H27B 3107   3.212   1.993   8.239  0.3388 -0.2413 -0.7424
   42CHL1  H27C 3108   3.174   2.082   8.080 -1.2209 -1.0217 -0.5732
   43CHL1    C3 3109   2.173   0.067   6.981 -0.9169 -0.7514 -0.9561
   43CHL1    H3 3110   2.234  -0.020   7.014 -1.7702 -1.3092 -0.8075
   43CHL1    O3 3111   2.189   0.075   6.845 -0.5937  0.3307  1.0084
   43CHL1   H3' 3112   2.275   0.112   6.823 -1.8400  2.5969 -0.4719
   43CHL1    C4 3113   2.026   0.060   7.027 -0.2736  0.7326  0.4607
   43CHL1   H4A 3114   1.976   0.148   6.980  0.3817 -0.3724 -2.5409
   43CHL1   H4B 3115   1.983  -0.029   6.976  1.5559 -0.7397  1.3897
   43CHL1    C5 3116   2.023   0.048   7.181  0.4175 -0.4945 -0.3673
   43CHL1    C6 3117   1.971  -0.065   7.233 -0.2974 -0.0813 -1.0686
   43CHL1    H6 3118   1.923  -0.144   7.173 -1.3493  0.0404 -0.4151
   43CHL1    C7 3119   1.948  -0.099   7.378 -0.1472  0.0857  0.5798
   43CHL1   H7A 3120   1.840  -0.106   7.404  0.1983 -1.1665  1.8221
   43CHL1   H7B 3121   1.991  -0.198   7.406  0.2467 -0.4951 -1.8310
   43CHL1    C8 3122   2.006   0.011   7.472  0.0322  0.1162 -0.2992
   43CHL1    H8 3123   1.916   0.076   7.479 -0.6134 -0.2769 -3.3770
   43CHL1   C14 3124   2.044  -0.032   7.609 -0.4446 -0.1387  0.2471
   43CHL1   H14 3125   2.143  -0.082   7.596  0.4001  1.7850 -1.2766
   43CHL1   C15 3126   1.940  -0.120   7.676  0.2086  0.0038 -0.3489
   43CHL1  H15A 3127   1.833  -0.117   7.645 -0.6027  0.1461  2.2916
   43CHL1  H15B 3128   1.975  -0.225   7.681 -2.6995 -1.1816 -2.2156
   43CHL1   C16 3129   1.953  -0.085   7.826  0.2183 -0.2276  0.3477
   43CHL1  H16A 3130   1.869  -0.024   7.862 -0.3224 -1.0970  0.5865
   43CHL1  H16B 3131   1.959  -0.179   7.884  1.6651  0.2968  1.1070
   43CHL1   C17 3132   2.084   0.000   7.841  0.1681 -0.3464 -0.7728
   43CHL1   H17 3133   2.171  -0.068   7.834  1.0106  0.7658 -1.3837
   43CHL1   C13 3134   2.078   0.079   7.709 -0.0974  0.3822  0.9475
   43CHL1   C18 3135   1.965   0.191   7.727 -0.8320  0.0412 -0.7293
   43CHL1  H18A 3136   1.952   0.244   7.631  0.6079 -1.0939 -1.5971
   43CHL1  H18B 3137   1.864   0.150   7.745 -0.9216  0.1562 -0.9744
   43CHL1  H18C 3138   2.000   0.266   7.801 -2.5178  0.4457 -0.3070
   43CHL1   C12 3139   2.207   0.151   7.660  0.2881  0.9065 -0.2170
   43CHL1  H12A 3140   2.227   0.236   7.728 -0.7783  0.6009  0.5007
   43CHL1  H12B 3141   2.289   0.077   7.644  2.1422  2.5003  1.4306
   43CHL1   C11 3142   2.183   0.204   7.512  0.4701  1.0623 -0.4509
   43CHL1  H11A 3143   2.109   0.286   7.525 -0.3782  0.2623 -0.2271
   43CHL1  H11B 3144   2.278   0.249   7.475  0.9071  0.6266  0.1320
   43CHL1    C9 3145   2.126   0.093   7.417  0.2358 -0.3462  0.9354
   43CHL1    H9 3146   2.205   0.015   7.413  0.5853  0.0264 -2.4181
   43CHL1   C10 3147   2.096   0.148   7.272 -0.2995  0.0395  0.2967
   43CHL1   C19 3148   2.006   0.271   7.279 -0.4848 -1.0014 -0.3628
   43CHL1  H19A 3149   1.899   0.248   7.299 -0.6293 -0.6072 -0.6644
   43CHL1  H19B 3150   2.045   0.359   7.335  2.5991 -2.3461 -0.2215
   43CHL1  H19C 3151   1.997   0.318   7.179 -0.5421  1.5948  0.7772
   43CHL1    C1 3152   2.236   0.176   7.203 -0.3020  0.4811 -0.1806
   43CHL1   H1A 3153   2.280   0.265   7.254  0.7654  0.0418 -0.3020
   43CHL1   H1B 3154   2.306   0.097   7.237  1.2326  1.7930 -0.1581
   43CHL1    C2 3155   2.236   0.187   7.054 -0.1482 -0.0420 -0.6343
   43CHL1   H2A 3156   2.338   0.199   7.012 -0.5616 -2.1580 -2.4102
   43CHL1   H2B 3157   2.181   0.276   7.016 -5.0067 -2.2105  0.5045
   43CHL1   C20 3158   2.091   0.075   7.978 -0.4014  0.1428 -0.2586
   43CHL1   H20 3159   2.014   0.155   7.984  0.5440  1.0501 -0.0394
   43CHL1   C21 3160   2.225   0.147   7.995 -0.0245 -0.2118 -0.1557
   43CHL1  H21A 3161   2.219   0.234   7.925  0.6614 -0.0920 -0.0671
   43CHL1  H21B 3162   2.308   0.077   7.973  0.2550 -0.0206  0.2792
   43CHL1  H21C 3163   2.236   0.183   8.099 -0.8620 -1.2054  0.2965
   43CHL1   C22 3164   2.069  -0.016   8.098 -0.7534  0.3450  0.1560
   43CHL1  H22A 3165   2.120  -0.112   8.072 -0.2368  1.0112 -1.4036
   43CHL1  H22B 3166   2.132   0.022   8.182  1.3031 -1.3362 -0.5221
   43CHL1   C23 3167   1.923  -0.041   8.143 -0.9454  0.8810 -0.2048
   43CHL1  H23A 3168   1.881   0.057   8.173  0.8522  1.3739  0.8271
   43CHL1  H23B 3169   1.858  -0.083   8.063 -0.0428 -0.9157 -0.0480
   43CHL1   C24 3170   1.912  -0.132   8.265  0.1899  0.5091 -0.3366
   43CHL1  H24A 3171   1.807  -0.148   8.299  0.6544 -1.0874  0.4508
   43CHL1  H24B 3172   1.935  -0.233   8.223 -2.3997 -0.1506 -0.3725
   43CHL1   C25 3173   1.997  -0.105   8.393 -0.3538 -0.0231  0.3578
   43CHL1   H25 3174   2.101  -0.117   8.358 -0.6886 -1.3686 -0.2363
   43CHL1   C26 3175   1.972   0.037   8.450  0.5542  0.4313 -0.1179
   43CHL1  H26A 3176   1.869   0.042   8.492  0.7788  0.2943  0.4533
   43CHL1  H26B 3177   2.029   0.047   8.544 -0.0409  0.1976  0.2714
   43CHL1  H26C 3178   1.989   0.116   8.373 -0.7892 -1.4206 -2.4624
   43CHL1   C27 3179   1.970  -0.206   8.495  0.1326 -0.1401 -0.9821
   43CHL1  H27A 3180   2.042  -0.212   8.580 -3.1280  0.0695  2.0055
   43CHL1  H27B 3181   1.877  -0.186   8.551  0.1322 -0.7975 -0.7318
   43CHL1  H27C 3182   1.964  -0.307   8.449  0.3606  0.3420 -2.1026
   44CHL1    C3 3183   1.516   5.306   6.635  0.1884 -0.8239  0.5910
   44CHL1    H3 3184   1.617   5.265   6.656 -0.0848 -2.1037 -0.4583
   44CHL1    O3 3185   1.518   5.348   6.498 -0.1017 -0.2341 -0.1924
   44CHL1   H3' 3186   1.486   5.275   6.445  1.0651 -1.2057  0.3876
   44CHL1    C4 3187   1.407   5.197   6.667 -0.0602  0.0287  0.2620
   44CHL1   H4A 3188   1.307   5.234   6.636 -0.2386 -0.5417  0.1353
   44CHL1   H4B 3189   1.439   5.112   6.602 -1.5834 -0.2025 -0.2205
   44CHL1    C5 3190   1.419   5.156   6.811 -0.9691 -0.4089 -0.7268
   44CHL1    C6 3191   1.453   5.037   6.855  0.1532  0.2710  0.0871
   44CHL1    H6 3192   1.480   4.959   6.782  2.0590  0.9930 -0.0325
   44CHL1    C7 3193   1.464   4.988   6.997 -0.3165  0.1415  0.0495
   44CHL1   H7A 3194   1.410   4.891   7.004  0.8645 -0.6010 -0.7063
   44CHL1   H7B 3195   1.564   4.947   7.023 -0.7247  0.1821  1.7864
   44CHL1    C8 3196   1.410   5.086   7.100 -0.0227  0.0897 -0.9245
   44CHL1    H8 3197   1.299   5.087   7.100 -0.0501  0.0631  0.4680
   44CHL1   C14 3198   1.442   5.051   7.247  0.7992 -0.2264  0.3293
   44CHL1   H14 3199   1.550   5.074   7.252  1.1106 -1.8835  3.1156
   44CHL1   C15 3200   1.431   4.901   7.294 -0.6383  0.1671 -0.4181
   44CHL1  H15A 3201   1.332   4.858   7.270 -0.5476  0.8545 -2.1417
   44CHL1  H15B 3202   1.509   4.834   7.252 -0.5664 -0.4781  0.6966
   44CHL1   C16 3203   1.445   4.917   7.448  0.3909  0.7470 -0.1469
   44CHL1  H16A 3204   1.358   4.866   7.495  2.1366 -1.6420  0.6622
   44CHL1  H16B 3205   1.535   4.864   7.485 -0.6934  0.6195  2.5356
   44CHL1   C17 3206   1.454   5.063   7.479 -0.6849  0.9264  0.5854
   44CHL1   H17 3207   1.562   5.090   7.473 -0.5487  0.0771 -1.6542
   44CHL1   C13 3208   1.388   5.138   7.356  0.5702 -0.2917  0.1914
   44CHL1   C18 3209   1.236   5.127   7.368 -0.4423  0.7286  0.3271
   44CHL1  H18A 3210   1.192   5.161   7.464 -0.2681  1.4295  0.1626
   44CHL1  H18B 3211   1.184   5.184   7.287  1.3692 -1.5866 -2.7128
   44CHL1  H18C 3212   1.208   5.020   7.368 -1.4333  0.9732 -0.3723
   44CHL1   C12 3213   1.442   5.285   7.327  0.4768 -0.4719 -0.0600
   44CHL1  H12A 3214   1.402   5.357   7.401  1.6126  1.2660 -1.0525
   44CHL1  H12B 3215   1.553   5.285   7.337  0.7834  0.5742 -2.6525
   44CHL1   C11 3216   1.408   5.322   7.182  0.9269  0.2557  0.1586
   44CHL1  H11A 3217   1.297   5.326   7.174  1.0634  0.2578 -3.1004
   44CHL1  H11B 3218   1.441   5.426   7.164  0.2800  0.7729  1.7589
   44CHL1    C9 3219   1.453   5.226   7.069  0.3000 -0.7399 -0.3687
   44CHL1    H9 3220   1.563   5.243   7.061  0.1076  1.2992  0.7937
   44CHL1   C10 3221   1.410   5.270   6.924  0.3626  0.8134 -0.0273
   44CHL1   C19 3222   1.262   5.315   6.925 -0.5902  0.3895  0.1850
   44CHL1  H19A 3223   1.242   5.399   6.994 -2.1804 -1.6296  2.3430
   44CHL1  H19B 3224   1.235   5.361   6.827 -0.8483  1.0905  0.5782
   44CHL1  H19C 3225   1.196   5.230   6.952 -0.7341  1.0875  2.1693
   44CHL1    C1 3226   1.496   5.389   6.874 -0.4859  0.6120 -0.1121
   44CHL1   H1A 3227   1.458   5.477   6.930 -1.5178 -0.1470  0.4170
   44CHL1   H1B 3228   1.604   5.364   6.887 -0.3137 -1.1500 -3.6618
   44CHL1    C2 3229   1.489   5.433   6.729 -0.2229  0.2581 -0.2058
   44CHL1   H2A 3230   1.561   5.506   6.687  0.6094 -1.0511 -1.1202
   44CHL1   H2B 3231   1.384   5.463   6.710 -0.4538 -1.5254 -1.9957
   44CHL1   C20 3232   1.406   5.096   7.619 -0.3114  0.5162 -0.0074
   44CHL1   H20 3233   1.296   5.085   7.615 -0.2425  0.2094 -1.3210
   44CHL1   C21 3234   1.445   5.239   7.650  0.4669  0.1831 -0.1605
   44CHL1  H21A 3235   1.425   5.272   7.754 -1.1463  0.0388 -0.4041
   44CHL1  H21B 3236   1.388   5.307   7.583 -1.2563  0.4042  1.4629
   44CHL1  H21C 3237   1.552   5.256   7.627  0.1076  1.2270 -1.1855
   44CHL1   C22 3238   1.468   5.005   7.727 -0.2092  0.3221 -0.3714
   44CHL1  H22A 3239   1.435   4.899   7.719  0.3986  0.1987 -1.4270
   44CHL1  H22B 3240   1.579   5.007   7.720 -0.2465  2.9193 -1.0764
   44CHL1   C23 3241   1.425   5.045   7.877  0.2403 -0.2662 -0.3770
   44CHL1  H23A 3242   1.470   5.140   7.913 -0.1563 -0.3606  0.3921
   44CHL1  H23B 3243   1.314   5.052   7.872  0.2888  0.6366 -0.3568
   44CHL1   C24 3244   1.475   4.933   7.971  0.6885  0.1838 -0.4451
   44CHL1  H24A 3245   1.411   4.843   7.960  1.0417 -0.3780  1.7066
   44CHL1  H24B 3246   1.577   4.906   7.937  1.6790  1.1745  1.5685
   44CHL1   C25 3247   1.459   4.976   8.118  0.0751  0.1736  0.0269
   44CHL1   H25 3248   1.361   5.024   8.138  0.7789  0.8433  2.1617
   44CHL1   C26 3249   1.479   4.850   8.208  0.7739 -0.2545 -0.3196
   44CHL1  H26A 3250   1.400   4.778   8.180  1.4299 -1.7989  1.5490
   44CHL1  H26B 3251   1.574   4.792   8.200 -0.5023 -2.7300  1.3392
   44CHL1  H26C 3252   1.469   4.886   8.313  2.5960  0.7510 -0.4418
   44CHL1   C27 3253   1.569   5.083   8.143 -0.5365 -1.2998  0.7805
   44CHL1  H27A 3254   1.672   5.058   8.111 -0.7146 -0.6758 -0.3480
   44CHL1  H27B 3255   1.548   5.180   8.092  0.0595 -2.4297 -1.7772
   44CHL1  H27C 3256   1.586   5.108   8.250  0.3628 -2.4028  0.9058
   45CHL1    C3 3257   1.939   4.020   6.963 -0.9997  0.0145 -0.6431
   45CHL1    H3 3258   1.831   4.030   6.985 -1.4170 -0.5791 -2.2939
   45CHL1    O3 3259   1.963   4.056   6.824 -0.1595  0.1307  0.2046
   45CHL1   H3' 3260   2.058   4.056   6.817 -0.2108  1.4562 -1.0103
   45CHL1    C4 3261   2.018   4.120   7.048 -0.5218 -0.6254 -0.0316
   45CHL1   H4A 3262   2.121   4.134   7.010 -0.4986  1.6738  0.7407
   45CHL1   H4B 3263   1.980   4.224   7.036 -0.0587 -0.4753 -0.1872
   45CHL1    C5 3264   2.025   4.071   7.192 -0.2609  0.0954 -0.4278
   45CHL1    C6 3265   1.991   4.148   7.295  0.1338  0.0920  0.1139
   45CHL1    H6 3266   1.957   4.251   7.276  3.5804  1.4276  0.4485
   45CHL1    C7 3267   1.998   4.108   7.439 -0.4074 -0.5097  0.8719
   45CHL1   H7A 3268   2.039   4.194   7.497  1.4937 -2.0629  1.9655
   45CHL1   H7B 3269   1.898   4.081   7.479 -0.2649  0.2650  1.7862
   45CHL1    C8 3270   2.108   4.001   7.458 -0.3098  0.3699 -0.2777
   45CHL1    H8 3271   2.199   4.054   7.422 -1.6768  0.4538 -4.1151
   45CHL1   C14 3272   2.116   3.948   7.600 -0.4985 -0.1700  0.0414
   45CHL1   H14 3273   2.024   3.887   7.612  0.8190 -1.8180  2.5829
   45CHL1   C15 3274   2.113   4.047   7.721  0.6373 -0.6539  0.1493
   45CHL1  H15A 3275   2.164   4.143   7.699 -1.6587  0.1510 -2.2961
   45CHL1  H15B 3276   2.013   4.088   7.745  0.8992 -0.4389  0.8791
   45CHL1   C16 3277   2.173   3.981   7.833  0.2477 -0.6173 -0.5745
   45CHL1  H16A 3278   2.257   4.041   7.873 -1.4615  1.5835 -0.0706
   45CHL1  H16B 3279   2.099   3.963   7.915  0.5157 -2.1106 -0.6292
   45CHL1   C17 3280   2.208   3.842   7.785 -0.5457 -0.2146  0.2024
   45CHL1   H17 3281   2.119   3.779   7.809 -0.7713  0.2268  0.5398
   45CHL1   C13 3282   2.228   3.851   7.629  0.3831  0.3725  0.1505
   45CHL1   C18 3283   2.365   3.911   7.596 -0.1183 -0.5017  0.4730
   45CHL1  H18A 3284   2.445   3.835   7.615  2.4634  1.9757  0.1445
   45CHL1  H18B 3285   2.370   3.935   7.488 -1.1083 -2.8623 -0.1682
   45CHL1  H18C 3286   2.385   4.004   7.654 -2.1103  0.3656 -0.1542
   45CHL1   C12 3287   2.201   3.718   7.546  1.1357 -0.3421 -0.0333
   45CHL1  H12A 3288   2.275   3.636   7.553 -0.2383 -1.8585 -2.0185
   45CHL1  H12B 3289   2.106   3.675   7.584 -0.1951  1.3249 -1.2934
   45CHL1   C11 3290   2.191   3.764   7.395 -0.5113 -0.7263  0.5584
   45CHL1  H11A 3291   2.294   3.791   7.365 -0.4618  0.2099  1.5453
   45CHL1  H11B 3292   2.161   3.677   7.332 -0.9075 -0.3364  0.1988
   45CHL1    C9 3293   2.092   3.882   7.367  0.0446 -0.4317 -0.1850
   45CHL1    H9 3294   1.992   3.837   7.385  0.7985 -1.6537  1.1654
   45CHL1   C10 3295   2.094   3.924   7.212  0.0631  0.1061  0.6249
   45CHL1   C19 3296   2.238   3.941   7.164  0.1495 -0.5419  0.3958
   45CHL1  H19A 3297   2.292   3.844   7.168 -1.0843 -1.2514  0.0970
   45CHL1  H19B 3298   2.249   3.961   7.055  1.5190 -0.1397  0.5883
   45CHL1  H19C 3299   2.301   4.021   7.210 -0.9658  0.5970 -0.0132
   45CHL1    C1 3300   2.007   3.832   7.127 -0.1300 -0.2327 -0.3365
   45CHL1   H1A 3301   2.072   3.743   7.118  2.1251  1.3976 -1.2676
   45CHL1   H1B 3302   1.907   3.816   7.172  0.4312 -2.3926  0.2630
   45CHL1    C2 3303   1.992   3.878   6.977  0.8310 -0.1673  0.1144
   45CHL1   H2A 3304   1.925   3.802   6.931 -0.8472  1.3922 -0.1044
   45CHL1   H2B 3305   2.089   3.860   6.926  1.2126 -1.4761  1.2331
   45CHL1   C20 3306   2.329   3.789   7.871  1.1368 -0.8122  0.8968
   45CHL1   H20 3307   2.419   3.845   7.838  0.9530 -0.8820  0.2627
   45CHL1   C21 3308   2.354   3.641   7.836 -0.1032 -1.2597 -1.4926
   45CHL1  H21A 3309   2.401   3.632   7.736  1.7515  1.8160 -1.0095
   45CHL1  H21B 3310   2.265   3.575   7.844  0.4915 -1.8841  0.7154
   45CHL1  H21C 3311   2.425   3.600   7.910 -3.6201 -1.9335  1.8425
   45CHL1   C22 3312   2.310   3.810   8.022  0.8371  0.0562 -0.0692
   45CHL1  H22A 3313   2.399   3.769   8.074 -0.3039  0.0526  2.0298
   45CHL1  H22B 3314   2.304   3.919   8.042  0.9832 -0.0155  0.3823
   45CHL1   C23 3315   2.191   3.727   8.075 -0.6091  0.4930 -0.5249
   45CHL1  H23A 3316   2.096   3.772   8.038 -0.5781 -0.2322 -1.5064
   45CHL1  H23B 3317   2.196   3.622   8.042  2.5609  0.9649 -1.8975
   45CHL1   C24 3318   2.187   3.750   8.223  0.3264 -0.1786 -0.3778
   45CHL1  H24A 3319   2.271   3.694   8.268  0.0390  1.6215  2.6843
   45CHL1  H24B 3320   2.198   3.856   8.256  0.8957 -0.3224 -0.1031
   45CHL1   C25 3321   2.064   3.682   8.274  0.0879  0.0299  0.0287
   45CHL1   H25 3322   2.046   3.593   8.209 -0.8843  1.1520 -1.3099
   45CHL1   C26 3323   2.075   3.650   8.427 -0.0061 -0.9304 -0.3580
   45CHL1  H26A 3324   2.100   3.748   8.475  1.7602 -0.1984 -2.5708
   45CHL1  H26B 3325   1.975   3.618   8.464 -0.1207 -0.2157 -0.0264
   45CHL1  H26C 3326   2.151   3.574   8.455 -0.9499 -2.2171 -1.2005
   45CHL1   C27 3327   1.942   3.772   8.251  0.3685 -0.6107  0.0566
   45CHL1  H27A 3328   1.967   3.876   8.282  1.1108 -0.0617 -2.1945
   45CHL1  H27B 3329   1.921   3.787   8.143 -3.5171  1.9492  0.9591
   45CHL1  H27C 3330   1.852   3.719   8.290  2.0173 -3.4525  0.2547
   46CHL1    C3 3331   1.756   4.670   7.132 -0.2033 -0.2872 -0.4757
   46CHL1    H3 3332   1.649   4.700   7.138 -0.1086 -0.1349  0.4922
   46CHL1    O3 3333   1.803   4.687   7.000 -0.2023 -0.1831  0.2519
   46CHL1   H3' 3334   1.741   4.636   6.947 -0.7901 -0.7847  1.4645
   46CHL1    C4 3335   1.841   4.764   7.222  0.3191  0.5395 -0.0906
   46CHL1   H4A 3336   1.949   4.757   7.198  0.3633  0.9537 -0.0247
   46CHL1   H4B 3337   1.815   4.865   7.185 -1.9631  0.5612  1.3669
   46CHL1    C5 3338   1.837   4.744   7.370  0.6188  0.5213 -0.0022
   46CHL1    C6 3339   1.816   4.833   7.468  0.6924  0.4076 -0.0420
   46CHL1    H6 3340   1.786   4.934   7.434 -0.9679  0.3122  1.0119
   46CHL1    C7 3341   1.812   4.809   7.613 -0.3816  0.9145 -0.5352
   46CHL1   H7A 3342   1.873   4.888   7.660  3.6009 -1.0571 -1.9527
   46CHL1   H7B 3343   1.703   4.814   7.637 -0.2344  2.2876 -0.0577
   46CHL1    C8 3344   1.859   4.670   7.659 -0.5706  0.0756  0.2479
   46CHL1    H8 3345   1.967   4.678   7.638 -1.0303  1.9447 -1.7235
   46CHL1   C14 3346   1.827   4.639   7.802  0.8884  0.1719  0.1308
   46CHL1   H14 3347   1.717   4.647   7.813  0.8535 -1.5560  1.4881
   46CHL1   C15 3348   1.877   4.751   7.901  0.2472  0.0651 -0.9415
   46CHL1  H15A 3349   1.985   4.770   7.881  1.1401 -0.1364  2.9253
   46CHL1  H15B 3350   1.818   4.844   7.894 -1.3208 -0.5973  2.0895
   46CHL1   C16 3351   1.852   4.677   8.040 -0.0421  0.6291  0.4240
   46CHL1  H16A 3352   1.935   4.675   8.114 -1.6988  1.7011  2.3991
   46CHL1  H16B 3353   1.773   4.736   8.092  1.4375  1.0371  2.3206
   46CHL1   C17 3354   1.816   4.525   8.000 -0.4265  0.1618 -0.2189
   46CHL1   H17 3355   1.706   4.507   7.998 -0.2238 -1.0833 -0.7811
   46CHL1   C13 3356   1.867   4.502   7.855  0.4213  0.6179 -0.0302
   46CHL1   C18 3357   2.013   4.490   7.864  0.0367  0.1687  0.2480
   46CHL1  H18A 3358   2.045   4.387   7.892 -1.0014 -0.0741  0.5662
   46CHL1  H18B 3359   2.046   4.496   7.759  1.0421 -2.8574  0.2819
   46CHL1  H18C 3360   2.066   4.569   7.922  1.3851 -1.8087  1.8937
   46CHL1   C12 3361   1.798   4.396   7.759  0.3805  0.5847 -0.2987
   46CHL1  H12A 3362   1.822   4.293   7.792 -2.4713 -0.0005  0.2020
   46CHL1  H12B 3363   1.689   4.406   7.775  0.1134 -2.2353  0.0503
   46CHL1   C11 3364   1.836   4.416   7.611 -0.2683  0.3682 -1.0466
   46CHL1  H11A 3365   1.945   4.394   7.603  0.1339  1.2506  1.2644
   46CHL1  H11B 3366   1.783   4.340   7.549 -1.2303 -0.5696  0.8599
   46CHL1    C9 3367   1.805   4.558   7.564  0.1653 -1.2064  0.8133
   46CHL1    H9 3368   1.694   4.568   7.561  0.2748 -0.1353 -0.5027
   46CHL1   C10 3369   1.850   4.590   7.416 -0.4509  0.3557 -0.2822
   46CHL1   C19 3370   1.983   4.522   7.386 -0.4842 -0.3818  0.8409
   46CHL1  H19A 3371   2.001   4.554   7.281 -0.6088 -0.5345  0.7745
   46CHL1  H19B 3372   2.055   4.573   7.455 -0.5835  1.1149 -0.1034
   46CHL1  H19C 3373   1.991   4.412   7.384  0.4829 -0.3244  0.9755
   46CHL1    C1 3374   1.745   4.509   7.333  0.0725 -0.3539  0.2706
   46CHL1   H1A 3375   1.741   4.400   7.351  0.7219 -0.4219  0.0360
   46CHL1   H1B 3376   1.641   4.546   7.346 -0.3488 -1.0944 -0.8326
   46CHL1    C2 3377   1.760   4.525   7.175 -0.0672  0.3918  0.0516
   46CHL1   H2A 3378   1.679   4.470   7.123 -1.4076  0.5350  1.8742
   46CHL1   H2B 3379   1.861   4.481   7.159  0.3558  0.5389  2.0402
   46CHL1   C20 3380   1.854   4.425   8.114  1.2609 -0.0792 -0.0860
   46CHL1   H20 3381   1.965   4.420   8.120  1.3382 -0.2915 -1.3619
   46CHL1   C21 3382   1.820   4.284   8.076  0.6014  0.2378 -0.0829
   46CHL1  H21A 3383   1.859   4.217   8.156  2.2693 -0.6114 -1.5346
   46CHL1  H21B 3384   1.878   4.242   7.991  1.0444 -1.4603  1.0055
   46CHL1  H21C 3385   1.711   4.263   8.072  0.0118  3.1124 -3.2155
   46CHL1   C22 3386   1.796   4.461   8.253  0.3355  0.0846 -0.1984
   46CHL1  H22A 3387   1.826   4.387   8.331 -2.5378  0.9910  1.9576
   46CHL1  H22B 3388   1.827   4.558   8.298  0.2183  0.8310 -1.6742
   46CHL1   C23 3389   1.639   4.459   8.268 -0.4259  0.5152 -0.8046
   46CHL1  H23A 3390   1.597   4.542   8.208 -0.3592  2.2560  1.4452
   46CHL1  H23B 3391   1.620   4.355   8.234  1.0926 -0.0566 -0.0128
   46CHL1   C24 3392   1.594   4.484   8.416  0.6513 -0.0898 -0.7487
   46CHL1  H24A 3393   1.620   4.397   8.480 -1.0740  0.3737  0.6614
   46CHL1  H24B 3394   1.650   4.574   8.449  2.6198 -0.6101 -2.4398
   46CHL1   C25 3395   1.441   4.510   8.435 -0.8688  0.0988  0.2968
   46CHL1   H25 3396   1.396   4.529   8.335 -2.1431 -1.4286  0.5270
   46CHL1   C26 3397   1.373   4.380   8.493 -0.1843 -1.2287 -0.3493
   46CHL1  H26A 3398   1.266   4.403   8.477  0.1669  3.7649  2.2454
   46CHL1  H26B 3399   1.401   4.288   8.437 -0.8051 -1.2958 -0.5462
   46CHL1  H26C 3400   1.387   4.372   8.603 -1.0823 -1.2951 -0.2333
   46CHL1   C27 3401   1.409   4.634   8.525 -1.0321 -0.2871  1.0382
   46CHL1  H27A 3402   1.450   4.602   8.623  1.8942  0.3559  0.1411
   46CHL1  H27B 3403   1.465   4.721   8.481 -0.4422 -0.9404  0.4640
   46CHL1  H27C 3404   1.303   4.661   8.509 -0.5822  0.7359 -0.5581
   47CHL1    C3 3405   1.403   3.912   6.921 -0.3967  0.4279  0.7091
   47CHL1    H3 3406   1.342   3.826   6.955 -0.4257 -0.9583 -2.4726
   47CHL1    O3 3407   1.386   3.934   6.777 -0.3189  0.3349  0.3962
   47CHL1   H3' 3408   1.294   3.954   6.760 -0.1817  0.5827 -0.0860
   47CHL1    C4 3409   1.352   4.035   7.002 -0.0837 -0.3336 -0.0074
   47CHL1   H4A 3410   1.398   4.126   6.958 -0.1202 -0.8087 -1.0661
   47CHL1   H4B 3411   1.246   4.052   6.974  0.5683  0.8598 -1.9304
   47CHL1    C5 3412   1.375   4.021   7.145 -0.5550 -0.2083  0.7618
   47CHL1    C6 3413   1.267   4.029   7.223  0.5764 -0.2238 -0.2421
   47CHL1    H6 3414   1.169   4.039   7.174  0.5666 -1.5275 -0.5447
   47CHL1    C7 3415   1.262   4.018   7.373 -0.1844 -0.1491  0.5177
   47CHL1   H7A 3416   1.209   4.101   7.424 -0.3326  0.5612 -0.7409
   47CHL1   H7B 3417   1.217   3.921   7.403  0.2845 -0.8459 -0.9221
   47CHL1    C8 3418   1.408   4.026   7.422 -0.4463  0.1173 -0.7195
   47CHL1    H8 3419   1.427   4.135   7.433 -0.8171 -0.0655  2.8730
   47CHL1   C14 3420   1.413   3.970   7.570 -0.4996  0.5275  0.2266
   47CHL1   H14 3421   1.377   3.866   7.556 -0.8637  0.8717 -1.8213
   47CHL1   C15 3422   1.320   4.038   7.669 -0.4650 -0.5273  0.0092
   47CHL1  H15A 3423   1.327   4.148   7.654 -2.4573 -0.4118 -0.3495
   47CHL1  H15B 3424   1.213   4.010   7.659 -1.4180  2.7006  0.1006
   47CHL1   C16 3425   1.377   4.003   7.805 -0.0698  0.1605  0.1885
   47CHL1  H16A 3426   1.404   4.091   7.866 -1.6748  1.1295 -0.4618
   47CHL1  H16B 3427   1.297   3.942   7.853  1.7680 -1.5396  1.2558
   47CHL1   C17 3428   1.510   3.926   7.785  0.9305  0.4453  1.0937
   47CHL1   H17 3429   1.484   3.818   7.783 -2.1680  1.1137 -0.3534
   47CHL1   C13 3430   1.553   3.966   7.645  0.4679 -0.3056  0.1192
   47CHL1   C18 3431   1.607   4.110   7.659 -0.1780  0.0683 -0.8630
   47CHL1  H18A 3432   1.621   4.166   7.564  1.1152  2.2886  0.5351
   47CHL1  H18B 3433   1.561   4.177   7.735  1.6345 -2.7157  3.0416
   47CHL1  H18C 3434   1.710   4.101   7.700 -0.7813  0.2489  0.7993
   47CHL1   C12 3435   1.644   3.881   7.548 -0.0691 -0.5055 -0.1053
   47CHL1  H12A 3436   1.742   3.868   7.600  0.1268  0.1835 -0.2885
   47CHL1  H12B 3437   1.591   3.785   7.538  0.6663 -0.8020 -1.4140
   47CHL1   C11 3438   1.655   3.941   7.407  0.0982 -0.4713  0.0691
   47CHL1  H11A 3439   1.707   4.039   7.409  1.3399 -1.0337 -1.9146
   47CHL1  H11B 3440   1.710   3.867   7.345  0.9768  0.2911 -0.0840
   47CHL1    C9 3441   1.515   3.947   7.345  0.8232 -0.3782  0.7066
   47CHL1    H9 3442   1.470   3.846   7.342 -0.8618  0.3504 -1.8305
   47CHL1   C10 3443   1.512   3.987   7.196 -0.1093 -0.0142  0.2672
   47CHL1   C19 3444   1.594   4.124   7.181 -0.5621 -0.0194 -0.2142
   47CHL1  H19A 3445   1.567   4.201   7.256  0.4915 -0.9582  1.1809
   47CHL1  H19B 3446   1.700   4.094   7.199 -0.3641  0.6361 -0.2700
   47CHL1  H19C 3447   1.606   4.157   7.075 -0.4960 -1.2913 -0.6197
   47CHL1    C1 3448   1.570   3.871   7.106 -0.4221  0.1195  0.5360
   47CHL1   H1A 3449   1.679   3.857   7.118 -0.0602  1.6082 -0.7443
   47CHL1   H1B 3450   1.523   3.774   7.132  2.1832 -1.0188  1.2566
   47CHL1    C2 3451   1.549   3.889   6.952 -0.2501 -0.3312 -0.0430
   47CHL1   H2A 3452   1.595   3.800   6.902 -0.2604  0.1746 -0.9858
   47CHL1   H2B 3453   1.612   3.972   6.913 -2.0526  2.2414  2.1949
   47CHL1   C20 3454   1.606   3.938   7.903  0.3251 -0.0881  0.5420
   47CHL1   H20 3455   1.640   4.044   7.908  2.8106 -0.8090  0.3008
   47CHL1   C21 3456   1.732   3.857   7.882  0.1756 -0.3104  0.0016
   47CHL1  H21A 3457   1.710   3.797   7.791 -0.4094  0.9259 -0.7038
   47CHL1  H21B 3458   1.754   3.796   7.972  0.4350 -0.3361 -0.0791
   47CHL1  H21C 3459   1.815   3.928   7.858 -0.8461  0.4644 -1.4391
   47CHL1   C22 3460   1.536   3.905   8.033 -0.8287  0.3083  0.3978
   47CHL1  H22A 3461   1.432   3.944   8.032 -0.8661  0.2423  0.9498
   47CHL1  H22B 3462   1.542   3.796   8.058  0.4929  0.4314  0.6757
   47CHL1   C23 3463   1.596   3.959   8.165  0.6993 -0.8591  0.0830
   47CHL1  H23A 3464   1.696   3.912   8.180  0.6726 -0.3159  2.2284
   47CHL1  H23B 3465   1.621   4.065   8.144  0.8479 -0.8873  0.1154
   47CHL1   C24 3466   1.495   3.930   8.281 -0.7237 -0.3886 -0.3257
   47CHL1  H24A 3467   1.393   3.968   8.258 -1.6429 -0.4252  3.0337
   47CHL1  H24B 3468   1.494   3.821   8.302  0.5952  0.0014  2.2674
   47CHL1   C25 3469   1.539   4.012   8.405 -0.5356  0.1114 -0.8507
   47CHL1   H25 3470   1.556   4.115   8.368 -2.7453  0.3409 -1.3662
   47CHL1   C26 3471   1.420   4.017   8.505 -0.4074 -0.5761  0.6659
   47CHL1  H26A 3472   1.325   4.057   8.462 -1.5678 -2.8231  0.9887
   47CHL1  H26B 3473   1.397   3.914   8.538 -0.0360 -0.5628  0.9740
   47CHL1  H26C 3474   1.439   4.073   8.599 -0.7103 -0.4627  0.6600
   47CHL1   C27 3475   1.672   3.951   8.459  0.3695  0.4141 -0.0269
   47CHL1  H27A 3476   1.752   3.943   8.382  0.7197  0.6265  0.3075
   47CHL1  H27B 3477   1.703   4.025   8.537 -1.7943  1.0359  0.3071
   47CHL1  H27C 3478   1.655   3.848   8.497 -1.1765 -0.6223 -3.1576
   48CHL1    C3 3479   6.138   6.387   6.369  0.0226 -0.5878  0.3417
   48CHL1    H3 3480   6.247   6.390   6.392 -0.3846  1.9918  2.5009
   48CHL1    O3 3481   6.111   6.367   6.231  0.0352 -0.2601 -0.3050
   48CHL1   H3' 3482   6.019   6.392   6.224 -0.1451 -0.9209 -0.3216
   48CHL1    C4 3483   6.067   6.272   6.443 -0.7102 -0.1852  0.4087
   48CHL1   H4A 3484   5.966   6.265   6.398 -0.4045 -1.6413 -0.1144
   48CHL1   H4B 3485   6.126   6.183   6.414  0.6883  0.6539  0.5482
   48CHL1    C5 3486   6.066   6.290   6.590  0.1249 -0.3753  0.3531
   48CHL1    C6 3487   6.121   6.205   6.675  0.2258  0.3811 -0.2801
   48CHL1    H6 3488   6.174   6.113   6.650 -0.1706  0.4646 -1.4857
   48CHL1    C7 3489   6.115   6.235   6.830 -0.4826  0.3775 -0.3674
   48CHL1   H7A 3490   6.098   6.143   6.889  1.0987  0.0750 -0.3314
   48CHL1   H7B 3491   6.217   6.255   6.869  0.4736 -1.3930 -1.7709
   48CHL1    C8 3492   6.012   6.340   6.881 -0.5991  0.0845 -0.3775
   48CHL1    H8 3493   5.908   6.310   6.858 -2.3336  3.6399  1.9314
   48CHL1   C14 3494   6.027   6.376   7.032 -0.3059  0.6022 -0.0396
   48CHL1   H14 3495   6.132   6.408   7.053  1.1163 -3.7173  0.3927
   48CHL1   C15 3496   6.016   6.255   7.126 -0.4757  0.0112 -0.0427
   48CHL1  H15A 3497   5.925   6.196   7.100 -0.4386  0.0482 -0.2565
   48CHL1  H15B 3498   6.104   6.187   7.116 -1.0233 -0.4450 -2.0776
   48CHL1   C16 3499   6.006   6.320   7.266  0.0342  1.1948 -0.0626
   48CHL1  H16A 3500   5.920   6.268   7.312 -0.0747  1.1381 -0.3272
   48CHL1  H16B 3501   6.100   6.298   7.322  0.4612  0.7171 -0.9511
   48CHL1   C17 3502   5.993   6.472   7.240 -0.0874  0.3316  0.5011
   48CHL1   H17 3503   6.093   6.520   7.239 -0.8652  2.0407 -0.7333
   48CHL1   C13 3504   5.941   6.482   7.084  0.3193  0.1836  0.8083
   48CHL1   C18 3505   5.792   6.449   7.074 -0.1139  0.2960  0.1680
   48CHL1  H18A 3506   5.765   6.387   7.162 -2.3917  1.1915  0.1787
   48CHL1  H18B 3507   5.732   6.543   7.070 -1.5647 -0.6251 -1.1559
   48CHL1  H18C 3508   5.768   6.406   6.975 -0.9917  2.1287 -0.4731
   48CHL1   C12 3509   5.981   6.605   6.992  0.6216 -0.0672 -0.0582
   48CHL1  H12A 3510   5.923   6.693   7.027 -0.3167 -0.5231 -0.4428
   48CHL1  H12B 3511   6.088   6.626   7.015  0.7003  1.3853 -1.5372
   48CHL1   C11 3512   5.964   6.586   6.840 -0.2276 -0.0073 -0.0299
   48CHL1  H11A 3513   5.854   6.575   6.830 -0.4880  1.9237  0.4232
   48CHL1  H11B 3514   6.002   6.674   6.785  3.1233  0.5283  2.7736
   48CHL1    C9 3515   6.035   6.463   6.792  0.3549  0.8521 -0.1224
   48CHL1    H9 3516   6.141   6.494   6.809  0.8165 -0.9005  0.3874
   48CHL1   C10 3517   6.011   6.426   6.640 -0.9455  0.0315  0.3848
   48CHL1   C19 3518   5.864   6.417   6.619 -0.6001 -0.1652  0.2970
   48CHL1  H19A 3519   5.809   6.513   6.634 -2.4473 -1.2375  0.7372
   48CHL1  H19B 3520   5.838   6.403   6.511  0.9608 -2.2508  0.1364
   48CHL1  H19C 3521   5.805   6.351   6.686 -0.7067  2.5923  3.1224
   48CHL1    C1 3522   6.068   6.545   6.557  0.2638 -0.0928 -0.2765
   48CHL1   H1A 3523   6.020   6.643   6.577  1.2964  0.4625 -0.4398
   48CHL1   H1B 3524   6.175   6.558   6.587  0.5066 -2.4909  0.0843
   48CHL1    C2 3525   6.070   6.522   6.407 -0.1628  0.3110  0.7004
   48CHL1   H2A 3526   6.127   6.606   6.361  1.0969 -0.6379  0.4552
   48CHL1   H2B 3527   5.965   6.523   6.373  0.2122  0.8347 -0.5168
   48CHL1   C20 3528   5.910   6.547   7.347 -0.2636  0.2931 -0.5295
   48CHL1   H20 3529   5.807   6.506   7.340 -0.3291  0.3962 -0.1531
   48CHL1   C21 3530   5.905   6.695   7.320 -0.6884  0.4556  0.1016
   48CHL1  H21A 3531   5.841   6.698   7.230 -1.2631 -2.3921  0.3117
   48CHL1  H21B 3532   6.005   6.736   7.296 -1.6219  2.1280 -1.1708
   48CHL1  H21C 3533   5.853   6.750   7.402  2.4179  1.9296  1.2625
   48CHL1   C22 3534   5.960   6.522   7.495  0.0578  0.5248  0.2488
   48CHL1  H22A 3535   5.982   6.414   7.511 -0.6396  0.2596 -0.5368
   48CHL1  H22B 3536   6.050   6.584   7.512  0.1870  0.7151 -1.0624
   48CHL1   C23 3537   5.861   6.565   7.601 -0.0900  0.3685 -0.1298
   48CHL1  H23A 3538   5.861   6.675   7.615 -1.5605  0.4406 -0.5198
   48CHL1  H23B 3539   5.754   6.544   7.576 -0.7006  1.0302  1.7619
   48CHL1   C24 3540   5.903   6.505   7.742  0.0869  0.4901  0.1312
   48CHL1  H24A 3541   5.930   6.397   7.740  1.8143  0.8687  0.8170
   48CHL1  H24B 3542   6.009   6.537   7.753  0.7015 -0.4869 -2.2335
   48CHL1   C25 3543   5.806   6.544   7.855 -0.6065  0.7393  0.2811
   48CHL1   H25 3544   5.780   6.652   7.848 -0.0669  0.8486 -0.0798
   48CHL1   C26 3545   5.678   6.459   7.846  0.2294 -0.6561 -0.2632
   48CHL1  H26A 3546   5.635   6.462   7.744  2.5600  0.3497 -1.2959
   48CHL1  H26B 3547   5.706   6.356   7.878  0.1384 -0.6534 -0.1756
   48CHL1  H26C 3548   5.612   6.501   7.924 -0.6896  0.0039 -1.3602
   48CHL1   C27 3549   5.872   6.516   7.990 -0.0002  0.0330  0.2976
   48CHL1  H27A 3550   5.909   6.412   7.977 -0.4424  0.0699 -1.5689
   48CHL1  H27B 3551   5.958   6.584   8.008 -0.1449 -0.2878  2.4584
   48CHL1  H27C 3552   5.795   6.518   8.070 -0.9789 -0.1823 -0.6118
   49CHL1    C3 3553   3.911   1.666   7.044  0.5339  0.0292  0.3234
   49CHL1    H3 3554   3.827   1.737   7.057 -0.9592 -1.4676 -0.6609
   49CHL1    O3 3555   3.936   1.653   6.899 -0.1128 -0.0497  0.0916
   49CHL1   H3' 3556   4.000   1.581   6.904 -0.2635 -0.0948  2.5704
   49CHL1    C4 3557   4.043   1.714   7.101  0.7140  0.4332 -0.0398
   49CHL1   H4A 3558   4.119   1.635   7.085  0.3773 -0.1156  0.9678
   49CHL1   H4B 3559   4.082   1.803   7.048 -0.3442  0.3525 -0.9868
   49CHL1    C5 3560   4.007   1.742   7.251  0.1970 -0.2847 -0.0744
   49CHL1    C6 3561   4.009   1.867   7.295  0.7799 -1.2154 -0.3864
   49CHL1    H6 3562   4.035   1.948   7.226 -0.1163 -0.0237  0.6233
   49CHL1    C7 3563   3.982   1.904   7.440  0.0279  0.2740 -0.0390
   49CHL1   H7A 3564   4.064   1.972   7.473 -0.6803  0.6333  1.0285
   49CHL1   H7B 3565   3.886   1.959   7.449  0.2381  0.8646 -1.2393
   49CHL1    C8 3566   4.009   1.775   7.532 -0.7008 -0.2454 -0.5862
   49CHL1    H8 3567   4.119   1.761   7.531 -0.2541  2.5403  0.4967
   49CHL1   C14 3568   3.964   1.815   7.672 -0.0701 -0.2306  0.0743
   49CHL1   H14 3569   3.860   1.851   7.662 -0.3352 -1.5707 -3.0364
   49CHL1   C15 3570   4.041   1.928   7.747  0.2060  0.4313 -0.0399
   49CHL1  H15A 3571   4.151   1.913   7.741  0.1766 -0.0490  0.5568
   49CHL1  H15B 3572   4.017   2.023   7.694 -1.2234 -0.4605 -1.0790
   49CHL1   C16 3573   3.998   1.915   7.899 -0.3106 -0.4731 -0.0937
   49CHL1  H16A 3574   4.083   1.904   7.970 -0.7733  0.3879  0.6129
   49CHL1  H16B 3575   3.939   1.997   7.945  2.1723  0.6786  1.2267
   49CHL1   C17 3576   3.919   1.780   7.905 -0.0086  0.0617  0.9726
   49CHL1   H17 3577   3.813   1.809   7.892 -0.1901 -0.2001  1.7870
   49CHL1   C13 3578   3.961   1.702   7.775 -0.7483  0.4372 -0.0868
   49CHL1   C18 3579   4.103   1.639   7.779 -0.7862 -0.4849 -0.4947
   49CHL1  H18A 3580   4.090   1.552   7.847 -0.3459 -0.2799 -0.1457
   49CHL1  H18B 3581   4.147   1.592   7.688  0.7669 -2.0070  0.9554
   49CHL1  H18C 3582   4.173   1.710   7.827 -0.0091 -1.2612 -0.4395
   49CHL1   C12 3583   3.862   1.597   7.727  0.5465  1.1515 -0.2542
   49CHL1  H12A 3584   3.864   1.519   7.806 -2.7924  1.9730  0.8294
   49CHL1  H12B 3585   3.756   1.631   7.726 -0.1684 -0.8195 -2.3814
   49CHL1   C11 3586   3.901   1.549   7.583 -0.7578 -0.2751 -0.1139
   49CHL1  H11A 3587   3.995   1.490   7.583  0.7466  1.9696  0.6752
   49CHL1  H11B 3588   3.817   1.487   7.546 -0.6778 -1.2050  1.1947
   49CHL1    C9 3589   3.929   1.662   7.476  0.6369 -0.6768  0.4782
   49CHL1    H9 3590   3.827   1.701   7.456  0.7589 -1.0484 -0.9729
   49CHL1   C10 3591   3.976   1.614   7.335  0.8022  0.1725 -0.9558
   49CHL1   C19 3592   4.105   1.528   7.336 -0.7472 -0.2945 -0.4622
   49CHL1  H19A 3593   4.154   1.512   7.238  1.8058 -0.4038  0.7614
   49CHL1  H19B 3594   4.184   1.579   7.396 -0.2402 -0.5515 -0.9035
   49CHL1  H19C 3595   4.072   1.430   7.377 -0.8352  0.3272  0.9973
   49CHL1    C1 3596   3.859   1.533   7.258  0.0068  0.3987 -0.0140
   49CHL1   H1A 3597   3.859   1.429   7.294 -1.8113  0.5988  0.6522
   49CHL1   H1B 3598   3.762   1.587   7.264 -0.4273 -0.5725  4.2606
   49CHL1    C2 3599   3.879   1.524   7.103  0.1785 -0.6238 -0.0673
   49CHL1   H2A 3600   3.789   1.481   7.055  1.1654 -0.4813 -2.1729
   49CHL1   H2B 3601   3.958   1.453   7.070  0.5186 -1.0436  1.5362
   49CHL1   C20 3602   3.934   1.717   8.044 -0.6700 -0.5553  0.2282
   49CHL1   H20 3603   4.037   1.678   8.054 -0.3855 -0.2713 -1.3913
   49CHL1   C21 3604   3.839   1.600   8.057 -0.0716 -0.0070 -0.5656
   49CHL1  H21A 3605   3.883   1.509   8.011 -0.5478 -0.3536 -0.3439
   49CHL1  H21B 3606   3.739   1.621   8.015  1.2329  1.4950 -3.1476
   49CHL1  H21C 3607   3.830   1.566   8.163  1.1364 -1.3542 -0.8637
   49CHL1   C22 3608   3.902   1.812   8.160 -0.5287  0.0770  0.7410
   49CHL1  H22A 3609   3.900   1.743   8.247  0.4169 -1.8252 -0.6881
   49CHL1  H22B 3610   3.987   1.880   8.184 -0.0434 -0.6688  1.1717
   49CHL1   C23 3611   3.780   1.902   8.152  0.0583 -0.1923  0.2188
   49CHL1  H23A 3612   3.778   1.956   8.055  2.2881  0.1653  0.3232
   49CHL1  H23B 3613   3.686   1.843   8.155 -0.2474  0.1446 -1.4916
   49CHL1   C24 3614   3.786   2.008   8.262 -0.4043  0.6558 -0.0616
   49CHL1  H24A 3615   3.800   1.960   8.361 -1.5749  0.7864  0.1755
   49CHL1  H24B 3616   3.878   2.071   8.257  0.6247 -0.7243  0.6736
   49CHL1   C25 3617   3.652   2.084   8.272 -0.4112 -0.4253  0.5607
   49CHL1   H25 3618   3.566   2.019   8.244  0.3570 -0.8781 -0.8455
   49CHL1   C26 3619   3.628   2.130   8.413 -0.1911 -0.4130 -0.3291
   49CHL1  H26A 3620   3.713   2.192   8.450 -0.4910 -0.4075  0.3694
   49CHL1  H26B 3621   3.527   2.175   8.423  0.6530  1.5645 -0.2210
   49CHL1  H26C 3622   3.621   2.036   8.472 -0.6159 -0.5066 -0.5261
   49CHL1   C27 3623   3.650   2.198   8.176 -0.5820 -0.3048 -0.0904
   49CHL1  H27A 3624   3.554   2.252   8.192  0.8689  2.2079  0.7520
   49CHL1  H27B 3625   3.720   2.280   8.205  0.9253 -1.0516 -1.4083
   49CHL1  H27C 3626   3.670   2.172   8.070  0.7711  0.5194 -0.0652
   50CHL1    C3 3627   3.969   3.888   6.903  0.0268  0.0499  0.1221
   50CHL1    H3 3628   3.902   3.803   6.930  1.9914 -2.4814 -2.3988
   50CHL1    O3 3629   3.957   3.918   6.773  0.1938  0.1455  0.0199
   50CHL1   H3' 3630   4.032   3.974   6.753  0.4303  0.0061  0.4897
   50CHL1    C4 3631   3.927   4.018   6.983  0.6068 -0.3129 -0.3968
   50CHL1   H4A 3632   3.968   4.110   6.936 -0.3462  1.1996  1.5878
   50CHL1   H4B 3633   3.824   4.044   6.953  0.3276 -2.1541 -1.1758
   50CHL1    C5 3634   3.956   4.032   7.130 -1.2114 -0.0573 -0.1014
   50CHL1    C6 3635   3.861   4.053   7.219 -0.2085 -0.2616 -0.0490
   50CHL1    H6 3636   3.761   4.087   7.188 -0.1317 -0.3362 -0.3776
   50CHL1    C7 3637   3.884   4.063   7.366  0.6901 -0.2642 -0.1367
   50CHL1   H7A 3638   3.835   4.151   7.413  1.8070 -0.1356  0.8496
   50CHL1   H7B 3639   3.842   3.980   7.427 -0.3291  0.7374  0.5637
   50CHL1    C8 3640   4.038   4.077   7.394 -0.1449  0.1251 -0.4617
   50CHL1    H8 3641   4.075   4.177   7.363  0.2914  0.1231  0.0295
   50CHL1   C14 3642   4.061   4.067   7.546 -0.9320  0.2756  0.0116
   50CHL1   H14 3643   4.014   3.973   7.582  1.4695 -1.1225 -0.2822
   50CHL1   C15 3644   4.011   4.182   7.639  0.6765  0.2705  0.0760
   50CHL1  H15A 3645   4.054   4.267   7.582  0.3280 -0.2900 -1.0383
   50CHL1  H15B 3646   3.902   4.198   7.650  0.4695 -1.5783  1.1718
   50CHL1   C16 3647   4.084   4.156   7.769 -0.4006  0.0162 -0.1986
   50CHL1  H16A 3648   4.118   4.256   7.806 -3.4180  1.3487 -0.6626
   50CHL1  H16B 3649   4.022   4.144   7.860 -1.5076  0.9694 -0.7912
   50CHL1   C17 3650   4.191   4.043   7.747 -0.1473  0.3454  0.1147
   50CHL1   H17 3651   4.145   3.945   7.775  0.1693 -0.2334 -1.2789
   50CHL1   C13 3652   4.213   4.041   7.593  0.4308 -0.6408 -0.0240
   50CHL1   C18 3653   4.301   4.164   7.546 -0.4358 -0.8691 -0.8185
   50CHL1  H18A 3654   4.407   4.156   7.576 -0.9263 -2.5509  0.6293
   50CHL1  H18B 3655   4.294   4.181   7.437  2.2051 -1.4712 -1.1469
   50CHL1  H18C 3656   4.273   4.260   7.596  1.8602 -0.3228 -0.4635
   50CHL1   C12 3657   4.254   3.916   7.533  0.5690  0.2019  0.3246
   50CHL1  H12A 3658   4.359   3.895   7.561  0.1468 -0.1398  1.7115
   50CHL1  H12B 3659   4.192   3.832   7.572  0.8635 -0.0995  0.1535
   50CHL1   C11 3660   4.245   3.925   7.379  0.1720  0.1137 -0.0072
   50CHL1  H11A 3661   4.315   4.005   7.348 -0.6907  1.4108  1.2750
   50CHL1  H11B 3662   4.280   3.827   7.339  1.6411  1.2593 -1.6531
   50CHL1    C9 3663   4.102   3.963   7.323 -0.2036 -0.1460 -0.0764
   50CHL1    H9 3664   4.042   3.873   7.350  2.4576 -1.8704  0.4677
   50CHL1   C10 3665   4.096   3.987   7.171 -0.5599 -0.4654 -0.1142
   50CHL1   C19 3666   4.197   4.103   7.130 -0.0549  0.3812 -0.6347
   50CHL1  H19A 3667   4.295   4.051   7.136  0.1191  0.7856  0.1966
   50CHL1  H19B 3668   4.183   4.127   7.023 -0.8047 -1.5552 -1.0170
   50CHL1  H19C 3669   4.207   4.188   7.201  0.7199 -0.8417  0.7744
   50CHL1    C1 3670   4.137   3.856   7.094 -0.3463 -0.5667  0.1760
   50CHL1   H1A 3671   4.246   3.833   7.095  0.3445  2.3497  0.9499
   50CHL1   H1B 3672   4.092   3.768   7.144 -2.0422  1.0601  1.6349
   50CHL1    C2 3673   4.111   3.853   6.940 -0.1899 -0.6210 -0.5060
   50CHL1   H2A 3674   4.134   3.753   6.899 -0.6018 -1.1352  0.4908
   50CHL1   H2B 3675   4.172   3.936   6.897  2.3184 -1.1444  1.7107
   50CHL1   C20 3676   4.321   4.059   7.840 -0.2407 -0.1088  0.7805
   50CHL1   H20 3677   4.358   4.163   7.825  0.4264 -0.2706  1.2563
   50CHL1   C21 3678   4.433   3.962   7.798  0.1197 -0.1627 -0.4990
   50CHL1  H21A 3679   4.508   3.960   7.881 -1.7281  0.0453  1.2376
   50CHL1  H21B 3680   4.471   3.985   7.696 -1.3198 -0.8492 -1.2219
   50CHL1  H21C 3681   4.391   3.860   7.785  1.1361 -0.6705  0.0444
   50CHL1   C22 3682   4.282   4.049   7.983 -0.0086 -0.2093 -0.6256
   50CHL1  H22A 3683   4.173   4.047   8.002 -0.1485 -1.5831 -1.4642
   50CHL1  H22B 3684   4.328   3.956   8.023  1.1966 -0.1972 -1.8763
   50CHL1   C23 3685   4.345   4.167   8.057  0.1726  0.3199  0.0705
   50CHL1  H23A 3686   4.454   4.184   8.045  0.1872 -0.2101 -0.6323
   50CHL1  H23B 3687   4.301   4.256   8.007  2.1433  0.1970 -2.0437
   50CHL1   C24 3688   4.305   4.167   8.205  0.1386  0.6738  1.2815
   50CHL1  H24A 3689   4.336   4.268   8.242  1.7291  1.6388 -2.2910
   50CHL1  H24B 3690   4.197   4.176   8.227  0.2401 -0.2807  2.2732
   50CHL1   C25 3691   4.362   4.061   8.297 -0.4336 -0.4657 -0.0461
   50CHL1   H25 3692   4.326   3.960   8.269 -0.4943 -0.2865 -0.6268
   50CHL1   C26 3693   4.513   4.067   8.292 -0.1646  0.0141 -0.0687
   50CHL1  H26A 3694   4.555   3.988   8.358 -0.4350 -0.1401 -0.0826
   50CHL1  H26B 3695   4.561   4.030   8.198 -1.0403 -2.7046  0.4760
   50CHL1  H26C 3696   4.540   4.172   8.314 -0.5590 -0.3258  2.3209
   50CHL1   C27 3697   4.320   4.079   8.451 -0.5472 -0.0846 -0.1920
   50CHL1  H27A 3698   4.337   4.183   8.486  0.2682 -0.2875  0.0299
   50CHL1  H27B 3699   4.212   4.054   8.448  0.0212 -2.7682 -0.9236
   50CHL1  H27C 3700   4.365   4.008   8.523 -0.0352  2.6887  2.4049
   51CHL1    C3 3701   4.966   2.826   7.085  0.2631  0.0679 -0.7427
   51CHL1    H3 3702   4.926   2.930   7.084 -1.6187 -0.6013 -0.3572
   51CHL1    O3 3703   4.961   2.778   6.956 -0.3504  0.0143 -0.2791
   51CHL1   H3' 3704   4.868   2.781   6.931 -0.4522  3.2442  0.0345
   51CHL1    C4 3705   5.109   2.826   7.137 -0.1829 -0.3960 -0.1633
   51CHL1   H4A 3706   5.154   2.730   7.103 -2.5658 -1.6380  0.0002
   51CHL1   H4B 3707   5.149   2.915   7.084 -1.0725 -0.5242 -1.0705
   51CHL1    C5 3708   5.116   2.837   7.288 -0.2584 -0.6239 -0.1634
   51CHL1    C6 3709   5.200   2.921   7.345  0.8232  0.2128 -0.0369
   51CHL1    H6 3710   5.271   2.965   7.274  2.0326 -4.6329 -2.2437
   51CHL1    C7 3711   5.234   2.932   7.490 -0.5015  0.4946 -0.4948
   51CHL1   H7A 3712   5.344   2.938   7.504 -0.3542  0.1761 -1.4627
   51CHL1   H7B 3713   5.183   3.014   7.545  0.6812  0.3842  0.8273
   51CHL1    C8 3714   5.186   2.803   7.566  0.0795  0.1177 -0.1555
   51CHL1    H8 3715   5.245   2.713   7.539 -0.6728 -0.7364  0.9689
   51CHL1   C14 3716   5.199   2.818   7.714 -0.3679 -0.5549  0.0505
   51CHL1   H14 3717   5.129   2.901   7.740  0.2537 -0.4734  1.5974
   51CHL1   C15 3718   5.338   2.850   7.767 -0.0120 -0.2584  0.2082
   51CHL1  H15A 3719   5.417   2.789   7.718  1.4556 -0.1964  2.3273
   51CHL1  H15B 3720   5.364   2.957   7.752  0.1724 -0.5513 -1.8570
   51CHL1   C16 3721   5.325   2.815   7.922  0.3853  0.4649  0.0622
   51CHL1  H16A 3722   5.415   2.757   7.951  0.6744  1.8454  2.1584
   51CHL1  H16B 3723   5.322   2.900   7.993 -2.4590 -1.0610  1.9547
   51CHL1   C17 3724   5.184   2.744   7.944 -0.0809  0.2865  0.1278
   51CHL1   H17 3725   5.113   2.827   7.965 -0.4332  0.1501 -0.4821
   51CHL1   C13 3726   5.147   2.696   7.804  0.8010 -0.2288  0.4229
   51CHL1   C18 3727   5.216   2.573   7.770  0.2511  0.1600  0.3672
   51CHL1  H18A 3728   5.323   2.566   7.800  0.2787  1.1971  0.5450
   51CHL1  H18B 3729   5.174   2.487   7.826  1.4977 -1.0296 -0.4783
   51CHL1  H18C 3730   5.210   2.554   7.661 -1.3994 -2.4461  0.8035
   51CHL1   C12 3731   4.994   2.687   7.767 -0.4725 -0.5379  0.7007
   51CHL1  H12A 3732   4.942   2.608   7.825 -1.7667 -1.1804 -1.2696
   51CHL1  H12B 3733   4.940   2.784   7.770  0.4450  0.0658 -1.0073
   51CHL1   C11 3734   4.982   2.659   7.618  0.2620 -0.2032 -0.6474
   51CHL1  H11A 3735   5.039   2.567   7.594 -1.0468 -1.1608 -0.1703
   51CHL1  H11B 3736   4.878   2.645   7.582  0.2209 -0.6400 -0.3703
   51CHL1    C9 3737   5.040   2.774   7.527  0.2927  0.1385 -0.2435
   51CHL1    H9 3738   4.981   2.865   7.551  1.4290  0.3927  1.8546
   51CHL1   C10 3739   5.025   2.748   7.376 -0.1586 -0.0920 -0.7736
   51CHL1   C19 3740   5.084   2.608   7.349  0.5585  0.0194  0.2480
   51CHL1  H19A 3741   5.012   2.541   7.401 -2.0339  2.2797 -0.2001
   51CHL1  H19B 3742   5.091   2.571   7.244  0.7924 -1.3218  0.7103
   51CHL1  H19C 3743   5.184   2.582   7.391  0.6787 -0.3109 -0.2313
   51CHL1    C1 3744   4.878   2.771   7.324 -0.2269  0.0959 -0.0391
   51CHL1   H1A 3745   4.806   2.701   7.373 -0.7566 -0.2794 -1.2998
   51CHL1   H1B 3746   4.845   2.875   7.341  1.5772  1.3008 -3.0018
   51CHL1    C2 3747   4.872   2.743   7.169  0.1537  0.1738  0.3835
   51CHL1   H2A 3748   4.771   2.767   7.130  0.2718  2.4984  1.3198
   51CHL1   H2B 3749   4.889   2.638   7.136 -1.7276  0.1934 -0.7695
   51CHL1   C20 3750   5.174   2.652   8.067 -0.1828 -0.5311  0.4660
   51CHL1   H20 3751   5.253   2.575   8.060 -0.3459 -0.9460  2.4379
   51CHL1   C21 3752   5.044   2.568   8.070 -0.1342  0.1745  0.1578
   51CHL1  H21A 3753   5.022   2.516   8.165 -0.6734 -0.4559 -0.3027
   51CHL1  H21B 3754   5.041   2.495   7.986 -1.5412  2.2152 -1.6899
   51CHL1  H21C 3755   4.954   2.628   8.045 -2.1673 -3.8793 -3.7919
   51CHL1   C22 3756   5.204   2.717   8.208 -0.0864 -0.0307 -0.6510
   51CHL1  H22A 3757   5.251   2.638   8.270  0.1690  1.2284  0.8102
   51CHL1  H22B 3758   5.278   2.800   8.202 -1.0903  0.9075 -0.4820
   51CHL1   C23 3759   5.086   2.761   8.287  0.4211  0.0927  0.5552
   51CHL1  H23A 3760   5.021   2.824   8.222  1.5431 -0.8712 -1.5746
   51CHL1  H23B 3761   5.029   2.668   8.308 -0.3494  0.3663 -0.2175
   51CHL1   C24 3762   5.134   2.833   8.410 -0.0711 -0.5056  0.9088
   51CHL1  H24A 3763   5.216   2.776   8.459  0.6516  0.4234  0.8296
   51CHL1  H24B 3764   5.163   2.938   8.386 -1.0184 -0.8047 -1.8461
   51CHL1   C25 3765   5.026   2.853   8.515  0.3601  0.2329 -0.7097
   51CHL1   H25 3766   4.939   2.891   8.458  0.2259  1.9577  0.5721
   51CHL1   C26 3767   5.004   2.714   8.584  0.5121  0.6751 -0.4235
   51CHL1  H26A 3768   5.104   2.682   8.622  0.1796  0.0099 -0.0969
   51CHL1  H26B 3769   4.936   2.718   8.672 -1.0836  1.3936 -1.6553
   51CHL1  H26C 3770   4.948   2.642   8.522  0.4248 -0.7019  1.1795
   51CHL1   C27 3771   5.058   2.955   8.627 -0.5859  0.5141  0.2949
   51CHL1  H27A 3772   5.136   2.923   8.700  0.1162  2.1813  0.3001
   51CHL1  H27B 3773   5.099   3.046   8.580  0.8540  1.1825  2.6459
   51CHL1  H27C 3774   4.966   2.988   8.681 -0.5612  0.1664  0.5560
   52CHL1    C3 3775   6.638   3.852   6.924  0.1635 -0.4474  0.6732
   52CHL1    H3 3776   6.748   3.846   6.943  0.5547  0.5972 -1.0466
   52CHL1    O3 3777   6.614   3.898   6.791  0.1961  0.0126  0.0534
   52CHL1   H3' 3778   6.699   3.939   6.770  0.8499  0.3346  2.8545
   52CHL1    C4 3779   6.569   3.717   6.944  0.4938 -0.2049  0.3537
   52CHL1   H4A 3780   6.462   3.719   6.915  0.9622 -0.9314 -1.5054
   52CHL1   H4B 3781   6.615   3.649   6.870 -1.5376  0.1637 -1.3280
   52CHL1    C5 3782   6.581   3.667   7.091 -0.1305  0.4066  0.3562
   52CHL1    C6 3783   6.644   3.550   7.119  0.0562 -0.1525 -0.0672
   52CHL1    H6 3784   6.705   3.507   7.038  1.0741  0.4568  0.3718
   52CHL1    C7 3785   6.647   3.499   7.264 -0.6945 -0.2499 -0.1745
   52CHL1   H7A 3786   6.613   3.394   7.251 -0.9706  0.0258 -1.9694
   52CHL1   H7B 3787   6.754   3.505   7.294 -1.0086  1.4043  0.7539
   52CHL1    C8 3788   6.549   3.572   7.364 -0.2802  0.9172 -0.4766
   52CHL1    H8 3789   6.446   3.536   7.342 -0.1490  0.8925 -1.0785
   52CHL1   C14 3790   6.584   3.541   7.511  0.0719  0.0527  1.0578
   52CHL1   H14 3791   6.686   3.585   7.518  1.0456 -2.0409  0.6489
   52CHL1   C15 3792   6.597   3.396   7.557  0.0723  0.2997  0.0062
   52CHL1  H15A 3793   6.511   3.338   7.518 -0.3691  0.6111  0.4908
   52CHL1  H15B 3794   6.691   3.352   7.519  1.0313  2.7239 -0.6241
   52CHL1   C16 3795   6.592   3.407   7.711 -0.0816 -0.5148  0.3412
   52CHL1  H16A 3796   6.513   3.336   7.744 -1.4016 -0.2045 -1.9382
   52CHL1  H16B 3797   6.685   3.385   7.767 -1.7740 -0.7482  3.3235
   52CHL1   C17 3798   6.569   3.561   7.748  0.5820 -0.3945 -0.6428
   52CHL1   H17 3799   6.669   3.608   7.743 -0.5269  2.2178 -0.1177
   52CHL1   C13 3800   6.500   3.613   7.622 -0.2846 -0.0812 -0.1624
   52CHL1   C18 3801   6.355   3.568   7.610  0.3522  0.1024 -0.6109
   52CHL1  H18A 3802   6.354   3.458   7.619 -0.2283  0.1320 -0.2842
   52CHL1  H18B 3803   6.290   3.613   7.688  0.8819 -0.0700 -0.0640
   52CHL1  H18C 3804   6.312   3.592   7.510 -2.8148 -1.1016  0.3306
   52CHL1   C12 3805   6.525   3.771   7.599  0.1762 -0.2483 -0.3151
   52CHL1  H12A 3806   6.458   3.829   7.666 -0.6384  1.2456 -2.3276
   52CHL1  H12B 3807   6.628   3.803   7.623  0.4946 -2.7171  2.0548
   52CHL1   C11 3808   6.492   3.809   7.453 -0.2299  0.3725 -0.5003
   52CHL1  H11A 3809   6.381   3.802   7.451 -0.1187 -4.1413 -1.4094
   52CHL1  H11B 3810   6.529   3.913   7.437 -0.0544  0.4909  0.5646
   52CHL1    C9 3811   6.558   3.725   7.346  1.1776  0.3170 -0.5074
   52CHL1    H9 3812   6.666   3.750   7.348  1.0019  1.1964 -1.3927
   52CHL1   C10 3813   6.525   3.757   7.199 -0.2291 -0.0166 -0.6441
   52CHL1   C19 3814   6.379   3.744   7.186 -0.0177  0.1816 -0.3662
   52CHL1  H19A 3815   6.342   3.639   7.182 -0.1440  0.2261 -0.3879
   52CHL1  H19B 3816   6.316   3.798   7.260  0.7846 -0.5691  0.9037
   52CHL1  H19C 3817   6.336   3.786   7.093 -1.9138  2.1248  1.2700
   52CHL1    C1 3818   6.571   3.902   7.167 -0.5350  0.1778 -0.3334
   52CHL1   H1A 3819   6.508   3.965   7.233  0.4388 -0.9390  1.7609
   52CHL1   H1B 3820   6.676   3.917   7.202  0.4228 -4.3531 -0.6889
   52CHL1    C2 3821   6.584   3.959   7.024 -0.0859 -0.0917 -0.1639
   52CHL1   H2A 3822   6.640   4.054   7.030 -2.3770  1.4290 -1.6053
   52CHL1   H2B 3823   6.478   3.969   6.995 -1.3896 -1.4491  3.5251
   52CHL1   C20 3824   6.498   3.597   7.888 -0.5397  0.2144 -0.0279
   52CHL1   H20 3825   6.395   3.554   7.889 -1.7658  2.8591 -1.7577
   52CHL1   C21 3826   6.477   3.752   7.914  0.0488 -0.0320 -0.3639
   52CHL1  H21A 3827   6.477   3.775   8.023  0.9730 -0.0944 -0.3414
   52CHL1  H21B 3828   6.382   3.779   7.863  1.3730  3.5155 -1.2375
   52CHL1  H21C 3829   6.557   3.807   7.860 -0.3449 -0.6064 -1.5652
   52CHL1   C22 3830   6.577   3.520   7.999 -0.2108  0.2941  0.0212
   52CHL1  H22A 3831   6.518   3.543   8.091  0.6363  0.3564  0.5630
   52CHL1  H22B 3832   6.589   3.411   7.986  1.2325  0.5473 -0.9801
   52CHL1   C23 3833   6.714   3.583   8.035 -0.6258  0.1483 -0.1424
   52CHL1  H23A 3834   6.797   3.530   7.985 -1.6075  1.2632 -3.1426
   52CHL1  H23B 3835   6.726   3.690   8.007 -1.1132  0.2836  0.1492
   52CHL1   C24 3836   6.743   3.577   8.187  0.7852 -0.2996 -0.1127
   52CHL1  H24A 3837   6.830   3.640   8.214 -1.0005  1.5325  1.7803
   52CHL1  H24B 3838   6.657   3.625   8.239  0.9161  2.2563 -2.0788
   52CHL1   C25 3839   6.758   3.437   8.246  0.1315 -0.0353 -0.4187
   52CHL1   H25 3840   6.674   3.372   8.212  1.0050 -0.5835 -1.6261
   52CHL1   C26 3841   6.891   3.375   8.197 -0.0289 -0.2001 -0.2595
   52CHL1  H26A 3842   6.873   3.357   8.089  1.1272 -0.1082 -0.4792
   52CHL1  H26B 3843   6.970   3.453   8.203  0.0096 -0.2652  0.0755
   52CHL1  H26C 3844   6.917   3.279   8.246  0.9667  0.8871  1.4559
   52CHL1   C27 3845   6.768   3.437   8.399 -0.6091 -0.7358 -0.1960
   52CHL1  H27A 3846   6.766   3.337   8.446 -2.9537 -1.0110 -0.7497
   52CHL1  H27B 3847   6.862   3.492   8.420 -0.0403 -0.5899 -2.7197
   52CHL1  H27C 3848   6.684   3.496   8.442 -0.1142  0.0872 -0.3244
   53CHL1    C3 3849   3.432   6.082   7.059  0.1346  0.4664 -0.3824
   53CHL1    H3 3850   3.443   5.971   7.055  4.2472  0.7468 -3.5042
   53CHL1    O3 3851   3.440   6.138   6.931 -0.0596  0.8896 -0.0310
   53CHL1   H3' 3852   3.368   6.100   6.880  0.0416  0.3413  0.2294
   53CHL1    C4 3853   3.301   6.126   7.125  0.3124  0.2081 -0.1393
   53CHL1   H4A 3854   3.289   6.236   7.115  1.0039  0.2411 -0.6704
   53CHL1   H4B 3855   3.211   6.087   7.073 -0.7456  0.9840  1.0525
   53CHL1    C5 3856   3.292   6.096   7.275  0.3663  0.4605  0.7350
   53CHL1    C6 3857   3.196   6.017   7.324 -0.2297 -0.1905  0.2311
   53CHL1    H6 3858   3.116   5.991   7.254 -0.3542  1.1296 -0.1349
   53CHL1    C7 3859   3.167   5.988   7.466 -0.5769 -0.3128  0.1351
   53CHL1   H7A 3860   3.067   6.028   7.494  0.3153  0.9239  1.7580
   53CHL1   H7B 3861   3.189   5.885   7.503 -0.8125 -1.2040 -2.0679
   53CHL1    C8 3862   3.250   6.087   7.554  0.2139 -0.4673 -0.1499
   53CHL1    H8 3863   3.193   6.182   7.563 -1.6190 -1.5177 -0.2187
   53CHL1   C14 3864   3.263   6.042   7.698  0.2348  0.6444 -0.2853
   53CHL1   H14 3865   3.325   5.950   7.694 -2.1146 -1.0317 -3.2552
   53CHL1   C15 3866   3.128   5.997   7.764  0.1312 -0.0805 -0.4365
   53CHL1  H15A 3867   3.049   6.061   7.721  0.1235 -0.3947 -0.8987
   53CHL1  H15B 3868   3.100   5.891   7.747  0.6948 -0.8065  2.5246
   53CHL1   C16 3869   3.148   6.040   7.912 -1.2211 -0.3115  0.0389
   53CHL1  H16A 3870   3.086   6.131   7.932  1.2267  1.4306  0.1156
   53CHL1  H16B 3871   3.121   5.956   7.980  1.5286 -0.3376  1.2133
   53CHL1   C17 3872   3.302   6.078   7.928  0.0966  0.8527  1.6063
   53CHL1   H17 3873   3.362   5.984   7.926  1.0255  1.3808 -1.9321
   53CHL1   C13 3874   3.339   6.144   7.791  0.1988 -0.0065  0.0508
   53CHL1   C18 3875   3.254   6.271   7.785  0.3743  0.4010  0.2879
   53CHL1  H18A 3876   3.277   6.335   7.697 -0.3051 -0.6018 -0.6309
   53CHL1  H18B 3877   3.143   6.262   7.787  0.2475  0.5041 -2.6794
   53CHL1  H18C 3878   3.282   6.333   7.873 -0.1644 -0.6854  1.2538
   53CHL1   C12 3879   3.485   6.150   7.740 -0.0783  0.6851 -0.5283
   53CHL1  H12A 3880   3.537   6.226   7.802  0.2464  0.7106 -0.8288
   53CHL1  H12B 3881   3.550   6.062   7.759 -1.1914 -0.7587 -2.9765
   53CHL1   C11 3882   3.487   6.196   7.594 -0.5136  0.2848 -0.5582
   53CHL1  H11A 3883   3.442   6.298   7.590 -0.2546  0.4024 -0.4811
   53CHL1  H11B 3884   3.590   6.193   7.554  0.2308  1.5288  1.1633
   53CHL1    C9 3885   3.394   6.116   7.507  0.3424  0.6333  0.2459
   53CHL1    H9 3886   3.439   6.015   7.509 -1.0949 -0.0175  0.6619
   53CHL1   C10 3887   3.404   6.156   7.353  0.2850 -0.4242 -1.1000
   53CHL1   C19 3888   3.396   6.316   7.352 -0.6801  0.6632  0.1106
   53CHL1  H19A 3889   3.499   6.346   7.380  0.0538  0.3094 -2.0325
   53CHL1  H19B 3890   3.376   6.359   7.251  2.1761 -1.2886 -1.4129
   53CHL1  H19C 3891   3.315   6.351   7.420 -0.8422 -0.0984  0.3258
   53CHL1    C1 3892   3.535   6.108   7.284  0.3667 -0.0487  0.0185
   53CHL1   H1A 3893   3.613   6.170   7.332 -0.6601  0.4045  1.1237
   53CHL1   H1B 3894   3.541   5.998   7.299 -1.1340  0.0321  1.3694
   53CHL1    C2 3895   3.552   6.137   7.139  0.4600  0.0708  0.1446
   53CHL1   H2A 3896   3.653   6.099   7.112  1.1202  0.8109  1.4705
   53CHL1   H2B 3897   3.551   6.247   7.122 -0.8418 -0.0076 -0.3903
   53CHL1   C20 3898   3.342   6.144   8.065 -0.0003  0.3992  0.6254
   53CHL1   H20 3899   3.315   6.251   8.058 -0.0869  0.3772  0.6127
   53CHL1   C21 3900   3.494   6.121   8.077 -0.0315 -0.3928 -0.4796
   53CHL1  H21A 3901   3.560   6.156   7.995  0.4246 -0.9673 -0.3703
   53CHL1  H21B 3902   3.512   6.012   8.089 -2.7073 -0.8673 -0.1320
   53CHL1  H21C 3903   3.523   6.171   8.172  0.2572  0.2144 -0.8840
   53CHL1   C22 3904   3.265   6.085   8.184  0.5071 -0.8544  0.3846
   53CHL1  H22A 3905   3.156   6.084   8.167  0.8036  0.0260 -1.9604
   53CHL1  H22B 3906   3.298   5.980   8.202 -0.2037 -0.8855  1.5694
   53CHL1   C23 3907   3.291   6.172   8.311 -0.0489 -0.4393 -0.4413
   53CHL1  H23A 3908   3.394   6.151   8.344 -0.6267 -2.7872  0.0774
   53CHL1  H23B 3909   3.264   6.276   8.283 -0.8167 -1.1317 -2.4894
   53CHL1   C24 3910   3.200   6.133   8.427 -0.1725 -0.4632 -0.1575
   53CHL1  H24A 3911   3.092   6.139   8.402  0.0960 -0.4429 -1.3546
   53CHL1  H24B 3912   3.225   6.027   8.450 -2.8455 -0.6190  2.8257
   53CHL1   C25 3913   3.223   6.210   8.560  0.5190  0.6119  0.0356
   53CHL1   H25 3914   3.204   6.316   8.532  0.5855  0.3930 -0.8634
   53CHL1   C26 3915   3.118   6.156   8.654  0.5326  0.4575 -0.3543
   53CHL1  H26A 3916   3.135   6.050   8.679 -2.0416  0.3360  1.2698
   53CHL1  H26B 3917   3.122   6.213   8.749  2.6429  0.4409 -0.3883
   53CHL1  H26C 3918   3.013   6.162   8.616  0.4766 -1.0011 -0.4675
   53CHL1   C27 3919   3.361   6.201   8.615 -0.4610  0.9865 -0.3320
   53CHL1  H27A 3920   3.395   6.097   8.629 -1.0840  1.0365  2.0905
   53CHL1  H27B 3921   3.446   6.253   8.565  0.8272  0.1031  0.8568
   53CHL1  H27C 3922   3.359   6.245   8.717 -1.2177  3.5522 -1.3708
   54CHL1    C3 3923   2.313   1.610   6.800  0.0432  0.0742  0.1642
   54CHL1    H3 3924   2.409   1.650   6.759 -0.6509 -1.2552 -3.0062
   54CHL1    O3 3925   2.225   1.600   6.692  0.0349  0.1653 -0.2655
   54CHL1   H3' 3926   2.149   1.574   6.745 -0.1653  0.3911 -0.4417
   54CHL1    C4 3927   2.331   1.477   6.870  0.3147 -0.7896 -0.0847
   54CHL1   H4A 3928   2.232   1.430   6.890  0.8836 -2.1378 -0.3448
   54CHL1   H4B 3929   2.394   1.408   6.810  1.6066  0.2240  0.0822
   54CHL1    C5 3930   2.407   1.494   6.999  0.2315  0.5724  0.0856
   54CHL1    C6 3931   2.519   1.429   7.020 -0.1479  0.6952  0.1844
   54CHL1    H6 3932   2.554   1.361   6.941 -0.6761 -0.4523  0.9159
   54CHL1    C7 3933   2.593   1.433   7.153 -0.1082  0.0983  0.3369
   54CHL1   H7A 3934   2.617   1.326   7.171 -0.7191 -0.8335 -3.4957
   54CHL1   H7B 3935   2.693   1.481   7.152  0.4340 -0.9867 -0.3146
   54CHL1    C8 3936   2.511   1.487   7.266  0.7336  0.6084 -0.0231
   54CHL1    H8 3937   2.439   1.406   7.292 -1.3058  1.5060 -2.5116
   54CHL1   C14 3938   2.603   1.523   7.382 -0.1472 -0.3312 -0.3580
   54CHL1   H14 3939   2.675   1.603   7.357  0.6407 -0.4217  1.4979
   54CHL1   C15 3940   2.697   1.413   7.434  0.0824  0.2708  0.3533
   54CHL1  H15A 3941   2.633   1.325   7.458  0.1542  0.5576  1.6800
   54CHL1  H15B 3942   2.776   1.391   7.359 -0.9665  1.2192 -1.0623
   54CHL1   C16 3943   2.749   1.471   7.562  0.1458  0.0526  0.3131
   54CHL1  H16A 3944   2.753   1.380   7.626 -1.3809 -2.2765 -2.6278
   54CHL1  H16B 3945   2.852   1.507   7.545  1.0664 -2.3655  0.3862
   54CHL1   C17 3946   2.655   1.593   7.605 -0.3552  0.1981 -0.4410
   54CHL1   H17 3947   2.711   1.681   7.569 -0.4675 -0.3674 -2.1287
   54CHL1   C13 3948   2.537   1.586   7.505  0.2242 -0.2663 -1.1042
   54CHL1   C18 3949   2.439   1.481   7.569 -0.0311 -0.6156 -1.0074
   54CHL1  H18A 3950   2.371   1.437   7.494  0.7299 -1.0111 -1.4814
   54CHL1  H18B 3951   2.488   1.399   7.627  0.2087  1.0765  1.3719
   54CHL1  H18C 3952   2.386   1.538   7.648  1.4461 -0.5034 -0.0368
   54CHL1   C12 3953   2.462   1.715   7.475 -0.2076  0.2303  0.8262
   54CHL1  H12A 3954   2.387   1.730   7.556 -1.2895 -1.8927  0.2928
   54CHL1  H12B 3955   2.530   1.801   7.461 -1.0169  1.0306  1.6153
   54CHL1   C11 3956   2.371   1.684   7.354  0.2436  0.5075 -0.3354
   54CHL1  H11A 3957   2.284   1.624   7.391  1.7066 -1.4069  0.1438
   54CHL1  H11B 3958   2.339   1.782   7.311  1.0640  0.7473 -0.4115
   54CHL1    C9 3959   2.443   1.616   7.230 -0.5282 -0.2991  0.2569
   54CHL1    H9 3960   2.526   1.678   7.190 -0.3454  0.0333  1.1427
   54CHL1   C10 3961   2.353   1.594   7.102 -0.5617  0.2442  0.5200
   54CHL1   C19 3962   2.213   1.551   7.150  0.4217 -0.0799  0.0651
   54CHL1  H19A 3963   2.141   1.508   7.077 -0.6438  0.0187  1.0290
   54CHL1  H19B 3964   2.223   1.469   7.224 -1.5531  0.4524  0.9874
   54CHL1  H19C 3965   2.159   1.639   7.190  1.6579  1.0158 -0.5773
   54CHL1    C1 3966   2.336   1.724   7.028 -0.0899  1.0520 -0.7898
   54CHL1   H1A 3967   2.284   1.798   7.093 -5.2444 -0.4000 -2.8035
   54CHL1   H1B 3968   2.434   1.768   6.999  0.9840 -1.2833 -0.9337
   54CHL1    C2 3969   2.253   1.716   6.897 -0.3253  0.7762 -0.2266
   54CHL1   H2A 3970   2.241   1.818   6.855 -0.4898 -0.1680 -2.6140
   54CHL1   H2B 3971   2.148   1.685   6.914 -0.6872  2.3014  0.4825
   54CHL1   C20 3972   2.621   1.609   7.751  0.3345  0.3314 -0.1795
   54CHL1   H20 3973   2.532   1.552   7.785  0.9011  0.3471  1.3962
   54CHL1   C21 3974   2.597   1.763   7.776 -0.2660 -0.0810  0.3074
   54CHL1  H21A 3975   2.510   1.783   7.842  0.7692  2.6147  1.0021
   54CHL1  H21B 3976   2.569   1.810   7.679 -1.7982 -1.5012  0.0233
   54CHL1  H21C 3977   2.693   1.811   7.805 -0.2165 -0.5232  0.8912
   54CHL1   C22 3978   2.725   1.549   7.857 -1.3124  0.1880 -0.4159
   54CHL1  H22A 3979   2.744   1.441   7.841 -0.9944  0.0356  0.8642
   54CHL1  H22B 3980   2.815   1.614   7.847  0.3307 -2.0015 -0.4789
   54CHL1   C23 3981   2.683   1.571   8.006  0.4606 -0.0637  0.3365
   54CHL1  H23A 3982   2.675   1.680   8.020 -3.3336 -0.0411 -0.8692
   54CHL1  H23B 3983   2.588   1.524   8.039  0.1565  1.6127  1.9344
   54CHL1   C24 3984   2.772   1.510   8.108 -0.1149  0.1288 -0.2185
   54CHL1  H24A 3985   2.797   1.404   8.084 -0.5947 -0.0078 -0.1436
   54CHL1  H24B 3986   2.871   1.558   8.114 -0.4995  0.7450  1.7617
   54CHL1   C25 3987   2.726   1.505   8.251  0.0641 -0.4016 -0.7954
   54CHL1   H25 3988   2.651   1.587   8.259  0.3042 -0.1317 -1.2071
   54CHL1   C26 3989   2.652   1.371   8.286 -0.7270  0.9761  0.3085
   54CHL1  H26A 3990   2.723   1.292   8.253 -2.5754  0.1643 -1.9606
   54CHL1  H26B 3991   2.630   1.367   8.395 -0.3042 -0.5330  0.3631
   54CHL1  H26C 3992   2.556   1.349   8.236 -2.2115  1.2600  2.8445
   54CHL1   C27 3993   2.834   1.550   8.358 -0.1315  0.1540 -0.1945
   54CHL1  H27A 3994   2.934   1.513   8.327 -1.0885 -1.2381 -1.7637
   54CHL1  H27B 3995   2.832   1.659   8.378  3.9212  0.6863 -1.6379
   54CHL1  H27C 3996   2.813   1.496   8.452  2.6092 -1.2184 -0.2527
   55CHL1    C3 3997   2.447   2.618   7.132 -0.0404  0.5417 -0.4966
   55CHL1    H3 3998   2.552   2.600   7.166 -0.4745 -0.8536  0.1964
   55CHL1    O3 3999   2.456   2.627   6.990 -0.3254 -0.4475  0.0151
   55CHL1   H3' 4000   2.368   2.646   6.959 -0.7729 -0.7093  1.0722
   55CHL1    C4 4001   2.341   2.515   7.172  0.3155 -0.0623 -0.0683
   55CHL1   H4A 4002   2.240   2.533   7.129 -0.3129 -1.6461  0.6427
   55CHL1   H4B 4003   2.377   2.420   7.128  0.3769 -0.9886  1.8992
   55CHL1    C5 4004   2.317   2.507   7.318 -0.1851 -0.7263 -0.2437
   55CHL1    C6 4005   2.338   2.391   7.386 -0.3142 -0.0882  0.2783
   55CHL1    H6 4006   2.379   2.307   7.328  1.1819  0.9415 -0.1983
   55CHL1    C7 4007   2.326   2.372   7.535 -0.2037  0.8270 -0.6665
   55CHL1   H7A 4008   2.258   2.288   7.562 -0.3527  1.7004  1.9625
   55CHL1   H7B 4009   2.428   2.350   7.572 -1.3647 -3.5614  0.5544
   55CHL1    C8 4010   2.272   2.494   7.606  0.3333  0.5604  0.2198
   55CHL1    H8 4011   2.161   2.490   7.603  0.3093  0.4538  1.0947
   55CHL1   C14 4012   2.313   2.485   7.758 -0.5265 -0.0863  0.1512
   55CHL1   H14 4013   2.424   2.493   7.754 -0.5634  1.4844  1.6451
   55CHL1   C15 4014   2.289   2.349   7.832  0.5877  0.1303 -0.7829
   55CHL1  H15A 4015   2.184   2.324   7.805  0.3149  0.3050  0.0629
   55CHL1  H15B 4016   2.360   2.272   7.795 -0.2342 -1.3292  0.5494
   55CHL1   C16 4017   2.309   2.391   7.978 -0.8440 -0.3334  0.1031
   55CHL1  H16A 4018   2.214   2.365   8.029  0.1268  0.7898  2.6002
   55CHL1  H16B 4019   2.402   2.338   8.006 -0.0593  0.8365 -0.2517
   55CHL1   C17 4020   2.318   2.547   7.986 -0.2625 -0.5141 -0.5541
   55CHL1   H17 4021   2.425   2.573   7.974 -0.1348 -0.4321  0.6212
   55CHL1   C13 4022   2.260   2.592   7.851 -0.4761 -0.4525  0.1192
   55CHL1   C18 4023   2.106   2.599   7.850  0.0406 -0.2780  0.7652
   55CHL1  H18A 4024   2.053   2.578   7.755  0.4064  0.6650  0.3477
   55CHL1  H18B 4025   2.070   2.531   7.931  1.2538 -1.8628  0.0286
   55CHL1  H18C 4026   2.075   2.702   7.879  0.6314  0.3517 -0.7792
   55CHL1   C12 4027   2.316   2.724   7.789  0.4194 -0.1868 -0.3310
   55CHL1  H12A 4028   2.268   2.803   7.851 -2.1153 -2.9151  1.4456
   55CHL1  H12B 4029   2.426   2.715   7.803  0.1951 -1.5568  0.8420
   55CHL1   C11 4030   2.278   2.740   7.640  0.5507 -0.0594  0.0499
   55CHL1  H11A 4031   2.170   2.753   7.617  0.1212 -1.7559  0.9184
   55CHL1  H11B 4032   2.327   2.836   7.610  1.8863  0.3238  3.1123
   55CHL1    C9 4033   2.323   2.628   7.542 -0.0647  0.4804 -0.7514
   55CHL1    H9 4034   2.434   2.625   7.545  0.0443 -1.7576 -3.1361
   55CHL1   C10 4035   2.291   2.639   7.391  0.2035  0.1015 -0.5843
   55CHL1   C19 4036   2.140   2.675   7.376 -0.0938  0.0186  0.2035
   55CHL1  H19A 4037   2.109   2.666   7.270 -0.4688 -0.1758  0.3278
   55CHL1  H19B 4038   2.076   2.609   7.438 -1.2100  2.7218  2.1196
   55CHL1  H19C 4039   2.119   2.781   7.402 -0.1706 -0.1138  0.6936
   55CHL1    C1 4040   2.389   2.749   7.332 -0.0562 -0.0454  0.0513
   55CHL1   H1A 4041   2.349   2.843   7.377  1.1562  0.8094 -0.5626
   55CHL1   H1B 4042   2.492   2.732   7.370  0.2839 -0.6898 -1.1328
   55CHL1    C2 4043   2.407   2.755   7.187 -0.5123  0.4470 -0.2743
   55CHL1   H2A 4044   2.486   2.827   7.156 -1.4727  1.1459 -1.1886
   55CHL1   H2B 4045   2.310   2.786   7.144 -0.5639 -0.9515 -1.2304
   55CHL1   C20 4046   2.273   2.616   8.112  0.2610  0.6399 -0.5675
   55CHL1   H20 4047   2.168   2.652   8.101 -0.7120 -1.3219  1.4668
   55CHL1   C21 4048   2.362   2.741   8.137  0.5354 -0.4415 -0.3016
   55CHL1  H21A 4049   2.358   2.775   8.243  0.6786  0.8484 -0.6852
   55CHL1  H21B 4050   2.339   2.825   8.068  2.4792 -0.4388 -0.9871
   55CHL1  H21C 4051   2.467   2.715   8.116  1.3188 -0.0849  2.7119
   55CHL1   C22 4052   2.274   2.511   8.226 -0.1917 -0.2582 -0.1024
   55CHL1  H22A 4053   2.191   2.438   8.214  0.5962 -1.0664 -0.6890
   55CHL1  H22B 4054   2.361   2.443   8.229 -0.0619 -0.1666 -1.4994
   55CHL1   C23 4055   2.254   2.560   8.365 -0.3436 -0.1661 -0.4553
   55CHL1  H23A 4056   2.334   2.626   8.405 -1.6128 -0.1884  2.3629
   55CHL1  H23B 4057   2.163   2.622   8.373  1.3303  2.3665  0.1127
   55CHL1   C24 4058   2.250   2.436   8.464  0.5990 -0.7973  0.0719
   55CHL1  H24A 4059   2.161   2.379   8.430  0.2219 -0.7107  0.8770
   55CHL1  H24B 4060   2.335   2.366   8.453  0.7339 -0.5733 -0.3358
   55CHL1   C25 4061   2.235   2.482   8.612 -0.0236  0.0564  0.0545
   55CHL1   H25 4062   2.155   2.559   8.621 -0.3600 -0.4459  1.9390
   55CHL1   C26 4063   2.184   2.369   8.700  1.0094 -0.5704  0.0885
   55CHL1  H26A 4064   2.261   2.289   8.704  1.0655 -0.5431 -0.3741
   55CHL1  H26B 4065   2.159   2.404   8.803 -0.5315 -0.7585 -0.2072
   55CHL1  H26C 4066   2.096   2.335   8.643  0.5569 -0.3453  0.6408
   55CHL1   C27 4067   2.366   2.530   8.668  0.3691 -0.6355 -0.2046
   55CHL1  H27A 4068   2.441   2.449   8.666  1.2424  0.1459  0.2762
   55CHL1  H27B 4069   2.399   2.613   8.602  1.1153  0.4758  1.5127
   55CHL1  H27C 4070   2.332   2.572   8.765 -1.4194 -0.4331 -0.8837
   56CHL1    C3 4071   0.780   1.334   6.834  1.0157  0.4285 -0.6975
   56CHL1    H3 4072   0.695   1.406   6.844  1.4398  0.9607 -0.8535
   56CHL1    O3 4073   0.839   1.329   6.705 -0.6780 -0.1501 -0.5603
   56CHL1   H3' 4074   0.850   1.421   6.681 -1.3662  0.0584 -0.1202
   56CHL1    C4 4075   0.880   1.368   6.948  0.3656 -0.4031 -0.1587
   56CHL1   H4A 4076   0.965   1.297   6.936 -0.3470 -1.2370 -0.3608
   56CHL1   H4B 4077   0.919   1.470   6.928  2.0617 -0.8165  0.8434
   56CHL1    C5 4078   0.825   1.368   7.086 -0.7516 -0.7166 -0.2140
   56CHL1    C6 4079   0.830   1.478   7.167 -0.4781 -0.1394  0.3730
   56CHL1    H6 4080   0.877   1.571   7.132 -1.7864  0.2330 -0.4635
   56CHL1    C7 4081   0.774   1.481   7.302 -0.0210  0.7241  0.2458
   56CHL1   H7A 4082   0.830   1.531   7.384  0.1861 -0.4477  0.8545
   56CHL1   H7B 4083   0.673   1.526   7.296  0.3539  1.4558 -0.7608
   56CHL1    C8 4084   0.734   1.341   7.353 -0.4546 -0.1014 -0.2048
   56CHL1    H8 4085   0.831   1.295   7.381  0.8454  1.4290 -1.9141
   56CHL1   C14 4086   0.650   1.356   7.480 -0.7022  0.3653  0.2999
   56CHL1   H14 4087   0.562   1.415   7.447  1.3813  2.7645 -1.4222
   56CHL1   C15 4088   0.714   1.434   7.597 -0.4912  0.0692  0.1929
   56CHL1  H15A 4089   0.817   1.394   7.602 -0.7889 -0.6742  0.6390
   56CHL1  H15B 4090   0.707   1.544   7.580  1.0555  0.1620  0.0942
   56CHL1   C16 4091   0.625   1.393   7.716 -0.5671  0.4509 -0.7205
   56CHL1  H16A 4092   0.701   1.366   7.792  1.3249  0.7204 -2.4316
   56CHL1  H16B 4093   0.566   1.479   7.754 -0.3164  0.0492  0.6362
   56CHL1   C17 4094   0.522   1.285   7.673  0.2124 -0.4382 -0.0591
   56CHL1   H17 4095   0.435   1.343   7.636  1.7839  1.2968 -1.2072
   56CHL1   C13 4096   0.591   1.225   7.544  0.9082  0.5138 -0.3965
   56CHL1   C18 4097   0.700   1.130   7.589  0.2281  0.4030 -0.7501
   56CHL1  H18A 4098   0.652   1.044   7.642  0.8433  0.7491  0.4263
   56CHL1  H18B 4099   0.764   1.101   7.503 -1.1375  0.8867 -1.9637
   56CHL1  H18C 4100   0.772   1.175   7.661  0.8940 -2.0904  0.2658
   56CHL1   C12 4101   0.505   1.147   7.441 -0.1485  0.4874  0.1972
   56CHL1  H12A 4102   0.481   1.042   7.469 -1.3291  0.6830 -0.0609
   56CHL1  H12B 4103   0.415   1.207   7.419  0.6802  0.9190 -2.4345
   56CHL1   C11 4104   0.593   1.128   7.308  0.1405  0.0324  0.0804
   56CHL1  H11A 4105   0.682   1.065   7.329  0.4085  0.9468  1.9059
   56CHL1  H11B 4106   0.532   1.076   7.231 -0.3727 -1.1152  1.2265
   56CHL1    C9 4107   0.652   1.256   7.249 -0.2014  0.0243 -0.2234
   56CHL1    H9 4108   0.557   1.310   7.230  0.1520  0.6709 -0.1835
   56CHL1   C10 4109   0.742   1.240   7.123 -0.0907 -0.3657 -0.0178
   56CHL1   C19 4110   0.841   1.135   7.148  0.0223  0.1537 -0.4747
   56CHL1  H19A 4111   0.805   1.037   7.186 -0.8152  0.2847 -0.9169
   56CHL1  H19B 4112   0.909   1.120   7.061 -0.2782  1.6525 -0.9924
   56CHL1  H19C 4113   0.917   1.181   7.215  1.4175  3.7647 -4.0938
   56CHL1    C1 4114   0.650   1.187   7.008  0.1388 -0.0099  0.2982
   56CHL1   H1A 4115   0.623   1.080   7.026  1.8193 -0.3176  1.1784
   56CHL1   H1B 4116   0.557   1.247   6.998 -0.7679 -1.4658 -0.5650
   56CHL1    C2 4117   0.718   1.198   6.867  0.4686 -0.9356 -0.2738
   56CHL1   H2A 4118   0.644   1.161   6.793 -0.0195 -2.3361  0.8800
   56CHL1   H2B 4119   0.808   1.133   6.865  1.2037  0.0672 -1.5974
   56CHL1   C20 4120   0.483   1.189   7.781  0.1663 -0.4749 -0.5222
   56CHL1   H20 4121   0.564   1.114   7.787  1.1236  0.4702 -1.4237
   56CHL1   C21 4122   0.353   1.131   7.728  0.1052  0.5844 -0.1299
   56CHL1  H21A 4123   0.289   1.210   7.683 -0.7348 -0.4405 -0.7948
   56CHL1  H21B 4124   0.294   1.083   7.808  0.3095  2.8124  1.4567
   56CHL1  H21C 4125   0.378   1.064   7.643 -0.3491  1.0752 -0.6634
   56CHL1   C22 4126   0.474   1.256   7.922 -0.0493  0.3656 -0.5462
   56CHL1  H22A 4127   0.566   1.312   7.951 -0.8568  0.2674  2.5058
   56CHL1  H22B 4128   0.395   1.334   7.924 -1.2738 -0.8217  2.0698
   56CHL1   C23 4129   0.440   1.155   8.031 -0.1696  0.3311  0.2611
   56CHL1  H23A 4130   0.334   1.126   8.021 -0.1669 -0.7490  2.8150
   56CHL1  H23B 4131   0.502   1.064   8.021  1.8612  1.7302 -0.6946
   56CHL1   C24 4132   0.449   1.214   8.173 -0.3472 -0.6523  0.4280
   56CHL1  H24A 4133   0.526   1.293   8.182 -1.6635  0.8148 -0.6978
   56CHL1  H24B 4134   0.351   1.260   8.200 -0.6101 -0.1037 -1.3361
   56CHL1   C25 4135   0.490   1.111   8.288 -0.3562 -0.1768 -0.7585
   56CHL1   H25 4136   0.415   1.029   8.281  0.1442 -0.9471  1.7265
   56CHL1   C26 4137   0.629   1.049   8.259  0.5730 -0.2930  0.3545
   56CHL1  H26A 4138   0.669   0.989   8.344  1.0474  2.4133  2.1652
   56CHL1  H26B 4139   0.701   1.130   8.232  0.5589 -0.1541  0.7295
   56CHL1  H26C 4140   0.615   0.985   8.169 -2.3121  0.6919  0.0083
   56CHL1   C27 4141   0.492   1.157   8.434 -0.9566  0.4129 -0.2696
   56CHL1  H27A 4142   0.546   1.085   8.500 -2.6800 -0.7312 -0.0313
   56CHL1  H27B 4143   0.539   1.258   8.436  0.9496 -0.4153 -0.5298
   56CHL1  H27C 4144   0.390   1.169   8.477 -0.9204 -0.2036  0.0056
   57SAPC     N 4145   2.298   4.449  11.128 -0.0220 -0.1817 -0.1050
   57SAPC   C12 4146   2.196   4.460  11.019  0.3691  0.6313  0.5851
   57SAPC  H12A 4147   2.119   4.528  11.051 -1.3922 -1.3186  0.6999
   57SAPC  H12B 4148   2.146   4.366  11.001  0.8015  0.6032 -0.4958
   57SAPC   C13 4149   2.356   4.585  11.152  0.5813  0.2495  0.1655
   57SAPC  H13A 4150   2.275   4.655  11.166 -1.0138 -1.6389  0.9101
   57SAPC  H13B 4151   2.410   4.589  11.245  0.8500  0.8057 -0.0090
   57SAPC  H13C 4152   2.415   4.617  11.067 -0.9482  1.4057 -0.4958
   57SAPC   C14 4153   2.222   4.416  11.257 -0.2015 -0.3402 -0.0211
   57SAPC  H14A 4154   2.283   4.396  11.343 -2.3491 -0.2678  1.6187
   57SAPC  H14B 4155   2.183   4.509  11.296  1.3715  0.6734 -0.7483
   57SAPC  H14C 4156   2.156   4.331  11.245 -1.6525  0.8140 -0.6245
   57SAPC   C15 4157   2.403   4.351  11.104  0.0385 -0.4597  0.1838
   57SAPC  H15A 4158   2.485   4.364  11.173  1.0978 -1.9309 -0.7377
   57SAPC  H15B 4159   2.366   4.249  11.106  0.3585 -0.5746  0.3061
   57SAPC  H15C 4160   2.443   4.367  11.005 -0.2286  0.5060  0.2234
   57SAPC   C11 4161   2.257   4.504  10.883 -0.2860  0.7169 -0.2526
   57SAPC  H11A 4162   2.316   4.598  10.891 -0.9338  1.0505  0.8973
   57SAPC  H11B 4163   2.169   4.534  10.823 -0.6161  1.6535  0.6629
   57SAPC     P 4164   2.279   4.270  10.782  0.2714  0.1176 -0.0096
   57SAPC   O13 4165   2.365   4.166  10.835 -0.1991  0.0985  0.2532
   57SAPC   O14 4166   2.138   4.262  10.821 -0.1940 -0.1404 -0.0659
   57SAPC   O12 4167   2.337   4.409  10.824  0.7107  0.3542 -0.6051
   57SAPC   O11 4168   2.277   4.271  10.628 -0.3688  0.2169 -0.3635
   57SAPC    C1 4169   2.347   4.372  10.552  0.2878 -1.1282  0.4127
   57SAPC    HA 4170   2.287   4.466  10.549  1.1228 -0.6019 -0.2765
   57SAPC    HB 4171   2.446   4.392  10.597 -1.0871 -1.5376  3.9414
   57SAPC    C2 4172   2.369   4.330  10.406 -0.1077 -0.3038 -0.4104
   57SAPC    HS 4173   2.393   4.425  10.353 -1.4547  1.1396  1.4018
   57SAPC   O21 4174   2.248   4.280  10.348 -0.2672 -0.0638  0.0462
   57SAPC   C21 4175   2.143   4.371  10.334 -0.5921  0.0303  0.5223
   57SAPC   O22 4176   2.151   4.492  10.353 -0.0602 -0.3112  0.3686
   57SAPC   C22 4177   2.019   4.302  10.271 -0.9040 -0.1574  0.4585
   57SAPC   H2R 4178   2.054   4.202  10.237 -3.5392 -1.7035  1.8626
   57SAPC   H2S 4179   1.948   4.270  10.351 -2.6705  0.2754 -0.8766
   57SAPC    C3 4180   2.486   4.229  10.388  0.1240  0.0865 -0.0214
   57SAPC    HX 4181   2.461   4.131  10.435  0.2681  0.1290  0.1449
   57SAPC    HY 4182   2.566   4.280  10.446 -1.7360 -0.1608  2.9963
   57SAPC   O31 4183   2.525   4.204  10.256  0.7546 -0.5438 -0.0624
   57SAPC   C31 4184   2.468   4.110  10.189  0.5596  0.0706  0.2337
   57SAPC   O32 4185   2.388   4.021  10.223  0.0948 -0.2935 -0.3704
   57SAPC   C32 4186   2.559   4.108  10.064 -0.3545 -0.0070  0.4073
   57SAPC   H2X 4187   2.638   4.034  10.091 -2.1293 -2.1282  0.1064
   57SAPC   H2Y 4188   2.598   4.210  10.043  0.0458  0.0103  1.2014
   57SAPC   C23 4189   1.969   4.385  10.150 -0.0369  0.3704 -0.4732
   57SAPC   H3R 4190   2.054   4.415  10.086 -0.0957 -2.6332 -2.1495
   57SAPC   H3S 4191   1.928   4.481  10.187 -1.7644 -0.4141 -0.2413
   57SAPC   C24 4192   1.864   4.314  10.066  0.0503 -0.0198  0.2123
   57SAPC   H4R 4193   1.774   4.292  10.126 -1.7886 -1.5211 -2.8694
   57SAPC   H4S 4194   1.897   4.211  10.041 -1.0580 -0.4076  0.2981
   57SAPC   C25 4195   1.819   4.389   9.939  0.3271  1.0426 -0.4826
   57SAPC   H5R 4196   1.750   4.474   9.949 -1.2378 -0.3331  1.1034
   57SAPC   C26 4197   1.872   4.367   9.817 -0.1652 -0.3054  0.2177
   57SAPC   H6R 4198   1.839   4.436   9.739  0.1039  2.4529  2.3804
   57SAPC   C27 4199   1.977   4.266   9.780 -0.4260 -1.0332  0.0750
   57SAPC   H7R 4200   1.927   4.170   9.754 -2.6268  0.4780 -1.6947
   57SAPC   H7S 4201   2.044   4.246   9.866  1.0276  2.8033  0.0075
   57SAPC   C28 4202   2.061   4.309   9.665  0.1020 -0.6164  0.7426
   57SAPC   H8R 4203   2.098   4.413   9.666 -0.4523 -0.3824 -0.9582
   57SAPC   C29 4204   2.085   4.251   9.547 -0.1428  0.1214  0.4885
   57SAPC   H9R 4205   2.150   4.305   9.477 -1.0442 -0.4683 -0.8408
   57SAPC  C210 4206   2.037   4.120   9.504  0.0571  0.0088  0.4271
   57SAPC  H10R 4207   2.019   4.057   9.593 -0.8250  0.1592  0.3663
   57SAPC  H10S 4208   2.124   4.074   9.451 -0.0051 -0.7804  1.0027
   57SAPC  C211 4209   1.926   4.121   9.406 -0.3248  0.1837 -0.0629
   57SAPC  H11R 4210   1.831   4.100   9.458  1.0913 -0.2776  2.4975
   57SAPC  C212 4211   1.924   4.141   9.280 -0.1792  0.5385 -1.0416
   57SAPC  H12R 4212   1.828   4.127   9.228 -0.5772  1.0611 -0.4521
   57SAPC  C213 4213   2.038   4.168   9.185  0.1724  0.0296 -0.0119
   57SAPC  H13R 4214   2.103   4.252   9.219  0.9515 -0.7260  0.4230
   57SAPC  H13S 4215   1.985   4.212   9.098  1.2980  0.3941 -0.5394
   57SAPC  C214 4216   2.123   4.045   9.166  0.4065 -0.0001  0.0488
   57SAPC  H14R 4217   2.126   3.982   9.256 -2.0712  2.2478  1.8844
   57SAPC  C215 4218   2.196   4.018   9.064 -0.8067 -0.0549  0.6350
   57SAPC  H15R 4219   2.252   3.924   9.072 -0.9833 -0.0369  2.7507
   57SAPC  C216 4220   2.197   4.100   8.936 -0.7738  0.4677 -0.7187
   57SAPC  H16R 4221   2.278   4.176   8.942  0.0083 -0.1397 -2.8120
   57SAPC  H16S 4222   2.102   4.158   8.931 -1.2041  0.2215  2.4646
   57SAPC  C217 4223   2.198   4.023   8.802 -0.1524 -0.4155  0.0063
   57SAPC  H17R 4224   2.213   4.100   8.724 -2.4396  1.5579  1.3770
   57SAPC  H17S 4225   2.099   3.974   8.793  1.0270 -2.8208 -0.7249
   57SAPC  C218 4226   2.302   3.914   8.787  0.1420 -0.4144 -0.4990
   57SAPC  H18R 4227   2.286   3.866   8.688 -2.4194 -1.0369  0.1413
   57SAPC  H18S 4228   2.299   3.833   8.863 -1.5156 -0.0540 -0.1580
   57SAPC  C219 4229   2.438   3.974   8.794  0.0483  0.2905 -0.4467
   57SAPC  H19R 4230   2.447   4.025   8.892 -0.7982 -0.1223 -0.1423
   57SAPC  H19S 4231   2.449   4.052   8.716 -0.4287 -0.0693 -0.8849
   57SAPC  C220 4232   2.540   3.862   8.788 -0.2856  0.1612 -0.6463
   57SAPC  H20R 4233   2.520   3.797   8.701  0.1586 -0.6912 -0.1235
   57SAPC  H20S 4234   2.547   3.793   8.875 -0.1387 -2.1906 -2.4205
   57SAPC  H20T 4235   2.643   3.898   8.765 -0.8264  2.5218  0.2766
   57SAPC   C33 4236   2.506   4.052   9.935 -0.0929 -0.4047  0.7911
   57SAPC   H3X 4237   2.436   3.966   9.939 -0.3687 -0.2297 -0.0235
   57SAPC   H3Y 4238   2.590   4.027   9.867 -0.0180  1.8920 -0.0346
   57SAPC   C34 4239   2.420   4.155   9.855 -0.2010  0.0931  0.7862
   57SAPC   H4X 4240   2.357   4.230   9.907  0.0791  2.2455 -1.7343
   57SAPC   H4Y 4241   2.354   4.090   9.794  1.0468 -0.1433 -0.3812
   57SAPC   C35 4242   2.508   4.244   9.756  0.3563 -0.0585  0.1715
   57SAPC   H5X 4243   2.580   4.176   9.706  0.3162 -0.0203  0.0604
   57SAPC   H5Y 4244   2.558   4.331   9.804  0.7471  0.2543 -0.7682
   57SAPC   C36 4245   2.421   4.299   9.632 -0.0040  0.2331 -0.1163
   57SAPC   H6X 4246   2.355   4.383   9.661  0.4297  0.6682 -0.3805
   57SAPC   H6Y 4247   2.357   4.210   9.614  0.8390 -0.6392  1.0436
   57SAPC   C37 4248   2.505   4.320   9.513 -0.7453  0.2636  0.3813
   57SAPC   H7X 4249   2.574   4.233   9.512 -1.2585 -0.1699  1.3686
   57SAPC   H7Y 4250   2.568   4.409   9.536 -0.2420  0.0532 -0.1620
   57SAPC   C38 4251   2.437   4.316   9.376 -0.4090 -0.9700 -0.3621
   57SAPC   H8X 4252   2.383   4.413   9.369  0.0296 -0.5221  1.8703
   57SAPC   H8Y 4253   2.367   4.229   9.381 -3.8210  1.5486 -0.9612
   57SAPC   C39 4254   2.532   4.308   9.256  0.3835 -0.5462 -0.0628
   57SAPC   H9X 4255   2.587   4.211   9.257 -0.8594 -1.3009 -1.4572
   57SAPC   H9Y 4256   2.604   4.389   9.281 -1.3220  1.6938 -1.9860
   57SAPC  C310 4257   2.480   4.347   9.114 -0.5289 -1.1606 -0.1483
   57SAPC  H10X 4258   2.444   4.452   9.113 -1.8366 -1.5821 -1.4819
   57SAPC  H10Y 4259   2.398   4.276   9.087 -0.5022 -1.2455 -0.0082
   57SAPC  C311 4260   2.592   4.331   9.013 -0.0838 -0.0781  0.0965
   57SAPC  H11X 4261   2.622   4.224   9.018 -0.9221 -0.5313 -2.7973
   57SAPC  H11Y 4262   2.679   4.396   9.037 -0.0855 -0.0138 -0.0669
   57SAPC  C312 4263   2.544   4.362   8.871  0.2517 -0.5001  0.4935
   57SAPC  H12X 4264   2.537   4.472   8.853  0.9687 -0.4582  0.4428
   57SAPC  H12Y 4265   2.452   4.305   8.847  0.6481 -0.8094 -0.3321
   57SAPC  C313 4266   2.658   4.316   8.784 -0.1305  0.3327  0.5550
   57SAPC  H13X 4267   2.683   4.210   8.804 -0.8986  0.2723  1.2451
   57SAPC  H13Y 4268   2.749   4.380   8.795 -0.8225  1.2904  0.8444
   57SAPC  C314 4269   2.617   4.308   8.635 -0.3527 -0.3937 -0.4747
   57SAPC  H14X 4270   2.618   4.412   8.595  1.2611 -0.0327  0.4204
   57SAPC  H14Y 4271   2.511   4.277   8.620 -0.7210  0.3350  0.4978
   57SAPC  C315 4272   2.704   4.223   8.536 -0.3750  0.4452 -0.4568
   57SAPC  H15X 4273   2.667   4.246   8.434  3.7566 -1.2092 -2.5614
   57SAPC  H15Y 4274   2.693   4.115   8.559  2.4133  0.5111  1.6980
   57SAPC  C316 4275   2.853   4.264   8.529  0.5349 -0.3310  0.2470
   57SAPC  H16X 4276   2.892   4.257   8.632 -1.5030  2.9111  1.3762
   57SAPC  H16Y 4277   2.846   4.372   8.505 -2.2784 -0.6385 -0.7259
   57SAPC  C317 4278   2.939   4.189   8.429  1.2866 -0.2740  0.4820
   57SAPC  H17X 4279   2.948   4.084   8.464 -0.2590 -0.9388 -0.9815
   57SAPC  H17Y 4280   3.041   4.232   8.435  2.3576 -2.6914  0.8815
   57SAPC  C318 4281   2.894   4.192   8.280  0.4312 -0.1320  0.3952
   57SAPC  H18X 4282   2.845   4.096   8.252 -1.0852  1.4727 -2.9121
   57SAPC  H18Y 4283   2.983   4.195   8.214 -1.1526  1.5361 -1.7839
   57SAPC  H18Z 4284   2.819   4.266   8.246  0.7931 -0.4044 -1.0738
   58SAPC     N 4285   4.572   0.971  10.835  0.0441  0.3547  0.0091
   58SAPC   C12 4286   4.584   1.117  10.794 -0.5131 -0.8537  0.2565
   58SAPC  H12A 4287   4.684   1.155  10.809  0.0902 -1.5385 -1.7251
   58SAPC  H12B 4288   4.522   1.182  10.855  1.3342  1.7096 -0.4293
   58SAPC   C13 4289   4.614   0.938  10.972  0.3253  0.1672 -0.3388
   58SAPC  H13A 4290   4.582   1.006  11.049  0.9735  0.1983 -0.0938
   58SAPC  H13B 4291   4.605   0.835  11.004  2.9616 -0.1052 -0.3051
   58SAPC  H13C 4292   4.721   0.943  10.969  0.4500 -1.7141 -0.2422
   58SAPC   C14 4293   4.423   0.938  10.826  0.2109  0.2172  0.2383
   58SAPC  H14A 4294   4.356   0.992  10.891 -2.3154 -1.5513 -0.7490
   58SAPC  H14B 4295   4.370   0.964  10.735 -2.5720  1.6488  2.1181
   58SAPC  H14C 4296   4.407   0.834  10.851  1.2297 -0.2129 -0.8270
   58SAPC   C15 4297   4.646   0.887  10.737 -0.0576 -0.5575  0.4487
   58SAPC  H15A 4298   4.633   0.912  10.633  0.1571 -3.2068 -0.2694
   58SAPC  H15B 4299   4.749   0.913  10.757 -0.0810 -0.0091 -0.1107
   58SAPC  H15C 4300   4.639   0.780  10.742  1.2757 -0.7705 -1.3588
   58SAPC   C11 4301   4.558   1.147  10.646  0.4072  0.0285  0.3408
   58SAPC  H11A 4302   4.542   1.257  10.645 -1.6061 -0.2347 -0.3600
   58SAPC  H11B 4303   4.459   1.103  10.620 -0.7044  1.5302  1.7815
   58SAPC     P 4304   4.800   1.192  10.555 -0.0126 -0.0452  0.1679
   58SAPC   O13 4305   4.852   1.208  10.691  0.3747  0.2377  0.1534
   58SAPC   O14 4306   4.884   1.125  10.461 -0.4943  0.0886 -0.1860
   58SAPC   O12 4307   4.668   1.110  10.565 -0.2507 -0.5068  0.5949
   58SAPC   O11 4308   4.750   1.335  10.505  0.1070  0.1414 -0.4468
   58SAPC    C1 4309   4.662   1.370  10.406  0.5481  0.3507 -0.6953
   58SAPC    HA 4310   4.568   1.318  10.432  0.8224  0.7783  1.3019
   58SAPC    HB 4311   4.649   1.480  10.404  0.8861  0.5000  2.0140
   58SAPC    C2 4312   4.700   1.330  10.259 -0.2607  0.3330 -0.6104
   58SAPC    HS 4313   4.719   1.221  10.250  0.7321  0.5097 -0.8133
   58SAPC   O21 4314   4.815   1.412  10.206  0.2441 -0.6042 -0.1145
   58SAPC   C21 4315   4.903   1.333  10.144  0.2845 -0.2032  0.3287
   58SAPC   O22 4316   4.896   1.208  10.125 -0.4689 -0.3822 -0.8665
   58SAPC   C22 4317   5.018   1.423  10.103  0.2592 -0.4186 -0.1733
   58SAPC   H2R 4318   4.983   1.524  10.072  0.8517 -0.1655 -0.0414
   58SAPC   H2S 4319   5.085   1.449  10.188  1.3739  0.8549 -1.3730
   58SAPC    C3 4320   4.578   1.366  10.168  0.2803  0.1780  0.0656
   58SAPC    HX 4321   4.574   1.476  10.178  2.9500  0.3495 -0.0999
   58SAPC    HY 4322   4.491   1.302  10.194 -0.0027  0.2820 -0.5872
   58SAPC   O31 4323   4.612   1.340  10.024 -0.6011  0.0377 -1.0560
   58SAPC   C31 4324   4.533   1.385   9.937 -0.4205  0.5080  0.0635
   58SAPC   O32 4325   4.441   1.468   9.948  0.4644  0.1432 -0.0199
   58SAPC   C32 4326   4.574   1.316   9.806 -0.5673 -0.0861  0.3833
   58SAPC   H2X 4327   4.531   1.217   9.831 -2.4038  0.3073 -1.0089
   58SAPC   H2Y 4328   4.683   1.294   9.815 -0.6745 -0.2929  1.1721
   58SAPC   C23 4329   5.104   1.358   9.994  0.0725 -0.2184  0.1937
   58SAPC   H3R 4330   5.110   1.249  10.014 -0.7145 -0.6495 -1.6955
   58SAPC   H3S 4331   5.211   1.388   9.996  0.5241 -1.7491  0.1098
   58SAPC   C24 4332   5.040   1.364   9.855  0.7670 -0.8269  0.0721
   58SAPC   H4R 4333   5.051   1.471   9.827  0.3534 -1.0213 -0.8895
   58SAPC   H4S 4334   4.933   1.339   9.868  0.2985  0.3258 -1.2382
   58SAPC   C25 4335   5.115   1.272   9.766  0.0223 -0.0557 -0.2093
   58SAPC   H5R 4336   5.178   1.202   9.822 -0.7168  0.9136  1.9126
   58SAPC   C26 4337   5.104   1.261   9.635  0.0356 -0.2006 -1.0042
   58SAPC   H6R 4338   5.172   1.193   9.582 -0.3631 -1.4479  0.0218
   58SAPC   C27 4339   5.013   1.334   9.545 -0.1149 -0.5162  0.2745
   58SAPC   H7R 4340   5.015   1.443   9.566  0.0005 -0.7921  1.7475
   58SAPC   H7S 4341   4.910   1.307   9.575  0.2361 -0.4792  1.5530
   58SAPC   C28 4342   5.031   1.310   9.396 -0.3265  0.3063  0.3630
   58SAPC   H8R 4343   4.970   1.231   9.351 -1.3845  0.1283  2.0427
   58SAPC   C29 4344   5.124   1.370   9.314 -0.1118 -0.2024 -0.5213
   58SAPC   H9R 4345   5.133   1.333   9.210  1.4165  0.9160 -0.8267
   58SAPC  C210 4346   5.223   1.469   9.367 -0.2006  0.2682  0.3662
   58SAPC  H10R 4347   5.323   1.422   9.381  0.4933  1.5430 -0.1241
   58SAPC  H10S 4348   5.200   1.499   9.472 -1.3876  0.7135 -0.0088
   58SAPC  C211 4349   5.234   1.592   9.279  0.1956 -0.3973 -0.3132
   58SAPC  H11R 4350   5.165   1.674   9.303 -0.0339 -1.2661  2.3246
   58SAPC  C212 4351   5.318   1.614   9.172 -0.5178 -0.6593  0.0460
   58SAPC  H12R 4352   5.318   1.716   9.132 -0.6749 -0.1206  1.3772
   58SAPC  C213 4353   5.422   1.524   9.118 -0.5144 -0.3583  0.1047
   58SAPC  H13R 4354   5.503   1.510   9.193 -1.0510  1.5227  1.0806
   58SAPC  H13S 4355   5.466   1.565   9.024  1.7439 -1.1280  0.7651
   58SAPC  C214 4356   5.369   1.394   9.066  0.0413 -0.0336 -0.7114
   58SAPC  H14R 4357   5.271   1.400   9.018 -0.2096 -1.3225 -0.3851
   58SAPC  C215 4358   5.436   1.277   9.048  0.0387 -0.0436 -0.1450
   58SAPC  H15R 4359   5.374   1.191   9.016 -0.0051 -0.7011  1.5920
   58SAPC  C216 4360   5.581   1.253   9.091  0.6628  0.3236 -0.2916
   58SAPC  H16R 4361   5.588   1.208   9.192  4.3069  2.6751  0.6894
   58SAPC  H16S 4362   5.626   1.354   9.102 -1.5059  1.2084  1.4143
   58SAPC  C217 4363   5.676   1.176   8.996 -0.1998  0.0518  0.1895
   58SAPC  H17R 4364   5.780   1.192   9.030  0.4686 -0.7870 -1.4011
   58SAPC  H17S 4365   5.667   1.210   8.891  1.7891  0.5727  0.1496
   58SAPC  C218 4366   5.656   1.016   9.004  0.8751 -1.0212  0.9582
   58SAPC  H18R 4367   5.550   0.985   8.990 -0.3828  2.2370  2.3133
   58SAPC  H18S 4368   5.671   0.989   9.111  0.7815 -1.0265  0.9703
   58SAPC  C219 4369   5.742   0.946   8.893  1.0223 -0.0088  0.3289
   58SAPC  H19R 4370   5.846   0.985   8.902  0.7471  0.5492  1.2004
   58SAPC  H19S 4371   5.703   0.968   8.791  0.3746 -0.6869  0.4273
   58SAPC  C220 4372   5.758   0.794   8.910 -0.3332  0.2514  0.4592
   58SAPC  H20R 4373   5.830   0.751   8.836 -0.6270  1.8545 -0.8281
   58SAPC  H20S 4374   5.660   0.747   8.891 -0.3039 -0.3975  1.8184
   58SAPC  H20T 4375   5.776   0.762   9.014 -1.4573 -0.0691  0.5646
   58SAPC   C33 4376   4.536   1.388   9.676  0.3251 -0.3878  0.3265
   58SAPC   H3X 4377   4.585   1.487   9.683  0.7068 -0.5713  0.2785
   58SAPC   H3Y 4378   4.429   1.417   9.672  0.7212  1.0119 -1.9097
   58SAPC   C34 4379   4.578   1.317   9.547  0.5490  0.1111 -0.4019
   58SAPC   H4X 4380   4.488   1.263   9.510  1.0316 -0.5418 -0.6275
   58SAPC   H4Y 4381   4.656   1.241   9.567 -0.2201 -0.3576  0.9091
   58SAPC   C35 4382   4.642   1.408   9.443 -0.2725 -0.0967 -0.4653
   58SAPC   H5X 4383   4.742   1.432   9.483 -0.2011 -2.2247  0.7961
   58SAPC   H5Y 4384   4.576   1.496   9.428 -1.4342 -1.2851 -2.9591
   58SAPC   C36 4385   4.673   1.331   9.314 -0.7004 -0.8824  0.7044
   58SAPC   H6X 4386   4.576   1.306   9.265 -0.1040 -1.0949 -0.4019
   58SAPC   H6Y 4387   4.736   1.243   9.336  2.5938  1.1257 -0.0059
   58SAPC   C37 4388   4.748   1.422   9.213 -0.2307 -0.5082  0.1599
   58SAPC   H7X 4389   4.835   1.466   9.266 -0.0921  1.1773 -1.3920
   58SAPC   H7Y 4390   4.692   1.517   9.195  1.1091  0.5268  1.2330
   58SAPC   C38 4391   4.771   1.347   9.087  0.4132  0.5796  0.2590
   58SAPC   H8X 4392   4.674   1.303   9.056  1.6827 -0.9790 -1.7877
   58SAPC   H8Y 4393   4.840   1.262   9.104  2.9107  1.5836 -3.5573
   58SAPC   C39 4394   4.839   1.433   8.985  0.7464  0.1334  0.1500
   58SAPC   H9X 4395   4.936   1.463   9.031  0.8698 -1.8741  1.3144
   58SAPC   H9Y 4396   4.776   1.518   8.953 -2.3012 -0.8185  3.0566
   58SAPC  C310 4397   4.881   1.333   8.873  0.2428 -0.9937 -0.0448
   58SAPC  H10X 4398   4.802   1.350   8.797 -0.4808 -1.0201  0.6934
   58SAPC  H10Y 4399   4.864   1.230   8.911 -1.8018 -0.7629 -0.2455
   58SAPC  C311 4400   5.011   1.358   8.800 -0.0252  0.3967  0.0350
   58SAPC  H11X 4401   5.095   1.315   8.858 -1.0363 -2.1788 -0.2586
   58SAPC  H11Y 4402   5.035   1.464   8.779  2.0807 -0.5665 -3.2476
   58SAPC  C312 4403   5.018   1.279   8.663 -0.0760  0.3678 -0.5405
   58SAPC  H12X 4404   4.924   1.266   8.605  0.4242 -0.6853 -1.1383
   58SAPC  H12Y 4405   5.044   1.177   8.700 -0.4422 -0.6173 -2.8298
   58SAPC  C313 4406   5.122   1.327   8.560 -0.1367  0.0947  0.0045
   58SAPC  H13X 4407   5.082   1.426   8.529 -1.1330  1.3353  4.4167
   58SAPC  H13Y 4408   5.120   1.259   8.473 -1.3448  0.5359 -0.3382
   58SAPC  C314 4409   5.265   1.339   8.617  0.0760 -0.1568 -1.1134
   58SAPC  H14X 4410   5.285   1.270   8.702  2.0090 -0.3407 -1.6807
   58SAPC  H14Y 4411   5.272   1.442   8.660 -2.0073 -0.1453 -0.7022
   58SAPC  C315 4412   5.365   1.307   8.507  0.6447  0.0003  0.1814
   58SAPC  H15X 4413   5.384   1.401   8.451 -0.4398  0.7175  0.9806
   58SAPC  H15Y 4414   5.340   1.213   8.452  0.1929 -0.4302  1.1007
   58SAPC  C316 4415   5.501   1.268   8.568  0.2047 -0.0439  0.0072
   58SAPC  H16X 4416   5.501   1.162   8.600  1.4270 -1.7120 -4.7410
   58SAPC  H16Y 4417   5.516   1.338   8.653 -1.9270  0.1345  0.2934
   58SAPC  C317 4418   5.620   1.296   8.482 -0.2911 -0.2401  0.5316
   58SAPC  H17X 4419   5.641   1.401   8.453  1.3965  0.1252  2.7531
   58SAPC  H17Y 4420   5.605   1.240   8.387 -1.1707 -0.0377  0.5485
   58SAPC  C318 4421   5.736   1.247   8.560 -0.2508 -0.1247  0.0820
   58SAPC  H18X 4422   5.757   1.323   8.638 -0.7738  0.4558 -0.3311
   58SAPC  H18Y 4423   5.821   1.227   8.491  0.1398 -1.6345  0.9509
   58SAPC  H18Z 4424   5.721   1.152   8.616  2.9189  0.7335  2.6575
   59SAPC     N 4425   4.455   4.574  10.938  0.2683  0.3076 -0.4015
   59SAPC   C12 4426   4.607   4.599  10.902 -0.0332 -0.4469  0.5078
   59SAPC  H12A 4427   4.655   4.646  10.986  0.0685 -0.3539  0.3989
   59SAPC  H12B 4428   4.603   4.669  10.819  0.7181 -0.5422  0.3815
   59SAPC   C13 4429   4.381   4.510  10.824 -0.3516 -0.0347 -0.9295
   59SAPC  H13A 4430   4.283   4.479  10.859  0.1393  0.2364  0.7678
   59SAPC  H13B 4431   4.368   4.582  10.744 -0.8310  1.3378  0.3323
   59SAPC  H13C 4432   4.427   4.422  10.783  1.4066  0.4760 -0.1232
   59SAPC   C14 4433   4.445   4.495  11.061 -0.6078 -0.1479 -0.1847
   59SAPC  H14A 4434   4.462   4.561  11.146 -3.6094  0.5989 -0.0175
   59SAPC  H14B 4435   4.346   4.457  11.081  0.3960 -3.5501 -1.0948
   59SAPC  H14C 4436   4.504   4.405  11.065 -0.6651 -0.2153 -0.8579
   59SAPC   C15 4437   4.404   4.713  10.969 -0.3384  0.4713 -0.1495
   59SAPC  H15A 4438   4.419   4.772  10.880  3.0630  1.1998  0.7267
   59SAPC  H15B 4439   4.302   4.704  11.004 -0.7680 -1.8927 -1.7631
   59SAPC  H15C 4440   4.464   4.766  11.042  2.3002 -1.8490 -0.4647
   59SAPC   C11 4441   4.689   4.478  10.873  0.1813  0.3544 -0.2901
   59SAPC  H11A 4442   4.763   4.503  10.793 -0.5364  0.5984 -0.8942
   59SAPC  H11B 4443   4.625   4.397  10.832 -0.7251  0.1593  1.4201
   59SAPC     P 4444   4.899   4.473  11.023 -0.0997 -0.3396  0.1850
   59SAPC   O13 4445   4.913   4.610  11.078  0.1340  1.2902  0.3183
   59SAPC   O14 4446   4.953   4.365  11.112 -0.2007 -0.0855 -0.5234
   59SAPC   O12 4447   4.751   4.431  10.995  0.4416 -0.2314  0.1550
   59SAPC   O11 4448   4.969   4.470  10.885 -1.1597  0.2465 -0.5151
   59SAPC    C1 4449   5.042   4.357  10.832  0.5726  0.1466 -0.2144
   59SAPC    HA 4450   5.035   4.270  10.900  2.9301  0.8518  1.0274
   59SAPC    HB 4451   5.006   4.341  10.728 -0.5149  1.1333 -0.0211
   59SAPC    C2 4452   5.195   4.399  10.826  0.1181  0.5384  0.1153
   59SAPC    HS 4453   5.213   4.434  10.929 -0.0005  4.5261 -1.0500
   59SAPC   O21 4454   5.204   4.514  10.735 -0.3315 -0.5138  0.3042
   59SAPC   C21 4455   5.312   4.591  10.751 -0.4071  0.7502  0.2147
   59SAPC   O22 4456   5.394   4.580  10.840  0.2225 -0.1276 -0.9148
   59SAPC   C22 4457   5.312   4.695  10.642  0.3022 -1.0613 -0.7305
   59SAPC   H2R 4458   5.311   4.643  10.544  0.3464 -2.5726  0.0488
   59SAPC   H2S 4459   5.217   4.752  10.657 -0.9536 -2.9133 -1.2038
   59SAPC    C3 4460   5.290   4.288  10.778  0.4271 -0.0178 -0.6276
   59SAPC    HX 4461   5.277   4.204  10.849 -1.1702  1.1875  0.6038
   59SAPC    HY 4462   5.395   4.323  10.778  0.3941  0.0862 -0.4320
   59SAPC   O31 4463   5.239   4.235  10.653 -0.1912 -0.6888  0.1103
   59SAPC   C31 4464   5.294   4.300  10.544 -0.6662  0.3410 -0.1989
   59SAPC   O32 4465   5.380   4.384  10.547  0.0952  0.5772  0.1445
   59SAPC   C32 4466   5.231   4.229  10.420 -0.5635  0.3512  0.3425
   59SAPC   H2X 4467   5.213   4.125  10.452  1.4521  0.1049  0.8037
   59SAPC   H2Y 4468   5.304   4.217  10.337 -3.1066  2.0126 -2.3520
   59SAPC   C23 4469   5.436   4.789  10.653 -0.2310 -0.5655 -0.1635
   59SAPC   H3R 4470   5.528   4.730  10.635  1.4347  1.3554  1.5988
   59SAPC   H3S 4471   5.421   4.829  10.755  0.3128 -1.6935  0.3709
   59SAPC   C24 4472   5.434   4.898  10.541  0.2542  0.2631 -0.0766
   59SAPC   H4R 4473   5.417   4.831  10.455  1.3830 -0.5053  0.2838
   59SAPC   H4S 4474   5.532   4.948  10.528 -0.8893  2.7436  0.2187
   59SAPC   C25 4475   5.335   5.018  10.563  0.2621  0.9853  0.1191
   59SAPC   H5R 4476   5.335   5.065  10.662  4.5081  1.0073  0.3027
   59SAPC   C26 4477   5.239   5.048  10.467 -1.0308  0.0575 -0.1047
   59SAPC   H6R 4478   5.170   5.125  10.502 -0.8585 -0.9500  2.7012
   59SAPC   C27 4479   5.222   5.001  10.329  0.3708 -0.5242  0.1276
   59SAPC   H7R 4480   5.310   4.992  10.263 -0.3204  0.4231 -0.9748
   59SAPC   H7S 4481   5.157   5.070  10.270 -0.2869 -2.6836 -1.8473
   59SAPC   C28 4482   5.154   4.874  10.337  0.2702  0.4725  0.1168
   59SAPC   H8R 4483   5.099   4.852  10.430  1.9710 -1.0827  0.8124
   59SAPC   C29 4484   5.147   4.784  10.242 -0.2623  0.4161  0.1680
   59SAPC   H9R 4485   5.091   4.691  10.261 -0.6363  0.5923 -0.0642
   59SAPC  C210 4486   5.219   4.791  10.112 -0.5480  0.3226  0.6626
   59SAPC  H10R 4487   5.208   4.692  10.063 -1.9903  1.1516 -0.7931
   59SAPC  H10S 4488   5.323   4.800  10.150  0.6819 -0.8328 -2.1776
   59SAPC  C211 4489   5.192   4.913  10.025 -0.3268  0.2765 -0.1568
   59SAPC  H11R 4490   5.249   4.998  10.065 -0.9441  0.4144  0.4530
   59SAPC  C212 4491   5.152   4.918   9.898  0.2728 -1.2025 -0.2374
   59SAPC  H12R 4492   5.136   5.018   9.856 -0.4605 -1.3814 -0.4102
   59SAPC  C213 4493   5.098   4.813   9.803 -0.0475  0.4653 -0.2906
   59SAPC  H13R 4494   5.016   4.867   9.751 -0.5815 -0.4054 -0.3747
   59SAPC  H13S 4495   5.049   4.728   9.855  1.7231 -0.1185  0.5055
   59SAPC  C214 4496   5.189   4.749   9.701 -0.7508 -0.4533  0.2397
   59SAPC  H14R 4497   5.261   4.681   9.748  0.3492  0.1863 -0.4821
   59SAPC  C215 4498   5.187   4.756   9.570 -0.3065 -0.5136  0.5517
   59SAPC  H15R 4499   5.268   4.705   9.516  2.4560  0.3805  3.5582
   59SAPC  C216 4500   5.086   4.821   9.476 -0.1304  0.8540  0.0535
   59SAPC  H16R 4501   5.116   4.923   9.443  0.8884  0.2794 -0.8480
   59SAPC  H16S 4502   4.986   4.835   9.523 -0.9266  0.2227 -1.3915
   59SAPC  C217 4503   5.059   4.742   9.345 -0.2870  0.0227  0.5948
   59SAPC  H17R 4504   4.976   4.800   9.297  0.1774 -1.5852 -2.3825
   59SAPC  H17S 4505   5.027   4.638   9.365 -1.6148  0.8032  2.8925
   59SAPC  C218 4506   5.177   4.746   9.236  0.5639 -0.5114 -0.6019
   59SAPC  H18R 4507   5.244   4.660   9.258 -0.4524 -1.1137  0.2369
   59SAPC  H18S 4508   5.240   4.837   9.244  1.9217 -1.4340 -0.4829
   59SAPC  C219 4509   5.120   4.735   9.096  0.2382  0.1924  0.1331
   59SAPC  H19R 4510   5.067   4.828   9.066 -0.8238 -0.7068 -0.8834
   59SAPC  H19S 4511   5.053   4.648   9.088  1.6284 -0.8747 -0.3756
   59SAPC  C220 4512   5.241   4.708   8.994  0.0697 -0.1303  0.6736
   59SAPC  H20R 4513   5.312   4.793   8.992  0.1913 -0.2030  1.4712
   59SAPC  H20S 4514   5.196   4.698   8.893  0.0224 -0.4627  0.7262
   59SAPC  H20T 4515   5.295   4.616   9.025 -0.7742 -0.4396  1.2621
   59SAPC   C33 4516   5.104   4.305  10.382  0.5390 -0.1852 -0.4615
   59SAPC   H3X 4517   5.098   4.397  10.444  0.6481 -0.3985 -0.1350
   59SAPC   H3Y 4518   5.012   4.254  10.415  0.7990 -0.3999 -0.0660
   59SAPC   C34 4519   5.088   4.346  10.238 -1.1241  0.5115  0.2734
   59SAPC   H4X 4520   5.175   4.410  10.214 -0.2490 -0.0757  1.7525
   59SAPC   H4Y 4521   4.989   4.393  10.221 -1.7179  0.7439  3.5701
   59SAPC   C35 4522   5.090   4.220  10.142  0.4898  0.3380 -0.6287
   59SAPC   H5X 4523   4.990   4.178  10.165  0.0066  0.2396 -2.6804
   59SAPC   H5Y 4524   5.168   4.154  10.184  0.0559  0.7843  0.9356
   59SAPC   C36 4525   5.108   4.230   9.990  0.3818 -0.5141  0.2677
   59SAPC   H6X 4526   5.217   4.236   9.974  0.5280 -0.8335  1.0949
   59SAPC   H6Y 4527   5.065   4.328   9.958 -0.1867 -0.6610  0.5675
   59SAPC   C37 4528   5.029   4.115   9.914 -0.5509 -0.6511  0.3462
   59SAPC   H7X 4529   4.922   4.120   9.943 -0.3989 -1.1857  1.0368
   59SAPC   H7Y 4530   5.050   4.015   9.957  2.5621  0.0247  0.6278
   59SAPC   C38 4531   5.050   4.122   9.765  1.0239 -0.0379 -0.2797
   59SAPC   H8X 4532   5.020   4.021   9.732  0.8328  0.4524 -1.6774
   59SAPC   H8Y 4533   5.155   4.150   9.742  1.0015  0.3473  0.0623
   59SAPC   C39 4534   4.956   4.221   9.698 -0.4013  0.1387  0.6858
   59SAPC   H9X 4535   4.988   4.323   9.731  0.9233  0.5809 -1.7078
   59SAPC   H9Y 4536   4.859   4.191   9.742  0.0305  0.2848  1.7828
   59SAPC  C310 4537   4.959   4.212   9.545  0.0208  0.5860  0.4308
   59SAPC  H10X 4538   4.938   4.110   9.506  0.0652  0.9822 -0.6600
   59SAPC  H10Y 4539   5.061   4.236   9.507 -0.5624  0.9316 -0.9971
   59SAPC  C311 4540   4.857   4.300   9.466  0.2620 -0.3073  0.3026
   59SAPC  H11X 4541   4.895   4.405   9.473  0.9573 -0.5407  0.1292
   59SAPC  H11Y 4542   4.764   4.303   9.527  1.0532  2.5100  1.5579
   59SAPC  C312 4543   4.837   4.264   9.317  0.0596  1.3238  0.3779
   59SAPC  H12X 4544   4.776   4.171   9.315  0.9954  0.6958  0.1166
   59SAPC  H12Y 4545   4.939   4.245   9.277 -0.1171  0.5968  0.2662
   59SAPC  C313 4546   4.770   4.371   9.229 -0.6796  0.3912  0.0111
   59SAPC  H13X 4547   4.817   4.462   9.273  0.7161 -1.0911  1.7299
   59SAPC  H13Y 4548   4.662   4.375   9.253 -0.3141  0.6890  1.8022
   59SAPC  C314 4549   4.813   4.363   9.083  0.0809 -0.0451 -0.5040
   59SAPC  H14X 4550   4.923   4.370   9.096 -0.0373 -1.7713  2.0851
   59SAPC  H14Y 4551   4.756   4.441   9.026 -0.4909 -1.2787 -1.6699
   59SAPC  C315 4552   4.782   4.230   9.011  0.2051 -0.2191 -0.8816
   59SAPC  H15X 4553   4.673   4.208   9.013  0.3193 -0.9041 -1.4237
   59SAPC  H15Y 4554   4.839   4.149   9.061 -0.9282  0.4587  1.7034
   59SAPC  C316 4555   4.826   4.231   8.866 -0.5199 -0.7549 -0.9975
   59SAPC  H16X 4556   4.937   4.241   8.865 -0.6115  0.4335 -1.7418
   59SAPC  H16Y 4557   4.771   4.316   8.819 -0.1046  0.7860  1.1600
   59SAPC  C317 4558   4.779   4.107   8.789 -0.4752 -0.7954  0.3892
   59SAPC  H17X 4559   4.679   4.079   8.831 -0.8007  0.0271  0.1893
   59SAPC  H17Y 4560   4.839   4.020   8.822 -0.2283  0.0017  2.1917
   59SAPC  C318 4561   4.758   4.125   8.640 -0.0230  0.0628 -0.0514
   59SAPC  H18X 4562   4.718   4.038   8.583  0.5120  0.1613 -0.5841
   59SAPC  H18Y 4563   4.849   4.155   8.584  1.2163  0.3374  2.0060
   59SAPC  H18Z 4564   4.684   4.206   8.623  1.0021  0.8833 -0.7136
   60SAPC     N 4565   0.870   1.393  10.839  0.3265 -0.8536 -0.7375
   60SAPC   C12 4566   0.841   1.491  10.725  0.0682 -0.4876  0.8614
   60SAPC  H12A 4567   0.804   1.583  10.767  2.6030  1.2536 -0.4495
   60SAPC  H12B 4568   0.764   1.445  10.665  0.9059 -2.1254  0.9816
   60SAPC   C13 4569   0.951   1.457  10.951 -0.4526  0.0557  0.1499
   60SAPC  H13A 4570   0.963   1.406  11.045 -3.9479  0.8655  1.1846
   60SAPC  H13B 4571   1.046   1.487  10.910 -0.2892  0.7554  1.0096
   60SAPC  H13C 4572   0.911   1.548  10.994 -0.6231  0.0172  0.0769
   60SAPC   C14 4573   0.740   1.350  10.902 -0.1649 -0.5147  0.6544
   60SAPC  H14A 4574   0.666   1.321  10.829 -1.2732  2.1586  0.5733
   60SAPC  H14B 4575   0.748   1.259  10.959  0.0229 -1.5368 -0.9496
   60SAPC  H14C 4576   0.696   1.434  10.954 -0.3709  0.4331 -0.9781
   60SAPC   C15 4577   0.940   1.270  10.784 -0.3753 -0.1570 -0.2585
   60SAPC  H15A 4578   1.031   1.301  10.734  0.7594 -0.1581  1.7174
   60SAPC  H15B 4579   0.973   1.202  10.860 -0.6472 -0.8253 -0.7313
   60SAPC  H15C 4580   0.880   1.220  10.709 -3.2513 -0.6281  2.1901
   60SAPC   C11 4581   0.956   1.536  10.632 -0.0495  0.7501  0.2530
   60SAPC  H11A 4582   0.909   1.604  10.558 -0.8950  0.4942  0.5522
   60SAPC  H11B 4583   0.991   1.443  10.582 -1.7951  0.3181 -0.2432
   60SAPC     P 4584   1.049   1.762  10.706 -0.6029  0.0198 -0.0616
   60SAPC   O13 4585   0.911   1.790  10.753  0.4140  0.1066  0.0266
   60SAPC   O14 4586   1.152   1.825  10.800 -0.5497 -0.1665  0.9970
   60SAPC   O12 4587   1.070   1.603  10.694  0.1019 -0.2328  0.1506
   60SAPC   O11 4588   1.069   1.816  10.561 -0.0599 -0.5350  0.0628
   60SAPC    C1 4589   1.190   1.824  10.496 -0.1199  0.1782 -0.2804
   60SAPC    HA 4590   1.238   1.921  10.523 -1.2684  0.2302  1.7891
   60SAPC    HB 4591   1.261   1.753  10.545 -0.4718  0.5560  0.7970
   60SAPC    C2 4592   1.170   1.802  10.347 -1.0727  0.1242 -0.3090
   60SAPC    HS 4593   1.272   1.778  10.309 -0.6458  0.3321  0.6768
   60SAPC   O21 4594   1.128   1.921  10.281 -0.3173 -0.0461 -0.1474
   60SAPC   C21 4595   1.207   2.028  10.266  0.3118 -0.2015 -0.8661
   60SAPC   O22 4596   1.313   2.046  10.324  0.1491  0.2270 -0.3761
   60SAPC   C22 4597   1.139   2.139  10.183  0.6472 -0.0485  0.2201
   60SAPC   H2R 4598   1.113   2.222  10.252 -1.1997 -0.1158 -0.3505
   60SAPC   H2S 4599   1.219   2.171  10.113 -1.0542  2.3939 -0.7433
   60SAPC    C3 4600   1.069   1.698  10.306  0.0307 -0.7140  0.2885
   60SAPC    HX 4601   0.971   1.728  10.351  0.6351  0.6691  0.7420
   60SAPC    HY 4602   1.088   1.598  10.350 -0.3198 -0.0860  1.9556
   60SAPC   O31 4603   1.054   1.693  10.169  0.2870  0.4816 -0.2348
   60SAPC   C31 4604   1.145   1.637  10.088  0.3427 -0.3615 -1.2366
   60SAPC   O32 4605   1.251   1.589  10.126 -0.0290  0.3652  0.4340
   60SAPC   C32 4606   1.093   1.636   9.950  0.7246 -0.7713  0.1690
   60SAPC   H2X 4607   1.043   1.734   9.933 -0.9839 -1.4171  1.1428
   60SAPC   H2Y 4608   1.018   1.554   9.943  0.1646 -0.2669  0.1536
   60SAPC   C23 4609   1.020   2.087  10.091 -0.2082  0.3374 -0.5434
   60SAPC   H3R 4610   0.947   2.042  10.162  1.0618 -0.8569  0.0457
   60SAPC   H3S 4611   1.050   1.997  10.033  0.5345 -2.0363  3.2339
   60SAPC   C24 4612   0.969   2.190   9.984 -0.5845 -0.0199  0.0095
   60SAPC   H4R 4613   1.047   2.193   9.905  1.3368 -0.8435  1.7810
   60SAPC   H4S 4614   0.983   2.294  10.021  0.6140  0.1986 -0.9753
   60SAPC   C25 4615   0.831   2.164   9.934 -0.1314 -0.8597  0.1339
   60SAPC   H5R 4616   0.750   2.229   9.970  1.5022 -0.0402  2.5727
   60SAPC   C26 4617   0.799   2.072   9.840  0.8187  0.5440  0.1383
   60SAPC   H6R 4618   0.694   2.077   9.806  0.0816  1.0122  2.3564
   60SAPC   C27 4619   0.886   1.967   9.776  0.1642  0.4407 -0.2137
   60SAPC   H7R 4620   0.936   1.900   9.848 -0.2704 -0.3165 -0.6113
   60SAPC   H7S 4621   0.964   2.028   9.724  0.3911  1.4533  1.2461
   60SAPC   C28 4622   0.803   1.886   9.675 -0.7046 -0.3547 -0.0640
   60SAPC   H8R 4623   0.777   1.783   9.704 -0.5628 -1.0469 -2.2363
   60SAPC   C29 4624   0.749   1.921   9.563 -0.4110 -0.0034  0.2021
   60SAPC   H9R 4625   0.697   1.850   9.497 -1.5734  1.7674 -0.8958
   60SAPC  C210 4626   0.747   2.063   9.507  0.1188  0.5278  0.0072
   60SAPC  H10R 4627   0.806   2.066   9.413 -0.7542  2.8791 -0.5421
   60SAPC  H10S 4628   0.793   2.138   9.576  3.3263 -0.7377 -0.5886
   60SAPC  C211 4629   0.603   2.090   9.468  0.2020 -0.3180 -0.1168
   60SAPC  H11R 4630   0.531   2.119   9.546 -2.1650 -2.2884 -1.4535
   60SAPC  C212 4631   0.550   2.089   9.342 -0.0810  0.4782 -0.6909
   60SAPC  H12R 4632   0.441   2.102   9.329  0.0057  1.4958 -0.4785
   60SAPC  C213 4633   0.626   2.055   9.212  0.4467  0.1560  0.4531
   60SAPC  H13R 4634   0.723   2.012   9.246 -0.2419 -0.4429  1.7286
   60SAPC  H13S 4635   0.659   2.148   9.162  0.2989  0.8144  1.5430
   60SAPC  C214 4636   0.546   1.972   9.122  0.3371  0.5221  0.2598
   60SAPC  H14R 4637   0.462   2.027   9.077  0.0752 -0.4169 -0.4516
   60SAPC  C215 4638   0.574   1.844   9.082  0.5807 -0.3637  0.3260
   60SAPC  H15R 4639   0.513   1.797   9.004  0.7605 -0.1604  0.0642
   60SAPC  C216 4640   0.691   1.759   9.116  0.1449  0.2600  0.3457
   60SAPC  H16R 4641   0.776   1.802   9.173  1.5881 -1.7027 -0.2143
   60SAPC  H16S 4642   0.722   1.705   9.024  0.2528  0.5249  0.2289
   60SAPC  C217 4643   0.636   1.644   9.208  0.3844 -0.3350 -0.6359
   60SAPC  H17R 4644   0.584   1.568   9.145  0.6574 -0.2392 -0.9821
   60SAPC  H17S 4645   0.562   1.683   9.281 -0.2234 -0.5515 -1.1229
   60SAPC  C218 4646   0.746   1.585   9.295  0.1486  0.8820  0.3314
   60SAPC  H18R 4647   0.785   1.660   9.368  2.2424  1.6629 -1.4868
   60SAPC  H18S 4648   0.832   1.565   9.228 -1.6239  2.2800 -2.5441
   60SAPC  C219 4649   0.696   1.459   9.374 -0.2389 -0.2005  0.3485
   60SAPC  H19R 4650   0.660   1.391   9.294 -0.4422 -0.2080  0.4448
   60SAPC  H19S 4651   0.608   1.479   9.440  1.2225  0.2683  2.2207
   60SAPC  C220 4652   0.796   1.388   9.455 -0.5344 -0.3114 -0.1433
   60SAPC  H20R 4653   0.827   1.446   9.544 -1.0578  2.1389 -1.4832
   60SAPC  H20S 4654   0.888   1.369   9.395  1.1887 -1.2421  2.5884
   60SAPC  H20T 4655   0.757   1.291   9.494  0.3101 -1.2695 -1.5774
   60SAPC   C33 4656   1.210   1.624   9.852  0.7212 -0.5374 -0.2472
   60SAPC   H3X 4657   1.245   1.519   9.856 -0.5018 -0.9498  0.4126
   60SAPC   H3Y 4658   1.295   1.690   9.882  1.8533 -1.6938 -0.8333
   60SAPC   C34 4659   1.181   1.681   9.713 -0.3798  0.0423  0.2899
   60SAPC   H4X 4660   1.153   1.788   9.721 -4.2773 -0.8698  1.0614
   60SAPC   H4Y 4661   1.083   1.636   9.684  0.3407 -1.1414 -0.3821
   60SAPC   C35 4662   1.286   1.664   9.597 -0.1473 -0.0627 -0.4891
   60SAPC   H5X 4663   1.312   1.557   9.589  0.9622  0.0984  0.6381
   60SAPC   H5Y 4664   1.376   1.719   9.631  0.3095 -0.8111 -0.4609
   60SAPC   C36 4665   1.234   1.718   9.464  0.0008  0.8553 -0.0629
   60SAPC   H6X 4666   1.148   1.655   9.435  1.3183 -3.5002  4.1825
   60SAPC   H6Y 4667   1.326   1.706   9.403  0.1760 -1.8463  0.5981
   60SAPC   C37 4668   1.199   1.871   9.446 -0.2037  1.0111 -0.4549
   60SAPC   H7X 4669   1.270   1.935   9.502  0.7435 -0.1367 -0.3056
   60SAPC   H7Y 4670   1.101   1.889   9.495 -0.8661 -1.1994 -0.8518
   60SAPC   C38 4671   1.203   1.928   9.299  0.0521  0.5427 -0.1047
   60SAPC   H8X 4672   1.296   1.885   9.256  2.3271  1.9563  3.0580
   60SAPC   H8Y 4673   1.214   2.038   9.300  1.4811  0.4116  0.2191
   60SAPC   C39 4674   1.079   1.891   9.218 -0.6201  0.2839  0.1518
   60SAPC   H9X 4675   0.984   1.908   9.273 -0.6584  0.5426  0.0092
   60SAPC   H9Y 4676   1.070   1.780   9.208 -0.2207  0.2062  0.6444
   60SAPC  C310 4677   1.060   1.969   9.088  0.2727 -0.9390 -0.1864
   60SAPC  H10X 4678   0.983   1.920   9.026 -2.0767  2.1197  0.0687
   60SAPC  H10Y 4679   1.159   1.977   9.039  0.5210  0.1498  0.4504
   60SAPC  C311 4680   1.022   2.120   9.105  0.6452 -0.2022  0.3811
   60SAPC  H11X 4681   1.097   2.175   9.166 -0.3094  1.2570  0.2908
   60SAPC  H11Y 4682   0.924   2.132   9.156 -0.9225  0.9131 -2.6337
   60SAPC  C312 4683   1.003   2.196   8.973 -0.2370 -0.0758  0.5541
   60SAPC  H12X 4684   1.102   2.224   8.931 -1.1846  0.5800 -1.3553
   60SAPC  H12Y 4685   0.947   2.287   9.000  0.2954  0.4554 -0.0994
   60SAPC  C313 4686   0.923   2.142   8.846  0.0795  0.2344 -0.5563
   60SAPC  H13X 4687   0.971   2.050   8.807 -1.1996  0.6499 -3.3887
   60SAPC  H13Y 4688   0.924   2.229   8.777  0.6866 -0.1998 -1.1051
   60SAPC  C314 4689   0.782   2.106   8.874  0.5086 -0.2164 -0.3878
   60SAPC  H14X 4690   0.730   2.186   8.930  1.9513  0.1145  0.5323
   60SAPC  H14Y 4691   0.795   2.025   8.949  0.1183  0.7545  0.7570
   60SAPC  C315 4692   0.697   2.062   8.760  0.6597 -0.3360 -0.1178
   60SAPC  H15X 4693   0.620   1.996   8.805 -0.1454  1.4281  1.2311
   60SAPC  H15Y 4694   0.754   1.998   8.689 -1.1255 -0.6958 -1.2898
   60SAPC  C316 4695   0.631   2.176   8.679 -0.5806 -0.4432  0.0646
   60SAPC  H16X 4696   0.716   2.241   8.650  1.3362 -1.6076  2.6403
   60SAPC  H16Y 4697   0.563   2.240   8.740  1.8337  1.8615  0.5415
   60SAPC  C317 4698   0.566   2.129   8.554 -0.8818  0.5450  0.1121
   60SAPC  H17X 4699   0.471   2.074   8.574 -1.7580  2.3180  1.0207
   60SAPC  H17Y 4700   0.637   2.062   8.501  2.1501  1.9258  2.1599
   60SAPC  C318 4701   0.532   2.250   8.458 -1.1770 -0.3432 -0.2208
   60SAPC  H18X 4702   0.623   2.299   8.416 -0.4139 -1.3877  0.1922
   60SAPC  H18Y 4703   0.470   2.320   8.519 -0.7270 -0.5096  0.4352
   60SAPC  H18Z 4704   0.471   2.220   8.370  1.0428 -1.3144 -1.5030
   61SAPC     N 4705   2.933   0.571  11.300  0.3999 -0.5096 -0.6077
   61SAPC   C12 4706   2.946   0.547  11.152  0.3883 -0.3665  0.7377
   61SAPC  H12A 4707   2.922   0.442  11.144 -1.4236  0.1755 -2.6686
   61SAPC  H12B 4708   3.045   0.561  11.113 -1.4142  1.4542 -3.7985
   61SAPC   C13 4709   2.791   0.565  11.346  0.8345 -0.3938 -0.0266
   61SAPC  H13A 4710   2.731   0.638  11.293  0.0911 -0.0069  1.3008
   61SAPC  H13B 4711   2.744   0.472  11.317  0.0139  0.9542 -3.5777
   61SAPC  H13C 4712   2.784   0.580  11.453  0.3717  1.6836 -0.2966
   61SAPC   C14 4713   3.008   0.471  11.374 -0.2771  0.1849 -1.0057
   61SAPC  H14A 4714   3.008   0.497  11.479 -1.8189 -1.2855 -0.5932
   61SAPC  H14B 4715   2.956   0.378  11.358  1.5794 -1.0929 -0.0089
   61SAPC  H14C 4716   3.113   0.463  11.348 -0.3090 -3.5597 -0.5954
   61SAPC   C15 4717   2.980   0.704  11.326  0.0069  0.2325 -0.3838
   61SAPC  H15A 4718   2.941   0.770  11.250  1.2291  1.2692 -0.1510
   61SAPC  H15B 4719   2.953   0.735  11.426  1.3846 -1.8730  0.7258
   61SAPC  H15C 4720   3.087   0.717  11.325 -0.0029  0.4562  0.5060
   61SAPC   C11 4721   2.848   0.622  11.055 -0.1133  0.2846 -0.9064
   61SAPC  H11A 4722   2.745   0.593  11.087  1.1796 -1.2440  2.3761
   61SAPC  H11B 4723   2.870   0.579  10.955  0.3200 -2.5527  0.3003
   61SAPC     P 4724   2.998   0.816  10.970 -0.1232  0.1175 -0.3218
   61SAPC   O13 4725   3.008   0.962  10.983 -0.7999 -0.3154 -0.1768
   61SAPC   O14 4726   3.113   0.731  11.012 -0.3415  0.1178  0.1610
   61SAPC   O12 4727   2.872   0.764  11.058  0.0460  0.4238  0.3760
   61SAPC   O11 4728   2.951   0.780  10.824 -0.7322 -0.0671 -0.6209
   61SAPC    C1 4729   2.862   0.864  10.759  0.2492  0.2745  0.3213
   61SAPC    HA 4730   2.856   0.972  10.787 -0.1501  0.9514 -2.0845
   61SAPC    HB 4731   2.881   0.864  10.650  0.1463  0.9770  0.2943
   61SAPC    C2 4732   2.716   0.808  10.768 -0.1359  0.4914  0.5718
   61SAPC    HS 4733   2.694   0.819  10.877  1.1664  0.4808  0.8515
   61SAPC   O21 4734   2.721   0.663  10.747 -0.4057  0.2418  0.6276
   61SAPC   C21 4735   2.617   0.609  10.800 -0.0122  0.5865  0.6585
   61SAPC   O22 4736   2.521   0.663  10.851  0.0320  0.6344 -0.1608
   61SAPC   C22 4737   2.641   0.456  10.809 -0.5086 -0.4267 -0.0694
   61SAPC   H2R 4738   2.700   0.421  10.722 -1.7484 -1.0423 -0.6786
   61SAPC   H2S 4739   2.699   0.441  10.903  0.7530  3.1031 -0.1290
   61SAPC    C3 4740   2.619   0.880  10.672 -0.5334  0.0651 -0.0679
   61SAPC    HX 4741   2.634   0.989  10.688 -2.3966  0.5346 -1.1933
   61SAPC    HY 4742   2.515   0.853  10.699 -0.0365 -1.1603  0.7165
   61SAPC   O31 4743   2.655   0.850  10.540 -0.6683 -0.4353  0.4924
   61SAPC   C31 4744   2.586   0.787  10.448 -0.0845  0.6171  0.1175
   61SAPC   O32 4745   2.469   0.746  10.458  0.2127 -0.4999 -0.3254
   61SAPC   C32 4746   2.657   0.798  10.305  0.1130  0.2605  0.7508
   61SAPC   H2X 4747   2.759   0.756  10.312  0.1137 -0.2026 -1.4616
   61SAPC   H2Y 4748   2.663   0.908  10.293 -1.5564  0.3613  0.5240
   61SAPC   C23 4749   2.505   0.384  10.821  0.1004  0.4171 -0.1091
   61SAPC   H3R 4750   2.441   0.415  10.906 -0.0994 -2.3151  0.8486
   61SAPC   H3S 4751   2.532   0.277  10.838  1.3280  0.5417 -1.0969
   61SAPC   C24 4752   2.421   0.375  10.692  0.2308 -0.4074  0.9030
   61SAPC   H4R 4753   2.381   0.477  10.673  2.5761  0.8880  2.3927
   61SAPC   H4S 4754   2.334   0.308  10.709  0.4098 -0.7981  0.3254
   61SAPC   C25 4755   2.493   0.322  10.571  0.0179 -0.0074  0.3783
   61SAPC   H5R 4756   2.601   0.303  10.586  0.3345 -0.6003 -2.1406
   61SAPC   C26 4757   2.447   0.297  10.442 -0.1132 -0.1462  0.1110
   61SAPC   H6R 4758   2.515   0.258  10.365  0.5679  0.3364  0.4541
   61SAPC   C27 4759   2.305   0.312  10.393  0.1099 -0.6467 -0.0214
   61SAPC   H7R 4760   2.252   0.362  10.477 -0.4985 -1.0322 -0.1678
   61SAPC   H7S 4761   2.261   0.210  10.380  1.8288 -1.5611  0.8872
   61SAPC   C28 4762   2.282   0.386  10.257  0.5974  0.2186  0.5214
   61SAPC   H8R 4763   2.275   0.493  10.279 -0.9094 -0.0029  1.2618
   61SAPC   C29 4764   2.252   0.333  10.133 -0.5150  0.1752  0.2503
   61SAPC   H9R 4765   2.224   0.397  10.049 -0.8803  0.3191  0.4780
   61SAPC  C210 4766   2.243   0.190  10.098  0.7604  0.6237 -0.4966
   61SAPC  H10R 4767   2.190   0.152  10.188 -3.5419  2.5294 -1.9937
   61SAPC  H10S 4768   2.343   0.141  10.091  0.8662  0.9532 -1.4593
   61SAPC  C211 4769   2.157   0.150   9.978 -0.6764 -0.2443 -0.3163
   61SAPC  H11R 4770   2.061   0.105  10.007 -0.4776 -0.4235  0.0673
   61SAPC  C212 4771   2.190   0.174   9.849 -0.2825 -0.1354 -0.2828
   61SAPC  H12R 4772   2.127   0.136   9.768 -0.1619  0.0949 -0.4841
   61SAPC  C213 4773   2.315   0.244   9.801 -0.1212 -0.2427  0.3482
   61SAPC  H13R 4774   2.356   0.170   9.729 -0.1714  0.6857 -0.6769
   61SAPC  H13S 4775   2.393   0.244   9.880  0.2159 -1.3383  0.0319
   61SAPC  C214 4776   2.277   0.381   9.740  0.7098  0.5184  1.0703
   61SAPC  H14R 4777   2.286   0.459   9.817  1.1360  0.9226  0.6175
   61SAPC  C215 4778   2.263   0.420   9.613 -0.2167 -0.7704 -0.2617
   61SAPC  H15R 4779   2.236   0.524   9.589 -1.0638 -0.5239  1.6089
   61SAPC  C216 4780   2.272   0.325   9.501 -0.4360  0.0617 -0.2576
   61SAPC  H16R 4781   2.244   0.221   9.528 -0.9216  0.7215  1.9768
   61SAPC  H16S 4782   2.376   0.332   9.462 -0.0371 -0.4148  0.6692
   61SAPC  C217 4783   2.171   0.379   9.397 -0.0869  0.2821  0.2650
   61SAPC  H17R 4784   2.224   0.457   9.339 -0.8020  0.2864 -0.4003
   61SAPC  H17S 4785   2.086   0.431   9.447  1.3995  1.5585  1.5541
   61SAPC  C218 4786   2.114   0.275   9.305 -0.4489  0.8518 -0.0540
   61SAPC  H18R 4787   2.058   0.195   9.358 -0.3571  0.0091 -1.2097
   61SAPC  H18S 4788   2.210   0.242   9.260  0.5758  2.0880  1.1556
   61SAPC  C219 4789   2.023   0.349   9.203 -1.1421 -0.2592  0.0477
   61SAPC  H19R 4790   2.082   0.387   9.116  0.5257 -3.3981 -0.3750
   61SAPC  H19S 4791   1.990   0.445   9.246  1.4472 -0.3056  2.4408
   61SAPC  C220 4792   1.904   0.259   9.164 -0.5355  0.6766 -0.2975
   61SAPC  H20R 4793   1.860   0.196   9.245 -0.9254  1.4145  0.0726
   61SAPC  H20S 4794   1.933   0.193   9.080 -2.4048 -0.2243 -0.2717
   61SAPC  H20T 4795   1.823   0.328   9.133  0.1113  0.6783 -2.0715
   61SAPC   C33 4796   2.570   0.760  10.186 -0.9577  0.0453 -0.5500
   61SAPC   H3X 4797   2.474   0.816  10.180 -0.9876  0.1524  0.6464
   61SAPC   H3Y 4798   2.529   0.663  10.221  0.6486 -0.5665 -0.3001
   61SAPC   C34 4799   2.643   0.748  10.057  0.1492 -0.4766  0.1615
   61SAPC   H4X 4800   2.739   0.692  10.060  1.4102  1.5800 -0.0111
   61SAPC   H4Y 4801   2.666   0.849  10.018 -1.2061 -0.6026 -1.0468
   61SAPC   C35 4802   2.567   0.671   9.945  0.4527 -0.5549  0.6785
   61SAPC   H5X 4803   2.460   0.700   9.936  1.3317  2.6738 -2.0072
   61SAPC   H5Y 4804   2.574   0.567   9.980  0.4356  0.1206  2.7924
   61SAPC   C36 4805   2.620   0.698   9.811  0.6868  0.2423 -0.0926
   61SAPC   H6X 4806   2.722   0.654   9.803  1.0775  1.2887 -1.0768
   61SAPC   H6Y 4807   2.622   0.808   9.797  2.0924  0.4928  1.7050
   61SAPC   C37 4808   2.535   0.638   9.696 -0.8608 -0.5630  0.4076
   61SAPC   H7X 4809   2.435   0.686   9.700 -0.4306  0.4666 -0.5819
   61SAPC   H7Y 4810   2.523   0.530   9.720 -0.0988 -0.7058  0.1806
   61SAPC   C38 4811   2.611   0.658   9.563  0.6225  0.6071  0.3523
   61SAPC   H8X 4812   2.704   0.598   9.575 -0.3314 -0.8385  0.6833
   61SAPC   H8Y 4813   2.630   0.762   9.528 -1.5800  0.9769  0.1117
   61SAPC   C39 4814   2.529   0.593   9.449 -0.4088 -0.2811 -0.7681
   61SAPC   H9X 4815   2.420   0.609   9.468 -0.1334  0.5874  0.2087
   61SAPC   H9Y 4816   2.556   0.486   9.459  0.1153 -0.1349 -0.6100
   61SAPC  C310 4817   2.561   0.642   9.316  0.1198  0.3654  0.3350
   61SAPC  H10X 4818   2.671   0.649   9.300  0.3592 -0.6605  1.4312
   61SAPC  H10Y 4819   2.531   0.749   9.305 -2.1245 -0.4008 -1.7162
   61SAPC  C311 4820   2.497   0.552   9.211 -0.4193  0.2503 -0.0746
   61SAPC  H11X 4821   2.391   0.526   9.232 -0.5157 -2.2700 -2.9189
   61SAPC  H11Y 4822   2.553   0.456   9.204 -0.7458  0.0604 -0.1068
   61SAPC  C312 4823   2.497   0.615   9.070 -0.1603 -0.0305 -0.6035
   61SAPC  H12X 4824   2.595   0.589   9.025 -1.9211 -1.1026 -4.1560
   61SAPC  H12Y 4825   2.479   0.724   9.079  3.3257  0.5934 -0.0558
   61SAPC  C313 4826   2.385   0.566   8.974  0.3100 -0.0208 -0.3108
   61SAPC  H13X 4827   2.284   0.593   9.011 -1.1055 -3.4006 -1.2998
   61SAPC  H13Y 4828   2.374   0.456   8.965 -0.6302  0.1300 -1.2489
   61SAPC  C314 4829   2.386   0.631   8.838 -0.7792  0.0039 -0.9102
   61SAPC  H14X 4830   2.407   0.739   8.855  1.3995 -0.6945  1.4873
   61SAPC  H14Y 4831   2.285   0.618   8.793 -2.1575  2.3008  1.2309
   61SAPC  C315 4832   2.493   0.567   8.744 -0.0138  1.0496  0.2355
   61SAPC  H15X 4833   2.476   0.458   8.738 -0.3878  1.1625 -1.2641
   61SAPC  H15Y 4834   2.595   0.579   8.787  1.1505 -1.6776 -1.4847
   61SAPC  C316 4835   2.490   0.619   8.603  0.3489  0.2905 -0.1616
   61SAPC  H16X 4836   2.496   0.729   8.596 -3.6884  0.6147 -0.5742
   61SAPC  H16Y 4837   2.390   0.595   8.560 -0.1702  0.2205  1.0340
   61SAPC  C317 4838   2.578   0.542   8.509  0.4323 -0.5120  0.3155
   61SAPC  H17X 4839   2.550   0.572   8.406 -1.8106 -1.4418  0.5949
   61SAPC  H17Y 4840   2.550   0.434   8.516  0.6031 -0.5940 -0.2559
   61SAPC  C318 4841   2.730   0.556   8.537  0.3112 -0.4252 -0.1655
   61SAPC  H18X 4842   2.762   0.661   8.552 -0.2117 -0.4252  1.0449
   61SAPC  H18Y 4843   2.796   0.524   8.454  1.3683  2.4713 -0.5452
   61SAPC  H18Z 4844   2.769   0.499   8.624 -1.8542 -0.9704  0.5038
   62SAPC     N 4845   1.973   5.795  10.772 -0.0796 -0.6069  0.6083
   62SAPC   C12 4846   1.920   5.653  10.733  0.2466 -0.1739  0.9164
   62SAPC  H12A 4847   1.972   5.629  10.641  2.0516 -2.7452  2.4724
   62SAPC  H12B 4848   1.816   5.662  10.704  0.6874 -0.7897 -1.0334
   62SAPC   C13 4849   1.957   5.896  10.664 -0.2672 -0.5944  0.2047
   62SAPC  H13A 4850   1.853   5.901  10.638  0.0961  2.1235 -1.0612
   62SAPC  H13B 4851   2.005   5.985  10.701 -2.2505 -0.4331  2.6647
   62SAPC  H13C 4852   1.999   5.866  10.569 -0.0887 -1.0928  0.4369
   62SAPC   C14 4853   1.904   5.844  10.892 -0.5442 -0.8231  0.5604
   62SAPC  H14A 4854   1.931   5.789  10.981 -0.6222 -0.9506  0.5063
   62SAPC  H14B 4855   1.937   5.945  10.911 -1.7724 -0.4974  1.0134
   62SAPC  H14C 4856   1.797   5.847  10.885 -0.5356 -1.0561  0.3308
   62SAPC   C15 4857   2.117   5.797  10.799  0.3895 -0.7032  0.5588
   62SAPC  H15A 4858   2.148   5.702  10.840 -0.5082 -1.2689 -0.0498
   62SAPC  H15B 4859   2.185   5.816  10.717  0.2446  0.3167  0.6648
   62SAPC  H15C 4860   2.147   5.875  10.868 -2.3818  2.2593 -1.2850
   62SAPC   C11 4861   1.952   5.541  10.833  0.7525  0.0567 -0.7190
   62SAPC  H11A 4862   1.891   5.454  10.801 -0.4550  0.2716  0.9039
   62SAPC  H11B 4863   1.913   5.576  10.930 -1.5547 -2.2752 -0.6912
   62SAPC     P 4864   2.160   5.442  10.709 -0.2988 -0.6751  0.0944
   62SAPC   O13 4865   2.308   5.438  10.727  0.3361 -0.1376  0.1046
   62SAPC   O14 4866   2.097   5.314  10.687  0.1944  0.4989  0.2997
   62SAPC   O12 4867   2.094   5.516  10.837  0.0141  0.0866  0.3499
   62SAPC   O11 4868   2.121   5.535  10.585 -0.3418 -0.1502 -0.6332
   62SAPC    C1 4869   2.149   5.496  10.450  0.2277  0.7958 -0.6055
   62SAPC    HA 4870   2.241   5.435  10.442  0.0512 -0.2846  3.3187
   62SAPC    HB 4871   2.066   5.439  10.403 -1.4511  1.2038  1.7163
   62SAPC    C2 4872   2.179   5.623  10.361  0.1139  0.1720 -0.1195
   62SAPC    HS 4873   2.088   5.687  10.362  0.6242  0.9115  0.6072
   62SAPC   O21 4874   2.227   5.582  10.230 -0.6852 -0.1995  0.2230
   62SAPC   C21 4875   2.132   5.586  10.136 -0.0269 -0.6245  0.4977
   62SAPC   O22 4876   2.016   5.607  10.154 -0.3953  0.1006  0.2009
   62SAPC   C22 4877   2.190   5.558   9.992  0.3926  0.6707 -0.4238
   62SAPC   H2R 4878   2.282   5.620   9.993 -0.1722  1.5762  2.0651
   62SAPC   H2S 4879   2.206   5.448   9.985 -1.4125  0.4264 -1.5993
   62SAPC    C3 4880   2.290   5.709  10.426 -0.3210 -0.1434 -0.8993
   62SAPC    HX 4881   2.382   5.648  10.435  1.5396  2.6895  0.9183
   62SAPC    HY 4882   2.252   5.725  10.529 -0.6430 -1.6777 -0.7463
   62SAPC   O31 4883   2.333   5.831  10.354 -0.3592  0.4629  0.2892
   62SAPC   C31 4884   2.238   5.924  10.370 -0.5755 -0.0789  0.0538
   62SAPC   O32 4885   2.126   5.901  10.405 -0.0527  0.2565  0.1538
   62SAPC   C32 4886   2.287   6.054  10.312 -0.2457 -0.3576 -0.0877
   62SAPC   H2X 4887   2.388   6.054  10.266 -0.5274  0.1808 -0.7323
   62SAPC   H2Y 4888   2.297   6.130  10.393  1.8963 -1.2995  0.5966
   62SAPC   C23 4889   2.093   5.616   9.880  0.2368 -0.4574  0.0199
   62SAPC   H3R 4890   2.052   5.711   9.920 -1.9096 -0.9532 -0.8786
   62SAPC   H3S 4891   2.023   5.532   9.861  0.7792 -0.7764 -0.6233
   62SAPC   C24 4892   2.173   5.658   9.755 -0.5173  0.4709 -0.3725
   62SAPC   H4R 4893   2.242   5.581   9.714 -0.3363  0.3822  0.0913
   62SAPC   H4S 4894   2.246   5.733   9.792  0.5830 -0.1158 -1.2916
   62SAPC   C25 4895   2.105   5.718   9.642  0.3958  0.3665  0.2225
   62SAPC   H5R 4896   2.027   5.783   9.684 -0.7640 -0.4747 -0.5609
   62SAPC   C26 4897   2.127   5.711   9.511  0.1630  0.2020  0.1588
   62SAPC   H6R 4898   2.070   5.776   9.444  0.1678 -0.0939 -0.1379
   62SAPC   C27 4899   2.239   5.642   9.439 -0.2130  0.9240  0.0948
   62SAPC   H7R 4900   2.191   5.551   9.396  1.4987  0.1300 -0.2399
   62SAPC   H7S 4901   2.311   5.586   9.502 -0.6230 -0.0281 -0.2585
   62SAPC   C28 4902   2.328   5.725   9.347  0.4165  0.4006 -0.0943
   62SAPC   H8R 4903   2.363   5.819   9.392 -1.6603  0.5125  1.4568
   62SAPC   C29 4904   2.378   5.693   9.225  0.1250  0.1390 -0.1847
   62SAPC   H9R 4905   2.432   5.776   9.177 -0.9355  0.5174 -0.7475
   62SAPC  C210 4906   2.362   5.560   9.151  0.0410 -0.5255 -0.0121
   62SAPC  H10R 4907   2.260   5.519   9.168  0.3271 -1.3491 -0.1994
   62SAPC  H10S 4908   2.438   5.488   9.191 -0.6237 -0.8286  0.7393
   62SAPC  C211 4909   2.363   5.576   8.998  0.3388  0.2190  0.6029
   62SAPC  H11R 4910   2.264   5.615   8.971  0.7346 -0.0966 -1.4292
   62SAPC  C212 4911   2.449   5.542   8.902 -0.0785 -1.3371  0.6884
   62SAPC  H12R 4912   2.424   5.561   8.796 -2.3163 -0.5789  1.2918
   62SAPC  C213 4913   2.579   5.477   8.928  0.3041 -0.1721 -0.1793
   62SAPC  H13R 4914   2.558   5.368   8.933  0.7589 -0.3227 -1.1950
   62SAPC  H13S 4915   2.613   5.503   9.031 -0.3678  0.5355 -0.1285
   62SAPC  C214 4916   2.694   5.502   8.838 -0.9570  0.3533 -0.4919
   62SAPC  H14R 4917   2.698   5.603   8.794  1.0376 -0.4277 -2.2881
   62SAPC  C215 4918   2.784   5.409   8.793 -0.9704 -0.5139 -0.1132
   62SAPC  H15R 4919   2.863   5.438   8.722 -0.2956  0.8622  1.1418
   62SAPC  C216 4920   2.775   5.263   8.822 -0.2596 -0.5661 -0.7750
   62SAPC  H16R 4921   2.777   5.203   8.728  1.4352 -0.9120 -0.5490
   62SAPC  H16S 4922   2.688   5.232   8.883 -0.0613 -0.6806 -0.5479
   62SAPC  C217 4923   2.895   5.214   8.910  0.5266  0.0849 -0.3040
   62SAPC  H17R 4924   2.862   5.143   8.990  0.3360  0.5875  0.0684
   62SAPC  H17S 4925   2.950   5.290   8.968 -0.0543 -0.2337  0.6972
   62SAPC  C218 4926   3.004   5.162   8.818  0.3187  0.6254  0.5908
   62SAPC  H18R 4927   3.061   5.243   8.768 -0.1943  0.7457  0.1876
   62SAPC  H18S 4928   2.975   5.082   8.747  0.7322  2.0187 -1.2402
   62SAPC  C219 4929   3.106   5.092   8.912  0.0083  0.8231  0.3587
   62SAPC  H19R 4930   3.057   5.003   8.958 -0.3828  0.4103 -0.8356
   62SAPC  H19S 4931   3.122   5.151   9.005  2.1858  1.5584 -0.4169
   62SAPC  C220 4932   3.237   5.057   8.846  0.3088 -0.9215 -0.0110
   62SAPC  H20R 4933   3.307   5.144   8.845 -2.5668  1.5559 -1.4092
   62SAPC  H20S 4934   3.218   5.041   8.738  0.9086  0.8165 -0.4186
   62SAPC  H20T 4935   3.286   4.969   8.894 -0.7528 -1.5197  0.0005
   62SAPC   C33 4936   2.174   6.109  10.219  0.1181 -0.2577 -0.0082
   62SAPC   H3X 4937   2.193   6.216  10.199  0.2065  0.0422  1.5357
   62SAPC   H3Y 4938   2.075   6.105  10.270  0.7885 -1.0365  1.3076
   62SAPC   C34 4939   2.164   6.028  10.085 -0.4072  0.0130  0.4265
   62SAPC   H4X 4940   2.063   6.047  10.043 -0.5481 -2.5109 -0.5542
   62SAPC   H4Y 4941   2.162   5.917  10.095  1.3734 -0.1117 -0.1965
   62SAPC   C35 4942   2.271   6.068   9.991 -0.0415 -0.0470  0.4532
   62SAPC   H5X 4943   2.373   6.028  10.011 -0.2639 -1.4425 -1.0156
   62SAPC   H5Y 4944   2.305   6.173  10.004  1.5461 -0.2342 -1.5744
   62SAPC   C36 4945   2.256   6.045   9.840 -0.0927 -0.0164  0.4436
   62SAPC   H6X 4946   2.223   6.140   9.793 -1.4076 -0.3308  0.6723
   62SAPC   H6Y 4947   2.175   5.969   9.834 -0.0206 -0.1435  1.0273
   62SAPC   C37 4948   2.385   5.993   9.777 -0.6010  0.0608 -0.1887
   62SAPC   H7X 4949   2.410   5.892   9.817 -2.1848 -0.2733  0.0375
   62SAPC   H7Y 4950   2.462   6.064   9.813 -1.9661  1.0147  0.9768
   62SAPC   C38 4951   2.386   6.001   9.618  0.4241  0.2185 -0.2399
   62SAPC   H8X 4952   2.294   5.949   9.583 -0.2671  0.3296  1.3290
   62SAPC   H8Y 4953   2.472   5.942   9.579  0.2652  1.4519 -2.5837
   62SAPC   C39 4954   2.381   6.139   9.558 -0.5318 -0.0080 -0.0219
   62SAPC   H9X 4955   2.455   6.206   9.606  2.0168 -1.3638 -1.8014
   62SAPC   H9Y 4956   2.282   6.180   9.586  0.4274  1.7265  0.9717
   62SAPC  C310 4957   2.404   6.133   9.399 -1.0070  0.3024 -0.6626
   62SAPC  H10X 4958   2.483   6.061   9.369 -2.0886 -1.8410  1.3445
   62SAPC  H10Y 4959   2.438   6.232   9.361  0.3541  0.8038  1.6973
   62SAPC  C311 4960   2.272   6.113   9.320  0.4053 -1.2761  0.3260
   62SAPC  H11X 4961   2.189   6.170   9.365  0.4374  0.0289 -1.1564
   62SAPC  H11Y 4962   2.244   6.006   9.329  1.3096 -1.6096 -0.5720
   62SAPC  C312 4963   2.286   6.134   9.171 -0.0930  0.3955 -0.1765
   62SAPC  H12X 4964   2.369   6.080   9.120 -1.6159 -0.5421 -1.7753
   62SAPC  H12Y 4965   2.318   6.240   9.165 -0.4758  0.4684 -0.9390
   62SAPC  C313 4966   2.165   6.122   9.090  0.4541 -0.4065  0.5933
   62SAPC  H13X 4967   2.180   6.170   8.991 -1.5734 -0.2475  0.3112
   62SAPC  H13Y 4968   2.082   6.180   9.136 -0.2735  0.1563 -1.3170
   62SAPC  C314 4969   2.125   5.974   9.068 -0.1703  0.0042  0.2354
   62SAPC  H14X 4970   2.124   5.923   9.167 -0.2488  1.5675  1.0669
   62SAPC  H14Y 4971   2.192   5.921   8.997 -1.6950 -3.7287  1.3112
   62SAPC  C315 4972   1.976   5.966   9.036 -0.5135  0.5839 -0.0210
   62SAPC  H15X 4973   1.947   6.040   8.958 -0.5624 -1.0427 -1.6035
   62SAPC  H15Y 4974   1.938   5.979   9.140  3.7587 -1.3350  2.0112
   62SAPC  C316 4975   1.928   5.825   8.988  0.6051  0.4956 -0.3123
   62SAPC  H16X 4976   1.966   5.808   8.885  0.3726  2.9379 -0.8622
   62SAPC  H16Y 4977   1.817   5.828   8.985  0.5616 -0.8586 -1.0686
   62SAPC  C317 4978   1.962   5.708   9.084  0.0304 -0.5871  0.0558
   62SAPC  H17X 4979   1.929   5.731   9.187 -0.1866  0.5018 -0.2419
   62SAPC  H17Y 4980   2.072   5.699   9.092  0.0688  0.7566  1.5401
   62SAPC  C318 4981   1.902   5.573   9.036 -0.1087  0.2222 -0.1370
   62SAPC  H18X 4982   1.925   5.499   9.116 -0.6476 -0.5616 -0.6901
   62SAPC  H18Y 4983   1.961   5.536   8.950  0.0688  0.1011  0.0354
   62SAPC  H18Z 4984   1.794   5.578   9.010 -0.4151  1.9555  1.2796
   63SAPC     N 4985   6.572   4.763   6.358  0.3989  0.0395  0.4376
   63SAPC   C12 4986   6.419   4.756   6.352 -0.4352  0.6043 -1.0492
   63SAPC  H12A 4987   6.381   4.717   6.445 -0.2064  0.7915 -0.8788
   63SAPC  H12B 4988   6.384   4.685   6.278 -1.0170  0.7646 -0.9372
   63SAPC   C13 4989   6.633   4.834   6.242  0.9501 -0.5694  0.4146
   63SAPC  H13A 4990   6.740   4.829   6.233  1.0179  0.3821  0.6420
   63SAPC  H13B 4991   6.593   4.802   6.147  1.0448 -0.6958  0.4177
   63SAPC  H13C 4992   6.603   4.938   6.246 -0.0526 -0.8769  2.0182
   63SAPC   C14 4993   6.619   4.831   6.481 -0.5481 -0.6047 -0.2446
   63SAPC  H14A 4994   6.727   4.831   6.488 -0.5979  0.9122  1.3711
   63SAPC  H14B 4995   6.572   4.929   6.485 -1.0492 -0.7921 -1.2840
   63SAPC  H14C 4996   6.599   4.774   6.570  1.3542  0.3695  0.8723
   63SAPC   C15 4997   6.632   4.621   6.348  0.2374  0.1088  0.8202
   63SAPC  H15A 4998   6.740   4.618   6.350  0.2283 -1.8224  0.1683
   63SAPC  H15B 4999   6.591   4.561   6.429 -0.4033  0.1363  0.5222
   63SAPC  H15C 5000   6.594   4.579   6.256  1.2832  1.3562 -0.2167
   63SAPC   C11 5001   6.357   4.895   6.327 -0.1439 -0.5951  0.3665
   63SAPC  H11A 5002   6.252   4.882   6.293  0.7378  0.5439 -3.2846
   63SAPC  H11B 5003   6.395   4.947   6.237 -2.1249 -0.3295 -0.3801
   63SAPC     P 5004   6.235   5.042   6.500 -0.0048  0.0554 -0.2139
   63SAPC   O13 5005   6.184   5.124   6.388 -0.6968  0.0202 -0.0259
   63SAPC   O14 5006   6.144   4.938   6.559  0.6837  0.5681 -0.2221
   63SAPC   O12 5007   6.368   4.973   6.447 -0.2239 -0.4748 -0.1779
   63SAPC   O11 5008   6.284   5.139   6.610  0.8779  0.0352 -0.4161
   63SAPC    C1 5009   6.339   5.084   6.726 -0.3074 -0.6274 -0.5107
   63SAPC    HA 5010   6.405   4.999   6.697 -0.4304 -0.2047 -2.1084
   63SAPC    HB 5011   6.403   5.160   6.776 -2.7610  0.6433  0.8568
   63SAPC    C2 5012   6.231   5.046   6.823  0.7736 -0.1319 -0.6985
   63SAPC    HS 5013   6.146   4.997   6.770 -2.0276  0.5489  2.8029
   63SAPC   O21 5014   6.188   5.171   6.886 -0.1231  0.2630 -0.6110
   63SAPC   C21 5015   6.060   5.161   6.933 -0.2407  0.2180 -0.3450
   63SAPC   O22 5016   5.993   5.062   6.913 -0.3636  0.1472  0.9686
   63SAPC   C22 5017   6.023   5.288   7.008  0.0171  0.0145  0.3109
   63SAPC   H2R 5018   6.108   5.357   7.026  0.6149 -0.5620 -0.2713
   63SAPC   H2S 5019   5.949   5.345   6.948  0.5881  0.9595  0.4772
   63SAPC    C3 5020   6.276   4.941   6.925 -0.9018  0.1877 -0.3504
   63SAPC    HX 5021   6.344   4.868   6.875  0.0335  0.8394 -0.0562
   63SAPC    HY 5022   6.183   4.885   6.949 -1.5821  1.0691 -0.8641
   63SAPC   O31 5023   6.338   4.991   7.042  0.0906  0.2309 -0.0127
   63SAPC   C31 5024   6.465   5.026   7.039  0.1505  0.6027 -0.1570
   63SAPC   O32 5025   6.541   5.019   6.938 -0.0221 -0.0255  0.1709
   63SAPC   C32 5026   6.500   5.076   7.179 -0.3109  0.0991 -0.3002
   63SAPC   H2X 5027   6.422   5.077   7.258 -0.1686  0.4564 -0.1623
   63SAPC   H2Y 5028   6.535   5.180   7.157  0.5064 -0.3554 -1.2683
   63SAPC   C23 5029   5.959   5.256   7.151  0.4908 -0.6058 -0.1316
   63SAPC   H3R 5030   5.865   5.199   7.139  0.4588 -0.3892 -0.9950
   63SAPC   H3S 5031   5.930   5.353   7.196 -0.5589 -1.6570  1.5507
   63SAPC   C24 5032   6.037   5.165   7.253  0.4039  0.3483  0.0480
   63SAPC   H4R 5033   6.073   5.074   7.200 -0.3120 -0.7830  1.4240
   63SAPC   H4S 5034   5.959   5.137   7.327 -2.6012  0.6913 -2.7873
   63SAPC   C25 5035   6.154   5.243   7.316  0.1455 -0.3684  0.2167
   63SAPC   H5R 5036   6.248   5.240   7.260 -1.1103  0.9539 -2.1561
   63SAPC   C26 5037   6.147   5.317   7.424  0.6914 -0.1997 -1.0287
   63SAPC   H6R 5038   6.234   5.370   7.466 -0.5591  1.3238 -0.2726
   63SAPC   C27 5039   6.018   5.342   7.503 -0.2342 -0.0763 -0.9709
   63SAPC   H7R 5040   5.933   5.332   7.432 -0.0540 -0.2229 -1.1652
   63SAPC   H7S 5041   6.017   5.446   7.540  0.1798 -0.1152 -0.8496
   63SAPC   C28 5042   6.001   5.244   7.616 -0.4618  0.3290  0.4402
   63SAPC   H8R 5043   6.030   5.141   7.591 -1.5078  0.3177 -0.8928
   63SAPC   C29 5044   5.955   5.262   7.743 -0.3331 -0.9534  0.3413
   63SAPC   H9R 5045   5.940   5.170   7.801  0.6901 -1.4419 -0.1440
   63SAPC  C210 5046   5.919   5.398   7.800 -0.0207  0.1591  0.8899
   63SAPC  H10R 5047   5.844   5.441   7.730 -0.9567 -2.2550  0.2894
   63SAPC  H10S 5048   6.009   5.460   7.784 -0.3276  0.8628  1.8098
   63SAPC  C211 5049   5.854   5.430   7.934  0.7333  0.7523  0.2541
   63SAPC  H11R 5050   5.775   5.505   7.917 -1.3080 -1.3658 -0.2794
   63SAPC  C212 5051   5.865   5.376   8.056  0.3322  0.6683 -0.5443
   63SAPC  H12R 5052   5.807   5.412   8.143  1.3284 -1.2771  1.0206
   63SAPC  C213 5053   5.962   5.269   8.094  0.3144 -0.5021  0.1897
   63SAPC  H13R 5054   6.026   5.317   8.171 -0.5919  1.2678 -0.1067
   63SAPC  H13S 5055   6.025   5.229   8.013 -1.9360 -1.0449 -1.3986
   63SAPC  C214 5056   5.895   5.147   8.146  0.6873 -0.4679 -0.0475
   63SAPC  H14R 5057   5.845   5.095   8.063 -0.7010 -0.2854  0.6473
   63SAPC  C215 5058   5.877   5.113   8.275  0.2849 -0.2317 -0.0746
   63SAPC  H15R 5059   5.834   5.013   8.290  1.9304 -0.7817  1.3819
   63SAPC  C216 5060   5.923   5.185   8.402 -0.1003  0.4298  0.5884
   63SAPC  H16R 5061   5.832   5.185   8.465 -0.3429  0.1083  0.2475
   63SAPC  H16S 5062   5.952   5.291   8.384 -0.1958  1.0746  3.6830
   63SAPC  C217 5063   6.038   5.113   8.477 -0.0072 -0.3170 -0.4686
   63SAPC  H17R 5064   6.052   5.157   8.579  0.5504 -2.7112  0.5622
   63SAPC  H17S 5065   6.126   5.131   8.411 -0.8565  0.5285 -1.3922
   63SAPC  C218 5066   6.026   4.960   8.504  0.3050  0.2869 -0.4726
   63SAPC  H18R 5067   6.109   4.941   8.576  1.0179  2.2777 -0.6827
   63SAPC  H18S 5068   6.055   4.890   8.424  1.3101 -2.0461  1.7795
   63SAPC  C219 5069   5.898   4.915   8.566  0.0846 -0.9085  0.5662
   63SAPC  H19R 5070   5.813   4.937   8.497 -0.8900 -3.0065  1.0025
   63SAPC  H19S 5071   5.863   4.982   8.648  0.6007 -0.9965  0.8649
   63SAPC  C220 5072   5.887   4.766   8.605  0.1191  0.7553 -0.0281
   63SAPC  H20R 5073   5.779   4.749   8.626 -0.3832  1.9698 -1.4170
   63SAPC  H20S 5074   5.959   4.733   8.683  2.3484 -0.4160 -2.4300
   63SAPC  H20T 5075   5.926   4.702   8.523 -2.1749  1.9970 -2.2362
   63SAPC   C33 5076   6.624   5.005   7.233 -0.1611 -0.5130 -0.4466
   63SAPC   H3X 5077   6.715   5.014   7.170  0.3010 -0.2562  0.2424
   63SAPC   H3Y 5078   6.609   4.895   7.234 -1.1290 -0.4777 -3.1019
   63SAPC   C34 5079   6.670   5.056   7.377  0.6123  0.2691  0.3422
   63SAPC   H4X 5080   6.724   5.153   7.367  0.2942  0.3197 -1.0158
   63SAPC   H4Y 5081   6.756   4.992   7.406 -0.4013 -1.5061 -0.4248
   63SAPC   C35 5082   6.563   5.078   7.477  1.5224  0.1885 -0.1783
   63SAPC   H5X 5083   6.504   4.985   7.489 -0.0096  1.3884  2.2077
   63SAPC   H5Y 5084   6.490   5.154   7.442 -1.3458 -2.8516 -1.2759
   63SAPC   C36 5085   6.616   5.114   7.615  0.4714 -0.0022 -0.0835
   63SAPC   H6X 5086   6.696   5.190   7.602  0.0597  0.5831  0.6981
   63SAPC   H6Y 5087   6.669   5.025   7.653 -1.0189 -0.1879  1.7112
   63SAPC   C37 5088   6.505   5.153   7.713 -0.0416  0.0380 -0.1886
   63SAPC   H7X 5089   6.435   5.224   7.663 -0.0063  0.9149  0.9592
   63SAPC   H7Y 5090   6.545   5.219   7.793 -1.9728  1.0946 -0.0338
   63SAPC   C38 5091   6.426   5.036   7.781  0.4889 -0.6195  0.3404
   63SAPC   H8X 5092   6.500   4.985   7.847  0.8111  0.0773  0.5376
   63SAPC   H8Y 5093   6.387   4.960   7.711 -0.1850  2.7909 -3.3357
   63SAPC   C39 5094   6.306   5.080   7.871  0.1100  0.0415 -0.4078
   63SAPC   H9X 5095   6.246   4.995   7.907  1.5724 -0.5815  0.6599
   63SAPC   H9Y 5096   6.236   5.138   7.806 -3.0493  0.9193  3.3629
   63SAPC  C310 5097   6.342   5.166   7.997  0.1974  0.1941 -0.1261
   63SAPC  H10X 5098   6.248   5.196   8.047  1.0933  0.8107  1.2377
   63SAPC  H10Y 5099   6.397   5.258   7.968  0.7151  0.8804  2.7589
   63SAPC  C311 5100   6.424   5.091   8.111 -0.1390 -0.0002  0.0998
   63SAPC  H11X 5101   6.524   5.058   8.075 -0.8437  0.0073 -2.0282
   63SAPC  H11Y 5102   6.355   5.008   8.135 -0.3926  0.5927  1.5675
   63SAPC  C312 5103   6.440   5.177   8.235  0.1606  0.1873  0.1181
   63SAPC  H12X 5104   6.346   5.196   8.291  0.8476 -0.4666  1.5561
   63SAPC  H12Y 5105   6.487   5.273   8.207 -0.4655  0.2974 -0.6030
   63SAPC  C313 5106   6.530   5.117   8.351 -0.3518  0.0205 -0.0174
   63SAPC  H13X 5107   6.529   5.180   8.442 -1.5612  0.8018 -0.5482
   63SAPC  H13Y 5108   6.622   5.129   8.290 -0.0420 -0.3590  0.3662
   63SAPC  C314 5109   6.503   4.969   8.390 -0.1249 -0.0871  0.1914
   63SAPC  H14X 5110   6.535   4.898   8.311  2.2073  1.1277 -0.0488
   63SAPC  H14Y 5111   6.393   4.961   8.400 -0.4294  2.5892 -0.4818
   63SAPC  C315 5112   6.580   4.916   8.512  0.2264  0.1954 -0.1649
   63SAPC  H15X 5113   6.683   4.955   8.499  0.4527 -0.3579 -0.0772
   63SAPC  H15Y 5114   6.575   4.805   8.503 -1.1665  0.3694 -2.3109
   63SAPC  C316 5115   6.520   4.971   8.642 -0.4940  0.0212  0.7107
   63SAPC  H16X 5116   6.431   4.907   8.663  0.5781 -1.6949  0.2696
   63SAPC  H16Y 5117   6.496   5.078   8.624 -0.0927  0.0745  0.4808
   63SAPC  C317 5118   6.600   4.962   8.771 -0.6792 -0.0913 -0.9025
   63SAPC  H17X 5119   6.649   4.863   8.783  0.2447  0.5760  1.2111
   63SAPC  H17Y 5120   6.533   4.978   8.858  2.3927  1.9186  1.2953
   63SAPC  C318 5121   6.706   5.074   8.771  0.5093 -0.3935 -0.0960
   63SAPC  H18X 5122   6.658   5.173   8.753  2.2570  0.5492  0.1649
   63SAPC  H18Y 5123   6.779   5.057   8.689 -0.5500  0.6582 -1.3160
   63SAPC  H18Z 5124   6.761   5.072   8.867 -1.1784 -1.5105  0.8943
   64SAPC     N 5125   6.495   6.309   5.834  0.2604 -0.5629  0.2213
   64SAPC   C12 5126   6.536   6.355   5.972 -0.1081  0.0040  0.1716
   64SAPC  H12A 5127   6.447   6.333   6.030 -0.8536 -2.2407 -1.6572
   64SAPC  H12B 5128   6.552   6.461   5.961  2.5949 -0.3405  0.2164
   64SAPC   C13 5129   6.367   6.377   5.793 -0.7645  0.3195 -0.1420
   64SAPC  H13A 5130   6.374   6.484   5.780  0.6675  0.1009 -1.3693
   64SAPC  H13B 5131   6.316   6.338   5.707  0.2969 -0.2947 -0.5049
   64SAPC  H13C 5132   6.293   6.359   5.870 -1.8276  0.1255 -1.1703
   64SAPC   C14 5133   6.600   6.337   5.733 -0.5765 -0.1138  0.4522
   64SAPC  H14A 5134   6.694   6.312   5.779 -1.6128 -1.9332  1.7178
   64SAPC  H14B 5135   6.585   6.282   5.641  1.6873  0.5526 -0.3695
   64SAPC  H14C 5136   6.611   6.443   5.716  1.3578 -0.1563  1.1992
   64SAPC   C15 5137   6.476   6.164   5.840  0.1974  0.7290 -0.3757
   64SAPC  H15A 5138   6.397   6.137   5.909 -0.2056  2.4838 -0.1059
   64SAPC  H15B 5139   6.448   6.128   5.742 -1.9766  0.1352  0.3894
   64SAPC  H15C 5140   6.569   6.120   5.871  1.4331  1.7260 -2.4487
   64SAPC   C11 5141   6.658   6.301   6.050  0.5985 -0.0489 -0.5169
   64SAPC  H11A 5142   6.640   6.198   6.087  0.5729 -0.6878 -2.2482
   64SAPC  H11B 5143   6.660   6.365   6.141 -0.4947  1.4896 -1.5151
   64SAPC     P 5144   6.899   6.405   6.023 -0.1851 -0.1973 -0.2124
   64SAPC   O13 5145   7.024   6.334   5.987  0.5915 -0.0823  0.1184
   64SAPC   O14 5146   6.877   6.539   5.971 -0.1523  0.0688  0.1692
   64SAPC   O12 5147   6.780   6.310   5.976  0.0846 -0.2001  0.2376
   64SAPC   O11 5148   6.886   6.409   6.185 -0.2500 -0.4016 -0.0760
   64SAPC    C1 5149   6.855   6.523   6.253 -0.2221 -0.4849  0.1235
   64SAPC    HA 5150   6.912   6.604   6.204  0.6959 -1.5508 -0.6236
   64SAPC    HB 5151   6.748   6.551   6.249  0.1728  1.7778  2.6537
   64SAPC    C2 5152   6.893   6.518   6.405 -0.0458 -0.4888  0.1352
   64SAPC    HS 5153   6.988   6.463   6.424 -0.5413 -1.2303  0.4800
   64SAPC   O21 5154   6.784   6.460   6.478  0.8065  0.0467  0.0014
   64SAPC   C21 5155   6.783   6.323   6.479 -0.1097  0.0148 -0.1798
   64SAPC   O22 5156   6.859   6.247   6.417 -0.4235 -0.5987  0.2113
   64SAPC   C22 5157   6.665   6.272   6.562  0.0676 -0.1976 -0.1922
   64SAPC   H2R 5158   6.652   6.358   6.630  0.6987 -0.5527  0.3890
   64SAPC   H2S 5159   6.578   6.251   6.496  1.7408 -2.8152 -1.7607
   64SAPC    C3 5160   6.913   6.657   6.460  0.3505  0.0145  0.1616
   64SAPC    HX 5161   6.819   6.709   6.433  0.1292 -1.1238 -1.3677
   64SAPC    HY 5162   6.998   6.713   6.416 -1.0259  1.7039 -0.4457
   64SAPC   O31 5163   6.952   6.644   6.600 -0.6253  0.4421  0.4798
   64SAPC   C31 5164   6.864   6.691   6.687 -0.4972  0.3411 -0.3934
   64SAPC   O32 5165   6.760   6.746   6.659 -0.4514 -0.2060  0.5241
   64SAPC   C32 5166   6.910   6.674   6.837  0.5633  0.1990  0.5092
   64SAPC   H2X 5167   7.005   6.729   6.854  1.9868 -2.0703  0.2903
   64SAPC   H2Y 5168   6.916   6.564   6.851 -1.7833 -0.3831 -2.0733
   64SAPC   C23 5169   6.701   6.150   6.654 -0.0680 -0.2415  0.5906
   64SAPC   H3R 5170   6.776   6.175   6.733 -0.4950  2.1078  0.3262
   64SAPC   H3S 5171   6.737   6.067   6.591 -0.8225  0.7228 -1.1619
   64SAPC   C24 5172   6.575   6.082   6.714 -0.4437 -0.0257  0.2089
   64SAPC   H4R 5173   6.515   6.031   6.635  0.9813 -0.0406 -0.8985
   64SAPC   H4S 5174   6.506   6.157   6.760 -1.6380 -1.6552  1.1647
   64SAPC   C25 5175   6.616   5.980   6.818 -0.1030  0.2275 -0.0658
   64SAPC   H5R 5176   6.694   5.909   6.784 -0.8696 -0.7542  0.1939
   64SAPC   C26 5177   6.578   5.990   6.954 -0.1343 -0.3971 -0.3942
   64SAPC   H6R 5178   6.616   5.919   7.029  2.2058  2.2596  1.1050
   64SAPC   C27 5179   6.489   6.101   7.012 -0.3537  1.0156  1.3446
   64SAPC   H7R 5180   6.438   6.060   7.103  0.9496  1.1674  2.1759
   64SAPC   H7S 5181   6.419   6.132   6.932  0.5078 -0.6612 -0.1517
   64SAPC   C28 5182   6.562   6.228   7.053 -0.0774 -0.3436 -0.1635
   64SAPC   H8R 5183   6.634   6.264   6.979 -1.1617 -1.5015 -1.8775
   64SAPC   C29 5184   6.544   6.295   7.177  0.0565 -0.2352 -0.1172
   64SAPC   H9R 5185   6.601   6.387   7.194  0.2683 -0.4812  0.5331
   64SAPC  C210 5186   6.454   6.262   7.293  0.0782 -0.0874  0.4407
   64SAPC  H10R 5187   6.372   6.197   7.257 -0.3909  0.0185  1.2979
   64SAPC  H10S 5188   6.397   6.354   7.316  0.2407  0.3716 -0.9108
   64SAPC  C211 5189   6.527   6.218   7.416  0.1859 -0.3868  0.5757
   64SAPC  H11R 5190   6.615   6.154   7.401  3.5276  3.5486  1.5569
   64SAPC  C212 5191   6.519   6.274   7.538 -0.2658  0.1548  0.4042
   64SAPC  H12R 5192   6.588   6.237   7.615  1.2703  0.4768 -0.7884
   64SAPC  C213 5193   6.439   6.389   7.581 -0.0727  0.2098  0.3925
   64SAPC  H13R 5194   6.421   6.466   7.502  0.4361 -0.6468 -0.5877
   64SAPC  H13S 5195   6.488   6.439   7.667 -1.2789  3.2410 -0.5246
   64SAPC  C214 5196   6.305   6.339   7.631 -0.0858  0.0054 -0.5761
   64SAPC  H14R 5197   6.267   6.245   7.588  1.9423 -0.9214 -0.4709
   64SAPC  C215 5198   6.242   6.399   7.734  0.0561 -0.1951 -0.2789
   64SAPC  H15R 5199   6.152   6.357   7.779  0.0214  1.5560  1.3958
   64SAPC  C216 5200   6.287   6.534   7.805  0.4548 -0.5835 -0.1855
   64SAPC  H16R 5201   6.205   6.607   7.818  1.1481  0.4165 -1.2503
   64SAPC  H16S 5202   6.352   6.598   7.742  0.5847  2.0277  2.4254
   64SAPC  C217 5203   6.362   6.498   7.939  0.5127  0.3158  0.5301
   64SAPC  H17R 5204   6.424   6.585   7.968 -0.2983  1.8970 -2.1826
   64SAPC  H17S 5205   6.429   6.411   7.925 -0.5450 -0.2807 -1.0399
   64SAPC  C218 5206   6.261   6.469   8.053  0.0221 -0.0870  0.3050
   64SAPC  H18R 5207   6.218   6.370   8.024  0.3506  0.2605 -1.4957
   64SAPC  H18S 5208   6.178   6.542   8.058  1.7724  1.9524  0.9900
   64SAPC  C219 5209   6.335   6.455   8.184  0.4375 -0.3014 -0.4113
   64SAPC  H19R 5210   6.410   6.374   8.171  1.6558  0.0401  3.2953
   64SAPC  H19S 5211   6.264   6.423   8.264 -0.6451 -0.3466 -1.3586
   64SAPC  C220 5212   6.391   6.583   8.232 -0.2680  0.8776 -0.3105
   64SAPC  H20R 5213   6.487   6.609   8.184 -0.5868  0.2145 -1.3367
   64SAPC  H20S 5214   6.414   6.566   8.340  0.4965 -1.1823 -0.7487
   64SAPC  H20T 5215   6.324   6.671   8.224  0.1418  1.3956  1.4317
   64SAPC   C33 5216   6.805   6.737   6.935  0.0148  0.1493  0.6434
   64SAPC   H3X 5217   6.706   6.687   6.921  0.6348 -0.9060 -0.1847
   64SAPC   H3Y 5218   6.784   6.846   6.936 -2.7092 -0.2975  1.3105
   64SAPC   C34 5219   6.842   6.707   7.083 -0.0212  0.4408  0.3130
   64SAPC   H4X 5220   6.793   6.774   7.157 -0.2783  2.7196 -1.7650
   64SAPC   H4Y 5221   6.951   6.731   7.093 -0.2937  2.5594 -1.1808
   64SAPC   C35 5222   6.834   6.561   7.133  0.1007  0.4051 -0.4027
   64SAPC   H5X 5223   6.897   6.492   7.072 -1.8307 -1.8804  0.0260
   64SAPC   H5Y 5224   6.733   6.528   7.100 -0.2544  2.0523 -1.0718
   64SAPC   C36 5225   6.864   6.535   7.284  0.6663 -0.3558  0.1932
   64SAPC   H6X 5226   6.966   6.573   7.304  0.9058 -0.9957  0.1860
   64SAPC   H6Y 5227   6.867   6.426   7.302  0.9450 -0.6560 -1.4543
   64SAPC   C37 5228   6.767   6.610   7.384 -0.7484 -0.0790  0.1820
   64SAPC   H7X 5229   6.662   6.607   7.346 -0.4543  1.7694 -0.9057
   64SAPC   H7Y 5230   6.793   6.718   7.381  0.6720 -0.3645  1.0431
   64SAPC   C38 5231   6.779   6.564   7.530 -0.1870 -0.0612 -0.1062
   64SAPC   H8X 5232   6.733   6.464   7.541  1.4802 -0.9552 -0.8170
   64SAPC   H8Y 5233   6.721   6.637   7.590  3.4045  0.9344  2.5376
   64SAPC   C39 5234   6.924   6.564   7.587 -0.8470 -0.4009  0.5028
   64SAPC   H9X 5235   6.956   6.667   7.560  0.8933 -1.1287 -0.3587
   64SAPC   H9Y 5236   6.997   6.495   7.540  0.5954  0.2879  1.6650
   64SAPC  C310 5237   6.934   6.542   7.739  0.2025  0.0161  0.1881
   64SAPC  H10X 5238   6.861   6.605   7.794  2.0435  3.5277 -1.1172
   64SAPC  H10Y 5239   7.033   6.564   7.785 -0.1396 -0.8453  1.3897
   64SAPC  C311 5240   6.910   6.390   7.769 -0.0798  0.3526 -0.2306
   64SAPC  H11X 5241   6.983   6.361   7.847  0.9070 -0.3394 -1.3924
   64SAPC  H11Y 5242   6.924   6.333   7.675  2.4571 -0.5678  0.6311
   64SAPC  C312 5243   6.771   6.364   7.820 -0.4118  0.2370 -0.5008
   64SAPC  H12X 5244   6.697   6.408   7.749 -0.1403 -1.4948 -1.9420
   64SAPC  H12Y 5245   6.757   6.411   7.919  0.3082 -0.6403  0.0244
   64SAPC  C313 5246   6.734   6.218   7.827  0.2393 -0.2111  0.2565
   64SAPC  H13X 5247   6.817   6.168   7.881 -0.0085  1.4731  2.3296
   64SAPC  H13Y 5248   6.746   6.174   7.726 -0.0883  1.9582 -0.7788
   64SAPC  C314 5249   6.608   6.178   7.907  0.2253  0.5422  0.3939
   64SAPC  H14X 5250   6.520   6.232   7.865  1.5300  2.6807  0.2637
   64SAPC  H14Y 5251   6.618   6.211   8.013  0.0187  0.5659  0.4078
   64SAPC  C315 5252   6.593   6.026   7.919  0.0525 -0.3680  0.8062
   64SAPC  H15X 5253   6.693   5.978   7.909  0.7071  1.3679 -1.8628
   64SAPC  H15Y 5254   6.531   5.995   7.832  0.2039  0.9592  0.2177
   64SAPC  C316 5255   6.534   5.995   8.057  0.2686 -0.2433 -0.3694
   64SAPC  H16X 5256   6.593   6.038   8.141  1.2713 -2.8435  0.3307
   64SAPC  H16Y 5257   6.508   5.888   8.067 -0.8563  0.1726  1.9243
   64SAPC  C317 5258   6.392   6.059   8.061  0.7263 -0.1299  0.0943
   64SAPC  H17X 5259   6.328   6.023   7.978 -0.7785  2.5696 -0.0431
   64SAPC  H17Y 5260   6.397   6.168   8.038 -2.3946  0.1138  0.1145
   64SAPC  C318 5261   6.313   6.042   8.188 -0.4259  0.5464 -0.2007
   64SAPC  H18X 5262   6.318   5.937   8.225  2.3285  0.3302 -0.9699
   64SAPC  H18Y 5263   6.207   6.069   8.168 -0.7184 -0.1951  0.3045
   64SAPC  H18Z 5264   6.352   6.106   8.271  0.8826 -0.0601 -0.3173
   65SAPC     N 5265   5.726   0.226   6.030 -0.5702  0.5820 -0.6307
   65SAPC   C12 5266   5.658   0.272   6.157 -0.1619 -0.5684  0.0749
   65SAPC  H12A 5267   5.658   0.193   6.231 -0.2945 -1.5567 -0.9516
   65SAPC  H12B 5268   5.553   0.288   6.136 -0.6487  0.5817  2.9337
   65SAPC   C13 5269   5.715   0.338   5.933  0.2359 -0.5914  0.9536
   65SAPC  H13A 5270   5.609   0.362   5.936  0.2828 -0.3518  0.7232
   65SAPC  H13B 5271   5.761   0.431   5.963 -0.6474  0.1727  0.0376
   65SAPC  H13C 5272   5.744   0.310   5.833 -1.4313  1.1923 -0.1043
   65SAPC   C14 5273   5.868   0.201   6.061 -0.7640  0.2519 -0.6247
   65SAPC  H14A 5274   5.923   0.291   6.084  2.3807 -0.7829 -3.1913
   65SAPC  H14B 5275   5.892   0.142   6.148 -0.6794  0.1980 -0.6832
   65SAPC  H14C 5276   5.927   0.154   5.983  1.6105  1.1129  0.5418
   65SAPC   C15 5277   5.667   0.100   5.972  0.6250 -0.1908  0.5964
   65SAPC  H15A 5278   5.629   0.031   6.047  0.2622 -1.1157 -0.4122
   65SAPC  H15B 5279   5.589   0.120   5.900  0.4572 -1.1881  0.4886
   65SAPC  H15C 5280   5.743   0.048   5.915  0.0035  1.3641 -1.7882
   65SAPC   C11 5281   5.707   0.414   6.218  0.7212 -0.4759  0.6129
   65SAPC  H11A 5282   5.813   0.419   6.251  0.7396 -0.5887  0.5721
   65SAPC  H11B 5283   5.662   0.408   6.319 -0.1637 -2.6773  0.1410
   65SAPC     P 5284   5.522   0.583   6.157  0.2853 -0.0512  0.0340
   65SAPC   O13 5285   5.513   0.722   6.111  0.0571 -0.3132 -0.2257
   65SAPC   O14 5286   5.445   0.487   6.075  0.5331  0.2155 -0.1330
   65SAPC   O12 5287   5.663   0.526   6.144  0.0201 -1.1113  0.2330
   65SAPC   O11 5288   5.472   0.568   6.301 -0.9127 -0.1167 -0.0958
   65SAPC    C1 5289   5.475   0.676   6.399 -0.2800  0.1820  0.3785
   65SAPC    HA 5290   5.510   0.778   6.370 -2.2065  0.5630 -0.8225
   65SAPC    HB 5291   5.371   0.693   6.436  0.4033  1.4408  1.8362
   65SAPC    C2 5292   5.563   0.641   6.516 -0.5289  0.4589 -0.8476
   65SAPC    HS 5293   5.570   0.722   6.592  0.7017 -0.7371  0.3630
   65SAPC   O21 5294   5.699   0.606   6.470  0.7256 -0.8048 -0.0485
   65SAPC   C21 5295   5.777   0.718   6.445 -0.2657 -0.2192 -0.3906
   65SAPC   O22 5296   5.744   0.831   6.475  0.1584 -0.0458 -0.5672
   65SAPC   C22 5297   5.904   0.668   6.373 -0.3745  0.3166  0.0755
   65SAPC   H2R 5298   5.951   0.595   6.442 -1.6533  0.2017  0.8410
   65SAPC   H2S 5299   5.862   0.624   6.280 -0.1425  1.7611 -0.7460
   65SAPC    C3 5300   5.508   0.508   6.594  0.0219  0.5262 -0.7924
   65SAPC    HX 5301   5.588   0.475   6.664  1.2100  0.6918 -2.0247
   65SAPC    HY 5302   5.500   0.430   6.515 -1.1839 -1.3237  1.0564
   65SAPC   O31 5303   5.384   0.527   6.663  0.2385 -0.1479  0.2278
   65SAPC   C31 5304   5.320   0.421   6.709  0.0932 -0.0430 -0.3246
   65SAPC   O32 5305   5.363   0.311   6.696 -0.2745  0.1978  0.3281
   65SAPC   C32 5306   5.196   0.459   6.792 -0.3902  0.0735 -0.1969
   65SAPC   H2X 5307   5.117   0.382   6.782  0.6269 -1.0436  0.1794
   65SAPC   H2Y 5308   5.163   0.559   6.755  1.1720  1.2529  1.4293
   65SAPC   C23 5309   6.005   0.779   6.342  0.1367  0.1585  0.2588
   65SAPC   H3R 5310   5.982   0.860   6.415  0.0640  1.6969 -1.3895
   65SAPC   H3S 5311   5.993   0.817   6.238 -1.4301  1.2420  0.7862
   65SAPC   C24 5312   6.152   0.734   6.361 -1.0066 -0.2338 -0.2185
   65SAPC   H4R 5313   6.181   0.666   6.278 -0.7801  0.3747 -0.6458
   65SAPC   H4S 5314   6.159   0.692   6.464  0.0815  1.4896  0.4490
   65SAPC   C25 5315   6.247   0.848   6.370 -0.2423  0.2490  0.0532
   65SAPC   H5R 5316   6.316   0.855   6.285 -1.1964 -0.3947 -0.8004
   65SAPC   C26 5317   6.267   0.916   6.486  0.0388  0.1385 -0.5844
   65SAPC   H6R 5318   6.339   0.999   6.480 -2.3763  2.3980 -0.5287
   65SAPC   C27 5319   6.195   0.909   6.620 -0.7272 -0.7408 -0.2416
   65SAPC   H7R 5320   6.088   0.884   6.606 -0.7642 -1.7289  1.4483
   65SAPC   H7S 5321   6.188   1.006   6.674 -0.2013 -0.7897 -0.0759
   65SAPC   C28 5322   6.253   0.803   6.714  0.4450 -0.2133  0.8833
   65SAPC   H8R 5323   6.361   0.819   6.725  0.3280  2.3853 -0.9190
   65SAPC   C29 5324   6.198   0.713   6.801  0.1200  0.6313  0.5744
   65SAPC   H9R 5325   6.264   0.647   6.860 -2.4691 -2.3641  0.3881
   65SAPC  C210 5326   6.051   0.691   6.827  0.1859  0.1718 -0.1183
   65SAPC  H10R 5327   6.001   0.783   6.789 -1.7190 -0.7172  0.1219
   65SAPC  H10S 5328   6.032   0.683   6.937  3.0232  1.2758  0.5309
   65SAPC  C211 5329   5.989   0.580   6.744  0.9342 -0.0735 -0.0090
   65SAPC  H11R 5330   6.052   0.534   6.667  1.2356 -0.1974  0.3067
   65SAPC  C212 5331   5.859   0.537   6.774 -0.4405  0.7618 -0.4858
   65SAPC  H12R 5332   5.819   0.455   6.713 -0.8036  0.1747  0.5157
   65SAPC  C213 5333   5.754   0.584   6.876 -0.8078 -0.9158  0.5941
   65SAPC  H13R 5334   5.784   0.563   6.981 -1.0789 -0.4376  0.7688
   65SAPC  H13S 5335   5.662   0.524   6.862 -1.1725  0.0974 -1.8316
   65SAPC  C214 5336   5.710   0.734   6.862 -0.6940 -0.5114  0.5385
   65SAPC  H14R 5337   5.769   0.797   6.793  0.9391 -1.9049  0.5870
   65SAPC  C215 5338   5.624   0.797   6.929  0.3315 -0.5193  0.0519
   65SAPC  H15R 5339   5.589   0.896   6.897 -1.1370 -2.0719 -3.7555
   65SAPC  C216 5340   5.528   0.739   7.035  0.1415  0.1575  0.1264
   65SAPC  H16R 5341   5.549   0.631   7.055  0.2874  0.1890  0.1438
   65SAPC  H16S 5342   5.424   0.763   7.007 -0.2118 -0.5444  0.7807
   65SAPC  C217 5343   5.547   0.815   7.168  0.1006  0.6900 -0.0108
   65SAPC  H17R 5344   5.547   0.922   7.140 -0.9554  0.4882 -0.8371
   65SAPC  H17S 5345   5.649   0.792   7.206 -0.6134  1.6295  2.6763
   65SAPC  C218 5346   5.439   0.771   7.268 -0.4680 -0.1125 -0.3693
   65SAPC  H18R 5347   5.457   0.664   7.296 -1.3420 -0.2053 -0.1325
   65SAPC  H18S 5348   5.343   0.759   7.215  0.4899  0.9598 -2.4683
   65SAPC  C219 5349   5.426   0.860   7.391  0.1780 -0.4155 -0.7397
   65SAPC  H19R 5350   5.422   0.969   7.369 -1.1628 -0.6056 -1.5061
   65SAPC  H19S 5351   5.511   0.831   7.457 -1.0493 -1.0865  0.6025
   65SAPC  C220 5352   5.310   0.829   7.483  0.0837 -0.0458 -0.3656
   65SAPC  H20R 5353   5.208   0.858   7.451 -1.4263 -1.2911  2.8493
   65SAPC  H20S 5354   5.327   0.871   7.585 -0.0026  2.2128 -1.2468
   65SAPC  H20T 5355   5.305   0.718   7.488  0.5061 -0.0746 -0.5546
   65SAPC   C33 5356   5.235   0.469   6.946  0.1526  0.7587  0.8701
   65SAPC   H3X 5357   5.306   0.553   6.962  2.5540 -0.7555 -1.0840
   65SAPC   H3Y 5358   5.287   0.375   6.975 -2.3012 -1.5930 -1.6291
   65SAPC   C34 5359   5.119   0.475   7.034  0.2809  0.1336 -0.1085
   65SAPC   H4X 5360   5.030   0.416   7.002 -0.8638  1.7954 -0.1268
   65SAPC   H4Y 5361   5.077   0.578   7.034 -2.1266 -0.7003 -2.7021
   65SAPC   C35 5362   5.163   0.442   7.173  0.6082  0.7579 -0.5026
   65SAPC   H5X 5363   5.262   0.491   7.185  1.8614 -1.4699 -1.2304
   65SAPC   H5Y 5364   5.179   0.332   7.176 -4.1216 -0.2185 -2.1977
   65SAPC   C36 5365   5.057   0.483   7.280 -0.4532  0.6107  0.3630
   65SAPC   H6X 5366   4.959   0.439   7.250  0.5556  0.7297 -3.6615
   65SAPC   H6Y 5367   5.039   0.592   7.284 -1.4991  0.4325  0.9818
   65SAPC   C37 5368   5.100   0.430   7.414  0.7628  0.0055  0.1225
   65SAPC   H7X 5369   5.177   0.497   7.456  0.1734 -0.2536  1.6717
   65SAPC   H7Y 5370   5.148   0.330   7.414  0.0255 -0.4516  3.1824
   65SAPC   C38 5371   4.986   0.427   7.517 -0.1606  0.3402 -0.4850
   65SAPC   H8X 5372   4.900   0.359   7.503  0.1335  0.0237 -0.7768
   65SAPC   H8Y 5373   4.943   0.529   7.510 -1.1902 -0.1097 -0.9065
   65SAPC   C39 5374   5.037   0.396   7.665  0.3184 -0.2109 -0.4506
   65SAPC   H9X 5375   5.069   0.493   7.708 -1.5456 -0.0560  0.7066
   65SAPC   H9Y 5376   5.122   0.324   7.663 -0.6703 -1.4143 -0.4676
   65SAPC  C310 5377   4.929   0.346   7.760 -0.1080 -0.0923  0.2590
   65SAPC  H10X 5378   4.883   0.256   7.713  2.0601 -1.5589  0.7868
   65SAPC  H10Y 5379   4.861   0.434   7.770 -0.1853 -0.2137  0.8432
   65SAPC  C311 5380   4.975   0.314   7.902  0.3897  0.0057 -0.6573
   65SAPC  H11X 5381   5.003   0.408   7.954 -1.2644 -0.3515  0.9655
   65SAPC  H11Y 5382   5.076   0.269   7.885  0.7575 -0.1701  1.7293
   65SAPC  C312 5383   4.876   0.228   7.981  0.5221 -0.1893  0.3272
   65SAPC  H12X 5384   4.879   0.126   7.937  0.7687  0.1237 -0.3900
   65SAPC  H12Y 5385   4.779   0.277   7.958  1.2265  0.4020 -1.5487
   65SAPC  C313 5386   4.905   0.217   8.126  0.3753 -0.8268  0.5542
   65SAPC  H13X 5387   4.814   0.184   8.181 -1.3620  1.5583 -0.6715
   65SAPC  H13Y 5388   4.910   0.318   8.173 -2.5339 -0.8189  1.0534
   65SAPC  C314 5389   5.023   0.126   8.156 -0.5290 -0.1064 -0.4632
   65SAPC  H14X 5390   5.118   0.179   8.138  0.4989 -2.1533 -1.4479
   65SAPC  H14Y 5391   5.027   0.032   8.096  2.5494 -0.9986  0.9318
   65SAPC  C315 5392   5.030   0.085   8.302  0.1643  0.3466 -0.4098
   65SAPC  H15X 5393   4.943   0.024   8.335  1.2610 -1.3368 -0.5194
   65SAPC  H15Y 5394   5.028   0.175   8.368  0.8750 -2.3240  3.6077
   65SAPC  C316 5395   5.165   0.019   8.340 -0.3001 -0.2837 -0.5876
   65SAPC  H16X 5396   5.238   0.074   8.276 -1.3999  0.7840 -0.9597
   65SAPC  H16Y 5397   5.160  -0.079   8.289 -3.5023 -0.5911  0.0789
   65SAPC  C317 5398   5.219   0.041   8.484 -0.3899  0.0465 -0.3307
   65SAPC  H17X 5399   5.313  -0.017   8.494  0.3727  1.3760  0.5009
   65SAPC  H17Y 5400   5.151  -0.010   8.556 -0.1843  0.6308  0.2975
   65SAPC  C318 5401   5.255   0.184   8.521  0.1253 -0.2019  0.1816
   65SAPC  H18X 5402   5.286   0.185   8.627  0.6785 -1.6440  0.0610
   65SAPC  H18Y 5403   5.168   0.248   8.496 -0.4594 -0.4657  1.5073
   65SAPC  H18Z 5404   5.337   0.220   8.455 -2.4048  2.5442 -1.7554
   66SAPC     N 5405   4.902   1.173   6.292 -0.4320  0.0535  0.3875
   66SAPC   C12 5406   4.846   1.217   6.426 -0.1679 -0.0094  0.2867
   66SAPC  H12A 5407   4.830   1.127   6.483 -0.8516 -0.8772 -1.2337
   66SAPC  H12B 5408   4.754   1.271   6.410 -2.1153 -3.6154 -2.0058
   66SAPC   C13 5409   4.802   1.088   6.217  0.1043 -1.3695  0.2857
   66SAPC  H13A 5410   4.786   0.992   6.264 -1.1187 -0.2257  2.3764
   66SAPC  H13B 5411   4.702   1.130   6.218 -0.1729 -1.9977 -0.3847
   66SAPC  H13C 5412   4.824   1.081   6.112 -0.8464 -0.3551  0.0023
   66SAPC   C14 5413   4.926   1.300   6.213  0.1740 -0.7920 -0.3284
   66SAPC  H14A 5414   4.980   1.374   6.272 -1.7157  0.2504  0.1689
   66SAPC  H14B 5415   4.980   1.272   6.124  0.2583 -1.4452 -0.0797
   66SAPC  H14C 5416   4.840   1.350   6.171  1.4261 -0.2096 -2.3586
   66SAPC   C15 5417   5.026   1.096   6.303 -1.0675  0.7889 -0.8441
   66SAPC  H15A 5418   5.024   1.011   6.371  0.2538 -0.6962 -2.5652
   66SAPC  H15B 5419   5.063   1.058   6.209 -0.8084 -1.4313  0.0907
   66SAPC  H15C 5420   5.107   1.157   6.342  1.1764 -0.9087 -2.5696
   66SAPC   C11 5421   4.929   1.322   6.503 -0.4802 -0.1438 -0.1677
   66SAPC  H11A 5422   5.036   1.292   6.496 -0.3544  0.4418 -0.8527
   66SAPC  H11B 5423   4.890   1.317   6.606 -0.6697  1.5955 -0.1293
   66SAPC     P 5424   4.784   1.535   6.450  0.1941 -0.3924 -0.0901
   66SAPC   O13 5425   4.790   1.672   6.403  0.1724  0.1974 -0.0344
   66SAPC   O14 5426   4.687   1.443   6.381  0.3593  0.0021  0.7189
   66SAPC   O12 5427   4.928   1.459   6.454 -0.6396 -0.1070 -0.3198
   66SAPC   O11 5428   4.742   1.544   6.606 -0.6039 -0.0625  0.1621
   66SAPC    C1 5429   4.836   1.603   6.697 -0.4496  0.8945  0.3596
   66SAPC    HA 5430   4.908   1.523   6.724 -0.3915  0.8789  0.1619
   66SAPC    HB 5431   4.888   1.695   6.663  2.4163 -1.0845 -1.0575
   66SAPC    C2 5432   4.762   1.657   6.824  0.2132 -0.3425 -0.2829
   66SAPC    HS 5433   4.837   1.718   6.879  0.6883 -0.3945 -0.8709
   66SAPC   O21 5434   4.696   1.554   6.899 -0.3489  0.3559 -0.4241
   66SAPC   C21 5435   4.772   1.475   6.969  0.5375 -0.3700  0.0650
   66SAPC   O22 5436   4.894   1.479   6.980  0.2071 -0.4110 -0.7680
   66SAPC   C22 5437   4.670   1.371   7.030 -0.5063  0.5070 -0.0650
   66SAPC   H2R 5438   4.710   1.279   6.981  2.1176  1.0689  0.8540
   66SAPC   H2S 5439   4.698   1.358   7.136 -3.2245 -1.2948  0.5470
   66SAPC    C3 5440   4.654   1.761   6.786  0.5592  0.3530 -0.7617
   66SAPC    HX 5441   4.593   1.717   6.705  1.1378  0.7666 -1.4306
   66SAPC    HY 5442   4.702   1.858   6.760 -0.0176  1.0535  0.6649
   66SAPC   O31 5443   4.562   1.802   6.896 -0.0792 -0.0498 -0.1553
   66SAPC   C31 5444   4.446   1.744   6.926  0.2364  0.0864 -0.3478
   66SAPC   O32 5445   4.382   1.669   6.854 -0.2235  0.0591 -0.2201
   66SAPC   C32 5446   4.392   1.810   7.053  0.4206  0.1535 -0.0878
   66SAPC   H2X 5447   4.315   1.738   7.088  0.8832 -0.6783 -0.7727
   66SAPC   H2Y 5448   4.339   1.900   7.014  1.2873  0.3381 -0.8777
   66SAPC   C23 5449   4.519   1.377   7.027 -0.2643 -0.4382  0.7022
   66SAPC   H3R 5450   4.485   1.273   7.008 -0.8942 -0.6022  2.6012
   66SAPC   H3S 5451   4.487   1.440   6.941  0.9975  1.3110  1.4554
   66SAPC   C24 5452   4.448   1.437   7.155 -0.7501  0.1641  0.2050
   66SAPC   H4R 5453   4.340   1.455   7.133 -0.2931  0.2789 -2.0793
   66SAPC   H4S 5454   4.502   1.529   7.186 -0.0179 -0.2846  0.2871
   66SAPC   C25 5455   4.444   1.337   7.271  0.2017 -0.0745 -0.5203
   66SAPC   H5R 5456   4.391   1.243   7.250 -0.1122 -0.3204  1.2737
   66SAPC   C26 5457   4.491   1.350   7.391 -0.1106  0.8593 -0.2706
   66SAPC   H6R 5458   4.466   1.270   7.462 -1.8472  0.4414 -1.3081
   66SAPC   C27 5459   4.557   1.470   7.456  0.0645  0.0328  0.1434
   66SAPC   H7R 5460   4.581   1.548   7.381 -0.2972  0.2146  0.2152
   66SAPC   H7S 5461   4.651   1.448   7.510  0.2542  1.1516  0.2892
   66SAPC   C28 5462   4.448   1.520   7.547 -0.2722 -0.1165  0.3296
   66SAPC   H8R 5463   4.368   1.576   7.496  0.6988  1.9951  1.0351
   66SAPC   C29 5464   4.443   1.494   7.679 -0.0949 -0.4385  0.2146
   66SAPC   H9R 5465   4.364   1.540   7.741 -0.3201  0.5688 -0.7728
   66SAPC  C210 5466   4.540   1.415   7.764 -0.0533  0.0973 -0.3523
   66SAPC  H10R 5467   4.555   1.488   7.847 -0.9536  0.6790 -0.6942
   66SAPC  H10S 5468   4.640   1.402   7.716  0.0081 -0.1260 -0.1693
   66SAPC  C211 5469   4.496   1.271   7.799 -0.3568  0.1148 -0.5621
   66SAPC  H11R 5470   4.415   1.227   7.738 -0.0826  2.9931 -3.2444
   66SAPC  C212 5471   4.533   1.210   7.915  0.8467  0.6054 -0.1138
   66SAPC  H12R 5472   4.492   1.110   7.935 -0.4857  1.2577  0.6175
   66SAPC  C213 5473   4.637   1.251   8.015 -0.3252 -0.7318  0.1425
   66SAPC  H13R 5474   4.607   1.218   8.117  0.6437  0.3869  0.8068
   66SAPC  H13S 5475   4.625   1.361   8.016 -0.3620 -0.7193  1.6633
   66SAPC  C214 5476   4.787   1.222   7.983  0.4300  0.6849  0.4795
   66SAPC  H14R 5477   4.803   1.218   7.874 -1.0731  0.7850  0.2349
   66SAPC  C215 5478   4.874   1.183   8.075  0.3780  0.6902  0.0924
   66SAPC  H15R 5479   4.977   1.173   8.039  0.7838  1.3843  1.0390
   66SAPC  C216 5480   4.855   1.160   8.223  0.8313  0.5534 -0.2901
   66SAPC  H16R 5481   4.750   1.150   8.257  1.3984 -0.0647  1.3714
   66SAPC  H16S 5482   4.891   1.238   8.292  1.2059  0.5027 -0.4238
   66SAPC  C217 5483   4.929   1.028   8.245  0.4960 -0.6832  0.0644
   66SAPC  H17R 5484   4.955   1.031   8.353 -0.7384 -2.2263  0.4405
   66SAPC  H17S 5485   5.030   1.022   8.201  0.4865 -1.1394  0.1050
   66SAPC  C218 5486   4.851   0.909   8.217 -0.0655 -0.0382 -0.7456
   66SAPC  H18R 5487   4.822   0.904   8.110  1.5976 -1.2488 -1.1698
   66SAPC  H18S 5488   4.763   0.915   8.285  0.1182 -1.4518 -0.3652
   66SAPC  C219 5489   4.936   0.781   8.247 -0.0747 -0.0783 -0.8484
   66SAPC  H19R 5490   4.959   0.775   8.356 -1.1025  0.1704 -0.6060
   66SAPC  H19S 5491   5.040   0.800   8.214  0.4015  1.5205  1.3506
   66SAPC  C220 5492   4.883   0.647   8.188  0.4599  0.4715 -0.1694
   66SAPC  H20R 5493   4.954   0.567   8.218 -0.0773  0.6150  1.5824
   66SAPC  H20S 5494   4.885   0.648   8.077 -1.4629  0.2230 -0.2314
   66SAPC  H20T 5495   4.780   0.624   8.222  0.1016  0.2337 -1.3546
   66SAPC   C33 5496   4.488   1.850   7.169 -0.6968  0.8691 -0.1772
   66SAPC   H3X 5497   4.537   1.947   7.146 -1.2760  1.4866  1.0715
   66SAPC   H3Y 5498   4.566   1.773   7.187  0.9052  2.4077 -0.2929
   66SAPC   C34 5499   4.410   1.867   7.305  0.0793 -0.0978  0.5190
   66SAPC   H4X 5500   4.377   1.763   7.324  1.4276 -1.4212 -3.3522
   66SAPC   H4Y 5501   4.321   1.935   7.308  0.6344  0.6612  0.1907
   66SAPC   C35 5502   4.511   1.912   7.418 -0.1790 -0.0995  0.6906
   66SAPC   H5X 5503   4.542   2.015   7.391  0.8791 -0.9629 -1.7024
   66SAPC   H5Y 5504   4.609   1.860   7.413 -1.0192 -1.6358 -1.0480
   66SAPC   C36 5505   4.460   1.905   7.560 -1.2022  1.0040 -0.7155
   66SAPC   H6X 5506   4.443   1.798   7.584 -3.1138  1.5899  0.8434
   66SAPC   H6Y 5507   4.357   1.944   7.575 -1.5081  0.2752 -0.8992
   66SAPC   C37 5508   4.559   1.958   7.671  0.0153 -1.1133  0.6844
   66SAPC   H7X 5509   4.591   2.061   7.646 -1.3675 -0.4421  1.5558
   66SAPC   H7Y 5510   4.652   1.897   7.674 -0.7235 -2.3097  0.3723
   66SAPC   C38 5511   4.495   1.964   7.807  0.2056  0.4379  0.4057
   66SAPC   H8X 5512   4.410   2.034   7.799 -0.5905 -0.4482  0.8522
   66SAPC   H8Y 5513   4.564   2.008   7.881 -1.5022  2.9904  0.5866
   66SAPC   C39 5514   4.460   1.825   7.858 -0.5782 -0.5148 -0.2255
   66SAPC   H9X 5515   4.552   1.764   7.843 -1.7625 -1.7461 -3.6833
   66SAPC   H9Y 5516   4.386   1.777   7.790  0.3402 -0.7874 -1.0606
   66SAPC  C310 5517   4.429   1.821   8.006  0.8297  0.2442  0.1134
   66SAPC  H10X 5518   4.333   1.876   8.017  1.5809  1.7250 -0.4880
   66SAPC  H10Y 5519   4.502   1.877   8.069  0.5840  1.2289 -0.4694
   66SAPC  C311 5520   4.436   1.677   8.061 -0.5049 -0.2311 -0.0160
   66SAPC  H11X 5521   4.543   1.647   8.058  0.4748  2.9145 -3.0349
   66SAPC  H11Y 5522   4.385   1.589   8.016 -0.8705  0.1422 -0.3260
   66SAPC  C312 5523   4.393   1.678   8.208 -0.4310 -0.6151 -0.2713
   66SAPC  H12X 5524   4.423   1.772   8.259 -1.1794 -0.9139  0.7747
   66SAPC  H12Y 5525   4.439   1.593   8.263  0.9489  0.2170 -0.0932
   66SAPC  C313 5526   4.246   1.670   8.221  1.1754 -0.1115 -0.0707
   66SAPC  H13X 5527   4.215   1.592   8.149  3.1635 -0.2727 -0.7966
   66SAPC  H13Y 5528   4.197   1.756   8.170 -0.4208 -0.4715  0.8025
   66SAPC  C314 5529   4.171   1.648   8.352  0.1695  1.2671  0.8034
   66SAPC  H14X 5530   4.216   1.555   8.393 -0.7679 -0.7160 -2.3839
   66SAPC  H14Y 5531   4.066   1.622   8.328  1.3950 -0.6876 -3.3078
   66SAPC  C315 5532   4.192   1.759   8.449  0.8696 -0.6225 -0.1812
   66SAPC  H15X 5533   4.232   1.852   8.403 -1.1705  0.5180  0.2442
   66SAPC  H15Y 5534   4.273   1.722   8.516  1.6955  1.0322 -0.2105
   66SAPC  C316 5535   4.071   1.788   8.537 -0.5201 -0.6123 -0.1199
   66SAPC  H16X 5536   3.980   1.773   8.475 -0.6168  0.0330 -0.1483
   66SAPC  H16Y 5537   4.064   1.889   8.582 -0.1912 -1.0339  0.8937
   66SAPC  C317 5538   4.062   1.680   8.650 -1.0109 -0.0864 -0.4641
   66SAPC  H17X 5539   4.130   1.596   8.623  1.8814  1.7468  0.6309
   66SAPC  H17Y 5540   3.957   1.644   8.662 -1.5994  1.1776 -1.6515
   66SAPC  C318 5541   4.107   1.746   8.781  0.1073 -0.8518  0.0627
   66SAPC  H18X 5542   4.207   1.793   8.774 -1.1722  1.8549 -2.4741
   66SAPC  H18Y 5543   4.098   1.683   8.871 -0.0688  1.4825  1.7800
   66SAPC  H18Z 5544   4.034   1.827   8.805  1.0034  0.2655 -0.8441
   67SAPC     N 5545   0.748   2.798   6.054 -0.4675  0.2216 -0.3013
   67SAPC   C12 5546   0.697   2.696   6.159 -0.0586 -0.1573  0.3115
   67SAPC  H12A 5547   0.732   2.728   6.256  0.4492 -1.0604  0.4350
   67SAPC  H12B 5548   0.760   2.610   6.142 -0.2994 -0.5542  1.3543
   67SAPC   C13 5549   0.696   2.938   6.093  0.3198  0.9614  0.5388
   67SAPC  H13A 5550   0.696   2.962   6.198 -0.1773  2.8709  0.1497
   67SAPC  H13B 5551   0.763   3.003   6.038  1.4726 -1.2462 -0.8123
   67SAPC  H13C 5552   0.599   2.935   6.047  1.1921 -1.8195 -1.3693
   67SAPC   C14 5553   0.899   2.809   6.060  0.1854 -0.3594  0.1013
   67SAPC  H14A 5554   0.931   2.889   5.994  5.1577 -2.0723 -0.0006
   67SAPC  H14B 5555   0.926   2.831   6.162  0.6178 -1.2919  0.1940
   67SAPC  H14C 5556   0.946   2.725   6.011  0.5920  0.4266 -0.9018
   67SAPC   C15 5557   0.702   2.762   5.917  0.0449  0.0044  0.5345
   67SAPC  H15A 5558   0.720   2.660   5.887 -0.2971  0.8179 -2.9017
   67SAPC  H15B 5559   0.594   2.776   5.912  0.1596  0.5309 -2.9694
   67SAPC  H15C 5560   0.733   2.822   5.833  0.4973 -1.7132 -0.5678
   67SAPC   C11 5561   0.550   2.663   6.167 -1.0899 -0.8031  0.5972
   67SAPC  H11A 5562   0.529   2.587   6.089 -0.2998  1.0705 -1.5255
   67SAPC  H11B 5563   0.491   2.756   6.149  1.1726  0.1578 -2.6883
   67SAPC     P 5564   0.476   2.675   6.409  0.3166 -0.3443 -0.1032
   67SAPC   O13 5565   0.554   2.802   6.412 -0.0008 -0.4881 -0.2115
   67SAPC   O14 5566   0.332   2.690   6.383  0.0328  0.4124 -0.0843
   67SAPC   O12 5567   0.532   2.600   6.287 -0.1749  0.6873  0.5844
   67SAPC   O11 5568   0.501   2.587   6.538 -0.0679 -0.1497 -0.1120
   67SAPC    C1 5569   0.575   2.636   6.654 -0.1472 -0.1276  0.4895
   67SAPC    HA 5570   0.674   2.585   6.657 -0.3359 -0.4508  1.7135
   67SAPC    HB 5571   0.599   2.745   6.649  2.2531 -0.6392 -1.4562
   67SAPC    C2 5572   0.497   2.609   6.784 -0.5820  0.2192 -0.3723
   67SAPC    HS 5573   0.548   2.645   6.876 -2.4201 -1.6792  1.4898
   67SAPC   O21 5574   0.465   2.466   6.786 -0.0176 -0.8290 -0.0228
   67SAPC   C21 5575   0.577   2.391   6.831  1.0562  0.2344 -0.0905
   67SAPC   O22 5576   0.687   2.431   6.853 -0.1183 -0.3505  0.6093
   67SAPC   C22 5577   0.527   2.249   6.858 -1.2479  0.8140 -0.5134
   67SAPC   H2R 5578   0.450   2.256   6.938  0.4524  0.7873  1.2109
   67SAPC   H2S 5579   0.483   2.200   6.768  0.5830 -2.3220  0.1395
   67SAPC    C3 5580   0.355   2.692   6.779  0.3122 -0.3086 -0.5800
   67SAPC    HX 5581   0.296   2.649   6.696  1.7395 -0.6065 -1.4674
   67SAPC    HY 5582   0.386   2.796   6.755 -1.2264  1.0656  2.7394
   67SAPC   O31 5583   0.285   2.702   6.903 -0.0783 -0.4655 -0.5047
   67SAPC   C31 5584   0.203   2.601   6.929 -0.4394  0.5144 -0.4057
   67SAPC   O32 5585   0.186   2.501   6.863 -0.1648  0.1826  0.3194
   67SAPC   C32 5586   0.148   2.621   7.071  0.1740 -0.5574 -0.7013
   67SAPC   H2X 5587   0.043   2.637   7.038 -0.0301 -2.5834 -1.2085
   67SAPC   H2Y 5588   0.185   2.716   7.114  0.8782 -1.1497  0.0504
   67SAPC   C23 5589   0.632   2.153   6.919  0.2713 -0.1582  0.4731
   67SAPC   H3R 5590   0.733   2.159   6.874 -0.5185  0.2926 -1.3309
   67SAPC   H3S 5591   0.586   2.054   6.902  0.6159 -0.4656  1.3029
   67SAPC   C24 5592   0.638   2.176   7.069  0.0843  0.1683 -0.1688
   67SAPC   H4R 5593   0.533   2.184   7.105 -0.3352  2.7074 -1.7190
   67SAPC   H4S 5594   0.684   2.277   7.071 -0.5796  0.4716  0.0309
   67SAPC   C25 5595   0.710   2.082   7.156 -0.1576  0.6764 -0.0107
   67SAPC   H5R 5596   0.687   1.975   7.145  1.0864  0.3903 -0.0264
   67SAPC   C26 5597   0.790   2.121   7.256 -0.2275  0.1522  0.0029
   67SAPC   H6R 5598   0.851   2.046   7.307 -0.7400 -0.1211  0.2138
   67SAPC   C27 5599   0.819   2.261   7.299 -0.4514 -0.3568  0.6398
   67SAPC   H7R 5600   0.813   2.275   7.409 -0.8335  1.3163  0.4361
   67SAPC   H7S 5601   0.728   2.321   7.277 -1.7255 -2.3540  0.2549
   67SAPC   C28 5602   0.945   2.321   7.249 -1.0729  0.0671  0.5913
   67SAPC   H8R 5603   1.012   2.251   7.197 -1.6928 -1.3304  1.6057
   67SAPC   C29 5604   0.986   2.448   7.257  0.1463  0.1402 -0.2731
   67SAPC   H9R 5605   1.080   2.471   7.206 -0.6037 -0.2204 -1.8775
   67SAPC  C210 5606   0.919   2.568   7.326 -0.0239  0.0339 -0.0916
   67SAPC  H10R 5607   0.834   2.535   7.390  0.4206  0.0011  0.4901
   67SAPC  H10S 5608   0.882   2.631   7.242  1.4218  0.9541 -0.0668
   67SAPC  C211 5609   1.015   2.650   7.401  0.1169 -0.5189  0.3667
   67SAPC  H11R 5610   1.071   2.721   7.339  0.5701  0.3569  1.7319
   67SAPC  C212 5611   1.038   2.644   7.535  0.6232 -0.2360  0.7245
   67SAPC  H12R 5612   1.111   2.720   7.567 -1.0258  2.3834 -1.3413
   67SAPC  C213 5613   0.978   2.536   7.623 -0.5362  0.2995 -1.3079
   67SAPC  H13R 5614   0.976   2.439   7.568  0.1449 -0.2979 -0.3093
   67SAPC  H13S 5615   0.875   2.566   7.651 -0.9768 -2.1660 -0.0156
   67SAPC  C214 5616   1.053   2.515   7.759 -0.0924  0.0470  0.4036
   67SAPC  H14R 5617   1.158   2.542   7.745 -0.3501  0.6502 -0.4437
   67SAPC  C215 5618   1.009   2.465   7.870  0.6044  0.2023 -0.4712
   67SAPC  H15R 5619   1.073   2.438   7.955  1.5938  0.5609 -1.0789
   67SAPC  C216 5620   0.859   2.428   7.882 -0.1393 -0.2145 -0.6621
   67SAPC  H16R 5621   0.805   2.430   7.785 -0.5688 -0.8544 -0.4415
   67SAPC  H16S 5622   0.813   2.500   7.954  0.4726  0.7546 -1.2142
   67SAPC  C217 5623   0.841   2.283   7.941 -0.0311 -0.1605 -0.3584
   67SAPC  H17R 5624   0.904   2.216   7.879  1.5836  1.8631 -0.9859
   67SAPC  H17S 5625   0.733   2.259   7.928 -0.2180  1.0089 -1.1325
   67SAPC  C218 5626   0.882   2.277   8.092  0.0360 -0.7116  0.0945
   67SAPC  H18R 5627   0.849   2.373   8.136  2.2755 -0.3764  1.2487
   67SAPC  H18S 5628   0.993   2.281   8.100  0.3501  0.0021 -3.2674
   67SAPC  C219 5629   0.822   2.157   8.177  0.0145  0.4593 -0.3427
   67SAPC  H19R 5630   0.711   2.161   8.172 -0.4543 -5.3078 -1.5591
   67SAPC  H19S 5631   0.857   2.171   8.281  0.2488 -0.2137 -0.3257
   67SAPC  C220 5632   0.861   2.016   8.122  0.0584 -0.1611  0.1393
   67SAPC  H20R 5633   0.832   2.014   8.015  0.4227  1.8414 -0.0378
   67SAPC  H20S 5634   0.815   1.928   8.171 -0.9029  1.6155  2.6692
   67SAPC  H20T 5635   0.971   2.004   8.127  0.1612 -0.2798 -1.8335
   67SAPC   C33 5636   0.150   2.495   7.166 -0.0517 -0.0019 -0.8708
   67SAPC   H3X 5637   0.094   2.410   7.122 -1.5324 -0.4847  1.7629
   67SAPC   H3Y 5638   0.092   2.526   7.255 -0.5590 -1.8778 -0.5100
   67SAPC   C34 5639   0.293   2.441   7.195  0.5669  0.5451  0.0780
   67SAPC   H4X 5640   0.359   2.450   7.106 -2.4694 -3.4737 -3.0035
   67SAPC   H4Y 5641   0.275   2.332   7.210  0.7170  0.3303 -1.1586
   67SAPC   C35 5642   0.369   2.518   7.308  0.7636 -0.5569 -0.6391
   67SAPC   H5X 5643   0.290   2.514   7.386 -1.4901 -1.7949 -2.8506
   67SAPC   H5Y 5644   0.403   2.622   7.291  1.4997 -0.7357 -0.3143
   67SAPC   C36 5645   0.483   2.436   7.370  0.1495 -0.4225  0.7664
   67SAPC   H6X 5646   0.539   2.515   7.425 -1.1426  1.1508 -0.0799
   67SAPC   H6Y 5647   0.537   2.401   7.280 -1.6529 -2.1776  0.2963
   67SAPC   C37 5648   0.454   2.315   7.454  0.2067  0.8659  0.1408
   67SAPC   H7X 5649   0.553   2.268   7.469  0.8488  1.2946 -2.2950
   67SAPC   H7Y 5650   0.419   2.239   7.381 -1.0559  2.2626 -0.7632
   67SAPC   C38 5651   0.359   2.328   7.571  0.1320  0.6317  0.7685
   67SAPC   H8X 5652   0.259   2.303   7.531  1.3835 -1.6533 -1.2303
   67SAPC   H8Y 5653   0.359   2.431   7.611 -0.6035  0.7099  0.5742
   67SAPC   C39 5654   0.393   2.235   7.688  0.7182  0.3521  0.0460
   67SAPC   H9X 5655   0.483   2.276   7.739  0.5312  1.9447 -0.8550
   67SAPC   H9Y 5656   0.407   2.128   7.658  3.8222  0.1277  1.7646
   67SAPC  C310 5657   0.281   2.233   7.790 -0.3140 -0.2215 -0.2839
   67SAPC  H10X 5658   0.188   2.221   7.731  0.6075  1.3307 -2.2088
   67SAPC  H10Y 5659   0.282   2.334   7.836  1.8245  1.3263 -3.3266
   67SAPC  C311 5660   0.293   2.120   7.895  0.2730 -0.0005 -0.2282
   67SAPC  H11X 5661   0.312   2.022   7.847  2.4855 -0.3997  1.2839
   67SAPC  H11Y 5662   0.192   2.105   7.938  1.3704 -2.5535  1.7522
   67SAPC  C312 5663   0.387   2.149   8.009  0.3093  0.0385  0.3690
   67SAPC  H12X 5664   0.367   2.246   8.060 -0.1026 -0.6392  1.5495
   67SAPC  H12Y 5665   0.491   2.156   7.973  1.0761  0.3126  2.4858
   67SAPC  C313 5666   0.387   2.038   8.117  0.4200  0.8055 -0.2361
   67SAPC  H13X 5667   0.285   1.997   8.137  0.4287  0.8984  0.0106
   67SAPC  H13Y 5668   0.421   2.086   8.211 -0.6114  0.8619  0.1276
   67SAPC  C314 5669   0.476   1.925   8.070 -0.5791  0.1760  0.5322
   67SAPC  H14X 5670   0.573   1.972   8.043 -0.1495 -1.3319 -0.6965
   67SAPC  H14Y 5671   0.442   1.887   7.971  0.6512  0.2785  0.0458
   67SAPC  C315 5672   0.487   1.803   8.159  0.7187 -0.4651 -1.1338
   67SAPC  H15X 5673   0.484   1.836   8.265 -1.3014  0.7294 -1.5214
   67SAPC  H15Y 5674   0.588   1.760   8.142  0.7987 -0.3248 -1.0179
   67SAPC  C316 5675   0.371   1.709   8.140 -0.3734  0.3173 -0.1545
   67SAPC  H16X 5676   0.361   1.686   8.031  1.7030 -2.5272  0.1290
   67SAPC  H16Y 5677   0.276   1.739   8.189 -0.0293 -0.4672  1.0480
   67SAPC  C317 5678   0.393   1.571   8.214  0.1512 -0.4513  0.1492
   67SAPC  H17X 5679   0.499   1.579   8.248 -0.3057  0.2400  1.5342
   67SAPC  H17Y 5680   0.393   1.493   8.136 -1.8389  1.7313 -2.2138
   67SAPC  C318 5681   0.304   1.538   8.332  0.3290 -0.3233 -0.0191
   67SAPC  H18X 5682   0.355   1.461   8.393  0.1038  0.2541  0.9222
   67SAPC  H18Y 5683   0.205   1.507   8.291  1.2894 -2.5586 -0.7912
   67SAPC  H18Z 5684   0.303   1.627   8.399 -0.1025  2.4093 -3.3358
   68SAPC     N 5685   6.206   2.227   6.053  0.5225 -0.3560  0.4042
   68SAPC   C12 5686   6.200   2.077   6.086  0.2265  0.8817  0.1071
   68SAPC  H12A 5687   6.201   2.068   6.193 -2.2786  1.1957  0.2271
   68SAPC  H12B 5688   6.292   2.037   6.048  0.2681  1.3479 -0.2911
   68SAPC   C13 5689   6.094   2.315   6.105  0.2071  0.1157 -0.1468
   68SAPC  H13A 5690   6.095   2.304   6.212  1.2768  0.4445 -0.1147
   68SAPC  H13B 5691   6.115   2.418   6.080  1.3611 -0.3866 -1.3865
   68SAPC  H13C 5692   6.001   2.279   6.062  0.5849 -1.5148  0.3282
   68SAPC   C14 5693   6.344   2.273   6.103 -0.6899 -0.0569  0.0221
   68SAPC  H14A 5694   6.355   2.380   6.089  1.3933  0.2309  2.9132
   68SAPC  H14B 5695   6.368   2.255   6.207  0.6876 -0.5038 -0.3548
   68SAPC  H14C 5696   6.412   2.222   6.036 -1.0569 -0.0464 -0.3560
   68SAPC   C15 5697   6.213   2.241   5.896  0.1570 -0.5409  0.2705
   68SAPC  H15A 5698   6.281   2.173   5.847 -0.8676  0.3732 -2.6278
   68SAPC  H15B 5699   6.120   2.215   5.848  0.2261  0.4983 -0.4465
   68SAPC  H15C 5700   6.239   2.344   5.877 -0.9444 -0.3129 -0.0427
   68SAPC   C11 5701   6.085   1.986   6.038  0.2121 -0.3395 -0.3710
   68SAPC  H11A 5702   6.096   1.879   6.066  0.1055  0.0379  1.1932
   68SAPC  H11B 5703   6.081   1.990   5.927  2.5445 -0.2607 -0.5011
   68SAPC     P 5704   5.916   1.999   6.240 -0.1476 -0.1958  0.4679
   68SAPC   O13 5705   5.798   2.087   6.269 -0.0794 -0.3650  0.0896
   68SAPC   O14 5706   5.887   1.852   6.248  0.3913  0.5428 -0.3635
   68SAPC   O12 5707   5.964   2.032   6.090 -0.2979 -0.1031  0.3746
   68SAPC   O11 5708   6.037   2.022   6.341  0.4308 -0.2618  0.5302
   68SAPC    C1 5709   6.061   2.138   6.421 -0.1303  0.1881 -0.7454
   68SAPC    HA 5710   6.169   2.164   6.430  0.2882 -1.9194  0.9775
   68SAPC    HB 5711   6.013   2.226   6.372 -0.3068 -0.8595 -2.5303
   68SAPC    C2 5712   6.019   2.127   6.570  0.6445  0.1707 -0.1383
   68SAPC    HS 5713   6.041   2.029   6.619 -1.0200 -1.6978 -2.7984
   68SAPC   O21 5714   5.877   2.152   6.577 -0.0258  0.0998 -0.5508
   68SAPC   C21 5715   5.788   2.052   6.575 -0.3125 -0.5103 -0.1476
   68SAPC   O22 5716   5.807   1.932   6.569  0.2746 -0.0810 -0.1954
   68SAPC   C22 5717   5.651   2.120   6.587 -0.2589 -0.3590  0.1176
   68SAPC   H2R 5718   5.663   2.182   6.678  1.2027 -0.8752  0.3133
   68SAPC   H2S 5719   5.643   2.176   6.492  0.9723  0.9525  0.7508
   68SAPC    C3 5720   6.081   2.238   6.671 -0.1703 -0.4370  0.2479
   68SAPC    HX 5721   6.044   2.334   6.628  1.1004 -0.6973 -1.5649
   68SAPC    HY 5722   6.189   2.229   6.647 -0.6647 -0.4115 -2.3813
   68SAPC   O31 5723   6.054   2.196   6.805  0.3551 -0.1521  0.1916
   68SAPC   C31 5724   5.982   2.293   6.873 -0.2987  0.0570 -0.5577
   68SAPC   O32 5725   5.943   2.399   6.832  0.1266  0.8872 -0.1597
   68SAPC   C32 5726   5.951   2.245   7.023  0.2995 -0.4560  0.6052
   68SAPC   H2X 5727   6.044   2.199   7.064 -0.3149  0.5668  3.4223
   68SAPC   H2Y 5728   5.869   2.171   7.018 -1.1129  1.1369 -1.5354
   68SAPC   C23 5729   5.537   2.014   6.588 -0.0473  0.0078  0.6621
   68SAPC   H3R 5730   5.534   1.955   6.681 -0.4207  0.2790  0.8270
   68SAPC   H3S 5731   5.559   1.951   6.499  2.6864  1.1485  0.4025
   68SAPC   C24 5732   5.404   2.081   6.590 -0.5929 -0.0933 -0.6028
   68SAPC   H4R 5733   5.406   2.157   6.509 -4.6554 -0.4364 -1.2120
   68SAPC   H4S 5734   5.398   2.138   6.686  0.2174 -1.7083  0.4681
   68SAPC   C25 5735   5.287   1.988   6.569  0.0842 -0.2950  0.0476
   68SAPC   H5R 5736   5.274   1.944   6.469  0.6105 -0.5151  0.0751
   68SAPC   C26 5737   5.196   1.947   6.658 -0.1261  0.2592 -0.7219
   68SAPC   H6R 5738   5.122   1.870   6.630 -1.4893  1.3339 -0.1314
   68SAPC   C27 5739   5.195   1.984   6.804 -0.7313 -0.4733 -0.0812
   68SAPC   H7R 5740   5.301   1.972   6.836 -0.3510  1.3336 -0.5293
   68SAPC   H7S 5741   5.136   1.908   6.860 -1.4016 -0.4067 -0.6841
   68SAPC   C28 5742   5.147   2.124   6.832 -0.3685  0.9435 -0.8512
   68SAPC   H8R 5743   5.178   2.204   6.763  2.7363 -0.7512 -1.6443
   68SAPC   C29 5744   5.071   2.154   6.940 -0.3836 -0.4729 -1.1961
   68SAPC   H9R 5745   5.038   2.259   6.951  2.4880  0.3163  1.6491
   68SAPC  C210 5746   5.024   2.068   7.055 -0.0634  0.2299  0.0511
   68SAPC  H10R 5747   5.001   2.131   7.143  1.4700  1.0510 -0.1005
   68SAPC  H10S 5748   5.104   1.997   7.084  1.4403  2.2441  1.0807
   68SAPC  C211 5749   4.895   1.998   7.018  0.5130  0.4480  0.5633
   68SAPC  H11R 5750   4.866   2.019   6.914 -0.3955 -2.1557  0.2404
   68SAPC  C212 5751   4.826   1.908   7.094 -0.5924 -0.6510 -0.4786
   68SAPC  H12R 5752   4.727   1.876   7.057 -2.0950  3.3166 -0.4409
   68SAPC  C213 5753   4.865   1.880   7.237 -0.5333  0.2541  0.1308
   68SAPC  H13R 5754   4.802   1.920   7.319 -0.4992 -0.5570  0.5653
   68SAPC  H13S 5755   4.965   1.922   7.260  0.0201 -0.6540 -0.5207
   68SAPC  C214 5756   4.877   1.730   7.249  0.5291  0.4460 -0.5646
   68SAPC  H14R 5757   4.911   1.670   7.163  1.7476 -0.5527  0.5595
   68SAPC  C215 5758   4.854   1.649   7.352  0.6829 -0.6623 -0.2983
   68SAPC  H15R 5759   4.872   1.541   7.349  0.9443 -0.6858  1.4900
   68SAPC  C216 5760   4.823   1.701   7.493 -0.5812 -0.0952  0.8586
   68SAPC  H16R 5761   4.714   1.704   7.515 -1.5308  0.5560 -3.0687
   68SAPC  H16S 5762   4.864   1.804   7.504 -1.2796 -0.0617  3.8664
   68SAPC  C217 5763   4.893   1.618   7.606  0.5636  0.6752  0.5155
   68SAPC  H17R 5764   5.003   1.611   7.590  0.5766  0.4862  0.6850
   68SAPC  H17S 5765   4.854   1.515   7.599  0.9484  0.6294 -1.5978
   68SAPC  C218 5766   4.858   1.684   7.740 -0.2631 -0.7664 -0.0268
   68SAPC  H18R 5767   4.751   1.692   7.767 -0.0298 -3.5433  2.2291
   68SAPC  H18S 5768   4.905   1.785   7.741  0.0493 -0.8777 -1.3846
   68SAPC  C219 5769   4.907   1.595   7.852 -0.5942  0.2401  0.0792
   68SAPC  H19R 5770   5.010   1.554   7.841 -0.3696 -0.0659  2.6335
   68SAPC  H19S 5771   4.849   1.501   7.846  0.5163 -0.4334 -0.5057
   68SAPC  C220 5772   4.876   1.653   7.990 -0.4341  0.3312 -0.1744
   68SAPC  H20R 5773   4.920   1.755   7.992  2.1632 -0.6164 -2.2425
   68SAPC  H20S 5774   4.911   1.597   8.079  0.4713  2.7999  1.1190
   68SAPC  H20T 5775   4.766   1.663   8.003 -0.3081  2.8997 -0.4421
   68SAPC   C33 5776   5.899   2.369   7.115  0.1686  1.1121  1.0410
   68SAPC   H3X 5777   5.800   2.411   7.086  1.5903  2.2164 -2.7959
   68SAPC   H3Y 5778   5.967   2.456   7.108  2.0954 -0.4038 -0.4202
   68SAPC   C34 5779   5.894   2.316   7.265 -0.1412  0.6768  0.2531
   68SAPC   H4X 5780   5.830   2.225   7.277 -1.0327  1.5536  2.8853
   68SAPC   H4Y 5781   5.847   2.392   7.331 -1.5823  0.3475 -0.3544
   68SAPC   C35 5782   6.025   2.276   7.325 -0.0701 -0.3518  0.1398
   68SAPC   H5X 5783   6.101   2.345   7.283 -1.4971  0.2859 -1.5403
   68SAPC   H5Y 5784   6.051   2.171   7.297 -1.0998 -0.4161 -0.6392
   68SAPC   C36 5785   6.016   2.281   7.483  0.0753  0.0694  0.8134
   68SAPC   H6X 5786   5.923   2.233   7.521  0.9600 -0.9688  1.7401
   68SAPC   H6Y 5787   6.008   2.387   7.516 -0.5863  0.6638 -1.0981
   68SAPC   C37 5788   6.132   2.212   7.554  0.1213  0.0890 -0.2744
   68SAPC   H7X 5789   6.221   2.230   7.490 -0.5595 -1.5069 -1.7609
   68SAPC   H7Y 5790   6.112   2.103   7.545  1.3866 -0.1056 -1.0515
   68SAPC   C38 5791   6.154   2.253   7.699 -0.0926  0.3000 -0.6764
   68SAPC   H8X 5792   6.140   2.363   7.706 -0.8839  0.1423  0.7560
   68SAPC   H8Y 5793   6.260   2.225   7.719 -0.2919 -0.5962 -0.8445
   68SAPC   C39 5794   6.047   2.191   7.796 -0.1457  0.2855 -0.4815
   68SAPC   H9X 5795   6.056   2.080   7.799  0.9438  0.3889  1.6985
   68SAPC   H9Y 5796   5.946   2.217   7.757 -0.4193  0.1051  0.0941
   68SAPC  C310 5797   6.057   2.252   7.939  0.0360  0.5640  0.3258
   68SAPC  H10X 5798   6.056   2.363   7.935  0.3027  0.5366 -0.7832
   68SAPC  H10Y 5799   6.158   2.232   7.981 -0.3682 -1.5625  0.3960
   68SAPC  C311 5800   5.950   2.203   8.045  0.2398  0.0895  0.2886
   68SAPC  H11X 5801   5.968   2.094   8.062  1.2371  0.2810  0.5580
   68SAPC  H11Y 5802   5.849   2.218   8.003 -0.3349 -1.4758  1.0133
   68SAPC  C312 5803   5.957   2.271   8.184 -0.2277 -0.3787 -0.1665
   68SAPC  H12X 5804   5.894   2.220   8.260  0.5829 -0.7121  0.3062
   68SAPC  H12Y 5805   5.912   2.371   8.165 -0.0214  0.3441  2.5883
   68SAPC  C313 5806   6.098   2.269   8.251 -0.0047  0.5221  0.5962
   68SAPC  H13X 5807   6.161   2.338   8.192 -0.4716  1.2929  0.9863
   68SAPC  H13Y 5808   6.139   2.165   8.247 -0.9218  0.1382 -3.3851
   68SAPC  C314 5809   6.093   2.332   8.389 -0.0299 -0.3469 -0.6678
   68SAPC  H14X 5810   5.999   2.306   8.442 -0.4280  2.0744 -0.0700
   68SAPC  H14Y 5811   6.093   2.441   8.368 -1.5464 -0.3143 -0.5819
   68SAPC  C315 5812   6.224   2.312   8.470  0.3949 -0.1483  1.2963
   68SAPC  H15X 5813   6.306   2.376   8.431 -0.6445  1.0980  1.0944
   68SAPC  H15Y 5814   6.247   2.203   8.477 -0.2487 -0.2100  2.7861
   68SAPC  C316 5815   6.195   2.350   8.613  0.0524 -0.5066 -0.0307
   68SAPC  H16X 5816   6.086   2.337   8.632 -0.8750 -0.6628 -4.4855
   68SAPC  H16Y 5817   6.211   2.458   8.632 -0.7578 -0.0238 -1.9217
   68SAPC  C317 5818   6.263   2.255   8.703 -0.2432  0.5047 -0.0310
   68SAPC  H17X 5819   6.371   2.277   8.686 -0.6127  2.2953 -0.3303
   68SAPC  H17Y 5820   6.251   2.151   8.668  2.3023  0.1175  0.0699
   68SAPC  C318 5821   6.228   2.269   8.850 -0.1046  0.1024  0.3447
   68SAPC  H18X 5822   6.286   2.204   8.920 -0.3125  1.4088  1.7925
   68SAPC  H18Y 5823   6.120   2.249   8.865 -0.1028  0.8020  1.4395
   68SAPC  H18Z 5824   6.249   2.371   8.888  2.1015 -0.4177  0.7036
   69SLPC     N 5825   3.354   5.940  11.099 -0.5889 -0.0496 -0.8237
   69SLPC   C13 5826   3.414   5.881  11.227  0.4539  0.0357 -0.2385
   69SLPC  H13A 5827   3.488   5.949  11.266  0.4757  0.7946 -1.5671
   69SLPC  H13B 5828   3.338   5.869  11.303  1.4963  2.7444  1.3689
   69SLPC  H13C 5829   3.452   5.781  11.211 -1.6234 -0.5882 -1.6968
   69SLPC   C14 5830   3.253   5.846  11.054 -0.1806  0.3128  0.6863
   69SLPC  H14A 5831   3.298   5.750  11.033  0.5988  0.4423  1.7175
   69SLPC  H14B 5832   3.167   5.841  11.120 -0.9146  0.6732 -0.2138
   69SLPC  H14C 5833   3.214   5.888  10.962 -3.3896  1.4914  2.4125
   69SLPC   C15 5834   3.463   5.947  10.995  0.0828 -0.2720  0.1190
   69SLPC  H15A 5835   3.509   5.850  10.981  0.2181  0.1128 -2.5206
   69SLPC  H15B 5836   3.432   5.986  10.899  2.0358 -3.0016 -1.7821
   69SLPC  H15C 5837   3.535   6.023  11.022 -0.5493  0.3915 -0.0393
   69SLPC   C12 5838   3.298   6.074  11.132 -0.0050 -0.1992 -0.1661
   69SLPC  H12A 5839   3.385   6.130  11.165  0.4052 -0.3770 -0.9261
   69SLPC  H12B 5840   3.239   6.067  11.222 -0.7787  0.2481 -0.6264
   69SLPC   C11 5841   3.230   6.160  11.022  0.5239  0.5761 -0.2044
   69SLPC  H11A 5842   3.294   6.152  10.932  0.1496 -1.1609 -0.3560
   69SLPC  H11B 5843   3.224   6.268  11.050 -1.7058  0.4055  0.1976
   69SLPC     P 5844   2.962   6.151  11.048  0.2733 -0.1008  0.0016
   69SLPC   O13 5845   2.860   6.050  11.029  0.0097  0.2719  0.1411
   69SLPC   O14 5846   2.979   6.200  11.193  0.3164 -0.0261  0.0526
   69SLPC   O12 5847   3.103   6.104  10.985 -0.0017  0.7100 -0.3184
   69SLPC   O11 5848   2.928   6.276  10.960  0.4180 -0.2660  0.1461
   69SLPC    C1 5849   2.882   6.252  10.826 -0.1326  0.5230  0.4236
   69SLPC    HA 5850   2.852   6.148  10.798  2.2765  0.2453 -1.5692
   69SLPC    HB 5851   2.788   6.306  10.802 -1.8839 -1.3326  2.5970
   69SLPC    C2 5852   2.997   6.290  10.724  0.0139 -0.7533  0.1075
   69SLPC    HS 5853   3.090   6.234  10.746  2.2229  2.1826 -1.0016
   69SLPC   O21 5854   3.033   6.434  10.735  0.1474  0.6129 -0.1829
   69SLPC   C21 5855   3.157   6.462  10.697  0.3627  0.1696  0.2313
   69SLPC   O22 5856   3.252   6.386  10.683  0.0715 -0.3057 -0.0624
   69SLPC   C22 5857   3.174   6.616  10.700  0.3076 -0.0255 -0.2333
   69SLPC   H2R 5858   3.089   6.662  10.646  0.3868 -0.3684 -0.6575
   69SLPC   H2S 5859   3.172   6.646  10.807 -4.1876 -0.7816  0.0678
   69SLPC    C3 5860   2.954   6.255  10.582 -0.4409 -0.1917 -0.2200
   69SLPC    HX 5861   2.858   6.305  10.556  0.1380  1.5581  0.8969
   69SLPC    HY 5862   2.930   6.146  10.582  1.7205 -0.7102 -0.4962
   69SLPC   O31 5863   3.055   6.283  10.481  0.1473  0.0228  0.6813
   69SLPC   C31 5864   3.098   6.181  10.408  0.4512 -0.0342  0.3786
   69SLPC   O32 5865   3.087   6.064  10.444  0.1630 -0.1496  0.2057
   69SLPC   C32 5866   3.159   6.228  10.283  0.4281 -0.1644  0.1252
   69SLPC   H2X 5867   3.232   6.310  10.300  0.2502  0.0144  0.0309
   69SLPC   H2Y 5868   3.075   6.263  10.219  0.2934 -1.1229 -0.2441
   69SLPC   C23 5869   3.311   6.660  10.642 -0.0128  0.2732 -0.0227
   69SLPC   H3R 5870   3.401   6.602  10.671  1.4714  2.9767  1.1106
   69SLPC   H3S 5871   3.340   6.764  10.667  2.0084 -0.3096  0.2282
   69SLPC   C24 5872   3.301   6.666  10.494  0.4127 -0.1704  0.1266
   69SLPC   H4R 5873   3.225   6.737  10.456  0.6298  1.9073  3.2091
   69SLPC   H4S 5874   3.286   6.571  10.438  3.0102 -0.3861 -0.3632
   69SLPC   C25 5875   3.431   6.704  10.429  0.3086  0.3144  0.0590
   69SLPC   H5R 5876   3.521   6.651  10.465  0.5391  0.1733 -0.7155
   69SLPC   H5S 5877   3.449   6.809  10.460  1.8973  0.4710 -1.2862
   69SLPC   C26 5878   3.431   6.696  10.274 -0.0353 -0.6909 -0.3732
   69SLPC   H6R 5879   3.351   6.762  10.234  0.5925  0.0035 -0.5232
   69SLPC   H6S 5880   3.432   6.591  10.237  1.0730 -1.2235  1.0646
   69SLPC   C27 5881   3.556   6.768  10.219  0.1930  0.1335 -0.3432
   69SLPC   H7R 5882   3.639   6.694  10.221 -1.0512 -1.3399 -0.9415
   69SLPC   H7S 5883   3.578   6.854  10.284  2.0968 -1.2377  0.9267
   69SLPC   C28 5884   3.557   6.802  10.071 -0.6619  0.6498 -0.3210
   69SLPC   H8R 5885   3.452   6.823  10.041 -1.3576  0.8690  2.1158
   69SLPC   H8S 5886   3.573   6.703  10.024 -0.5613  0.8342 -0.6862
   69SLPC   C29 5887   3.655   6.916  10.033 -0.3680  0.0162  0.2405
   69SLPC   H9R 5888   3.714   6.965  10.112  1.4507  0.5205 -1.3651
   69SLPC  C210 5889   3.680   6.964   9.910  0.2563  0.6754  0.2639
   69SLPC  H10R 5890   3.752   7.046   9.899  1.2721 -0.0169  1.5338
   69SLPC  C211 5891   3.615   6.910   9.784  0.0903 -0.0876  0.4253
   69SLPC  H11R 5892   3.550   6.824   9.812  0.1748  0.3377  2.0164
   69SLPC  H11S 5893   3.703   6.883   9.723  0.2689 -0.1072  0.6880
   69SLPC  C212 5894   3.534   7.032   9.730 -0.7482  0.8177 -0.2444
   69SLPC  H12R 5895   3.479   7.091   9.805 -1.2153 -0.3403  0.3512
   69SLPC  C213 5896   3.544   7.078   9.605  0.4681 -0.1242 -0.3867
   69SLPC  H13R 5897   3.486   7.170   9.587  0.7856 -0.0713 -1.1642
   69SLPC  C214 5898   3.633   7.029   9.495  0.5089  0.3884  0.5025
   69SLPC  H14R 5899   3.703   6.946   9.520 -0.0596 -0.7321 -1.4246
   69SLPC  H14S 5900   3.688   7.114   9.451  0.4469 -1.1252 -2.8046
   69SLPC  C215 5901   3.538   6.972   9.385  0.4668 -0.5122  1.0275
   69SLPC  H15R 5902   3.454   7.040   9.364 -0.3600 -1.9333 -0.5831
   69SLPC  H15S 5903   3.484   6.884   9.426  1.4904 -1.6486  0.0301
   69SLPC  C216 5904   3.616   6.922   9.263 -0.2986 -0.1199  0.4156
   69SLPC  H16R 5905   3.674   6.832   9.292  0.8269  0.4546  0.0106
   69SLPC  H16S 5906   3.691   6.997   9.229  0.8308 -1.9731 -1.3866
   69SLPC  C217 5907   3.542   6.894   9.130  0.1425  0.0945 -0.2079
   69SLPC  H17R 5908   3.466   6.973   9.113  0.0530 -0.3486 -2.0883
   69SLPC  H17S 5909   3.470   6.810   9.144 -0.0955  0.6135  2.1708
   69SLPC  C218 5910   3.640   6.865   9.012 -0.4145  0.6186 -0.2509
   69SLPC  H18R 5911   3.575   6.811   8.940 -0.4008  0.7268 -0.3459
   69SLPC  H18S 5912   3.726   6.798   9.033  0.6044  1.7774 -0.6365
   69SLPC  H18T 5913   3.669   6.962   8.967  2.5979 -1.1530 -2.4744
   69SLPC   C33 5914   3.230   6.106  10.213 -0.1423 -0.9508  0.4778
   69SLPC   H3X 5915   3.154   6.057  10.148 -1.6118  3.2010 -1.3027
   69SLPC   H3Y 5916   3.264   6.033  10.289  0.1547  0.7068  2.0009
   69SLPC   C34 5917   3.346   6.150  10.125  0.0974 -0.1538 -0.1078
   69SLPC   H4X 5918   3.409   6.066  10.087  1.0799  0.8169 -0.6935
   69SLPC   H4Y 5919   3.408   6.226  10.178 -1.0755 -0.7536  2.2381
   69SLPC   C35 5920   3.306   6.219   9.984 -0.4647 -0.1398 -0.5991
   69SLPC   H5X 5921   3.250   6.312  10.008 -1.1002 -0.9696  1.3305
   69SLPC   H5Y 5922   3.226   6.162   9.932 -3.0563 -0.2276  3.1128
   69SLPC   C36 5923   3.425   6.260   9.900 -0.5613 -0.3143 -0.0303
   69SLPC   H6X 5924   3.509   6.190   9.917  0.7347  1.2824  0.3092
   69SLPC   H6Y 5925   3.479   6.352   9.931  0.4200  0.0979 -2.6856
   69SLPC   C37 5926   3.383   6.274   9.750 -0.0112  0.5386  0.0960
   69SLPC   H7X 5927   3.454   6.326   9.683 -0.6920  0.0292 -1.0561
   69SLPC   H7Y 5928   3.286   6.328   9.749 -0.9367 -1.0087  1.2063
   69SLPC   C38 5929   3.354   6.135   9.687 -0.5219  0.0955  0.1178
   69SLPC   H8X 5930   3.321   6.071   9.772  1.4225  2.0728  2.5462
   69SLPC   H8Y 5931   3.445   6.088   9.644 -0.3381  0.9853 -0.5039
   69SLPC   C39 5932   3.250   6.137   9.578 -0.0548  0.4288 -0.2144
   69SLPC   H9X 5933   3.171   6.213   9.596 -0.7746 -0.3242 -0.1427
   69SLPC   H9Y 5934   3.200   6.038   9.582 -0.8069  0.7807 -0.7131
   69SLPC  C310 5935   3.318   6.162   9.437  0.3906 -0.0428  0.3157
   69SLPC  H10X 5936   3.385   6.077   9.412 -2.0676 -1.3453 -2.3682
   69SLPC  H10Y 5937   3.368   6.261   9.429 -2.1344  1.1432 -2.6565
   69SLPC  C311 5938   3.217   6.162   9.318 -0.2861 -0.2950  0.2190
   69SLPC  H11X 5939   3.264   6.148   9.218  0.1244 -2.9221  0.7103
   69SLPC  H11Y 5940   3.177   6.265   9.308  1.5308  0.6179  1.6988
   69SLPC  C312 5941   3.100   6.067   9.329 -0.2710 -0.2776  0.0625
   69SLPC  H12X 5942   3.054   6.058   9.429 -2.3103 -0.3580 -0.8421
   69SLPC  H12Y 5943   3.124   5.960   9.311 -0.8995 -0.4102  0.0173
   69SLPC  C313 5944   2.997   6.100   9.216  0.1768 -0.0435 -0.1965
   69SLPC  H13X 5945   3.058   6.069   9.128  2.2215 -2.0498  1.7911
   69SLPC  H13Y 5946   2.981   6.209   9.226 -2.0506 -0.4874  1.8790
   69SLPC  C314 5947   2.855   6.035   9.212  0.2042  0.3405  0.1124
   69SLPC  H14X 5948   2.790   6.074   9.293  2.3145 -0.5041  2.3550
   69SLPC  H14Y 5949   2.864   5.925   9.224  1.8087  0.1729 -2.0325
   69SLPC  C315 5950   2.781   6.067   9.083 -0.4461 -0.0832  0.7267
   69SLPC  H15X 5951   2.773   6.177   9.064 -1.6527 -0.0479  1.3199
   69SLPC  H15Y 5952   2.675   6.035   9.094  0.1912 -3.3893 -1.5085
   69SLPC  C316 5953   2.844   6.017   8.947  0.6445  0.7614  0.1276
   69SLPC  H16X 5954   2.863   5.909   8.963  0.0567  0.6768  0.2727
   69SLPC  H16Y 5955   2.940   6.071   8.927  0.1597  1.0435 -1.5537
   69SLPC  C317 5956   2.761   6.026   8.825  0.2215  0.8713 -0.2047
   69SLPC  H17X 5957   2.822   6.006   8.735  0.0363  0.7511 -0.3033
   69SLPC  H17Y 5958   2.723   6.130   8.821 -1.0060  0.6296  2.6573
   69SLPC  C318 5959   2.643   5.929   8.831 -1.0860 -1.3059  0.1348
   69SLPC  H18X 5960   2.588   5.960   8.922  0.5477 -0.8973  1.0151
   69SLPC  H18Y 5961   2.679   5.826   8.847  2.2025 -0.4056 -0.8172
   69SLPC  H18Z 5962   2.583   5.952   8.740  0.3367  1.5434 -0.1935
   70SLPC     N 5963   4.127   3.655  11.202  0.3946 -0.3934 -0.0097
   70SLPC   C13 5964   4.200   3.658  11.337  0.4993 -0.3752 -0.0811
   70SLPC  H13A 5965   4.189   3.567  11.393 -0.0911  0.3255  0.9675
   70SLPC  H13B 5966   4.306   3.671  11.319  0.7176 -1.7925  0.0794
   70SLPC  H13C 5967   4.168   3.741  11.397 -1.9132  0.1390 -1.8981
   70SLPC   C14 5968   3.979   3.630  11.203 -0.4993  0.1204 -0.8478
   70SLPC  H14A 5969   3.947   3.547  11.264 -1.3818  0.7997 -0.3570
   70SLPC  H14B 5970   3.924   3.706  11.257  0.1631 -0.0196  0.0378
   70SLPC  H14C 5971   3.919   3.644  11.114 -2.3229  2.2569  0.6157
   70SLPC   C15 5972   4.191   3.548  11.120 -0.3947 -0.4040  0.4195
   70SLPC  H15A 5973   4.150   3.462  11.170  0.8344 -0.0201  2.1728
   70SLPC  H15B 5974   4.162   3.555  11.016 -1.2312  2.3955  0.7476
   70SLPC  H15C 5975   4.299   3.548  11.125 -0.4337  0.1653  1.7787
   70SLPC   C12 5976   4.152   3.788  11.133 -0.7402  0.4715 -0.1796
   70SLPC  H12A 5977   4.258   3.799  11.114 -0.6051 -0.8715 -0.2968
   70SLPC  H12B 5978   4.121   3.873  11.193  2.5851  1.1862  0.7273
   70SLPC   C11 5979   4.076   3.808  11.000 -0.1981  0.2011  0.3105
   70SLPC  H11A 5980   4.105   3.909  10.966  2.0465 -0.0630  1.2575
   70SLPC  H11B 5981   3.966   3.790  11.008  0.0391 -0.8085  1.8541
   70SLPC     P 5982   4.256   3.746  10.804  0.6289 -0.0140  0.1869
   70SLPC   O13 5983   4.354   3.830  10.873 -0.3453  0.3401 -0.0203
   70SLPC   O14 5984   4.295   3.611  10.762  0.8540 -0.1316 -0.6024
   70SLPC   O12 5985   4.122   3.722  10.899  0.1500  0.2792  0.1433
   70SLPC   O11 5986   4.218   3.830  10.676  0.1851 -0.1074  0.1335
   70SLPC    C1 5987   4.079   3.823  10.646 -0.8367 -0.7318  0.0420
   70SLPC    HA 5988   4.049   3.716  10.649 -0.0907 -0.9855 -0.9037
   70SLPC    HB 5989   4.010   3.876  10.715 -1.9452 -3.3759  1.1172
   70SLPC    C2 5990   4.062   3.886  10.494 -0.6643  0.4365 -0.4637
   70SLPC    HS 5991   3.962   3.864  10.449 -0.0099  0.1859 -1.8518
   70SLPC   O21 5992   4.174   3.844  10.406  0.4704  0.5358 -0.2039
   70SLPC   C21 5993   4.169   3.717  10.388 -0.3077 -0.0073 -0.0760
   70SLPC   O22 5994   4.074   3.642  10.410 -0.2799  0.2187 -0.3113
   70SLPC   C22 5995   4.302   3.680  10.327 -0.1340 -0.2849 -0.0683
   70SLPC   H2R 5996   4.328   3.768  10.264 -2.3727 -0.1703 -0.9401
   70SLPC   H2S 5997   4.385   3.654  10.395  0.3063 -3.0971 -1.5060
   70SLPC    C3 5998   4.059   4.037  10.503 -0.4377 -0.3445 -0.1172
   70SLPC    HX 5999   4.155   4.076  10.544 -0.0863 -2.1071  0.8166
   70SLPC    HY 6000   3.980   4.068  10.575 -2.3358 -2.7136 -1.0368
   70SLPC   O31 6001   4.033   4.089  10.371 -0.0375  0.0075 -0.1595
   70SLPC   C31 6002   4.130   4.138  10.300 -0.6303 -0.3434 -0.3631
   70SLPC   O32 6003   4.249   4.140  10.329  0.0427  0.0407  0.1012
   70SLPC   C32 6004   4.070   4.187  10.162  0.4215  0.1834  0.0412
   70SLPC   H2X 6005   4.002   4.273  10.180 -0.7085 -1.1726  2.9287
   70SLPC   H2Y 6006   4.008   4.110  10.111  0.2657  1.3455 -1.5737
   70SLPC   C23 6007   4.300   3.558  10.233 -0.6286 -0.1093  0.1423
   70SLPC   H3R 6008   4.208   3.556  10.171  0.8880 -0.3930 -2.2527
   70SLPC   H3S 6009   4.306   3.458  10.281 -1.0145 -0.1150  0.1771
   70SLPC   C24 6010   4.407   3.570  10.117  0.9700  0.2294  0.3074
   70SLPC   H4R 6011   4.502   3.534  10.161  0.6332  0.0644  0.8982
   70SLPC   H4S 6012   4.423   3.676  10.086  0.2875  0.8481  1.9952
   70SLPC   C25 6013   4.380   3.476   9.994  0.0439 -0.2645 -0.5515
   70SLPC   H5R 6014   4.291   3.505   9.935  0.9048  1.2141 -1.1970
   70SLPC   H5S 6015   4.369   3.371  10.027 -0.1888  0.3393  1.4175
   70SLPC   C26 6016   4.503   3.491   9.899 -0.4625 -0.5079  0.6053
   70SLPC   H6R 6017   4.594   3.464   9.957  0.7973  0.1096 -0.9724
   70SLPC   H6S 6018   4.517   3.598   9.871  2.1470 -1.1358 -0.8131
   70SLPC   C27 6019   4.507   3.401   9.777 -0.0070 -0.1689  1.5832
   70SLPC   H7R 6020   4.424   3.418   9.704  0.9544 -0.5356  0.3726
   70SLPC   H7S 6021   4.489   3.295   9.804 -3.5926  0.3105  1.6572
   70SLPC   C28 6022   4.644   3.419   9.695  0.0895  0.6051 -0.3210
   70SLPC   H8R 6023   4.726   3.439   9.768 -1.2757  1.0198  1.1599
   70SLPC   H8S 6024   4.627   3.510   9.633 -1.0220  0.6823  0.0806
   70SLPC   C29 6025   4.673   3.294   9.608 -0.0839 -0.0013 -1.6906
   70SLPC   H9R 6026   4.698   3.198   9.656  0.5061  0.7137 -0.5292
   70SLPC  C210 6027   4.663   3.286   9.478 -0.3387 -0.5547 -0.3228
   70SLPC  H10R 6028   4.715   3.205   9.426  0.8632 -0.7737  1.1724
   70SLPC  C211 6029   4.630   3.393   9.380 -0.2208  0.1892 -0.1282
   70SLPC  H11R 6030   4.596   3.483   9.435  1.5758  0.4704  0.5840
   70SLPC  H11S 6031   4.551   3.360   9.310 -1.6505 -0.8296  1.8447
   70SLPC  C212 6032   4.748   3.436   9.297  0.0528  0.5413 -0.3727
   70SLPC  H12R 6033   4.818   3.499   9.353  1.9230 -0.7506 -1.1436
   70SLPC  C213 6034   4.779   3.383   9.182 -0.3945 -0.8811  0.6023
   70SLPC  H13R 6035   4.861   3.435   9.130 -1.5242  0.3528 -0.0236
   70SLPC  C214 6036   4.702   3.287   9.103  0.2662 -0.2321  0.5044
   70SLPC  H14R 6037   4.653   3.206   9.161  0.8914 -0.6032  0.5242
   70SLPC  H14S 6038   4.779   3.244   9.036  1.9897  0.3819  2.0228
   70SLPC  C215 6039   4.593   3.343   9.007 -0.0522 -0.3534 -0.8845
   70SLPC  H15R 6040   4.631   3.406   8.925  1.4454  0.7112  0.5590
   70SLPC  H15S 6041   4.522   3.405   9.065  0.9262  1.6391 -1.7512
   70SLPC  C216 6042   4.515   3.231   8.936  0.3703  0.5582 -0.3428
   70SLPC  H16R 6043   4.454   3.195   9.022  0.1168 -0.5388 -0.9626
   70SLPC  H16S 6044   4.596   3.160   8.909  0.8415  1.1403 -0.4971
   70SLPC  C217 6045   4.435   3.281   8.815 -0.1216 -0.5261  0.6764
   70SLPC  H17R 6046   4.489   3.334   8.734 -0.8387 -0.2870  0.3481
   70SLPC  H17S 6047   4.360   3.353   8.854  1.6412  0.5181  2.3239
   70SLPC  C218 6048   4.367   3.162   8.729  0.1111  0.4637  0.1924
   70SLPC  H18R 6049   4.337   3.204   8.631 -1.7041 -1.1159  0.0213
   70SLPC  H18S 6050   4.290   3.110   8.790  1.9908 -1.4644  1.0464
   70SLPC  H18T 6051   4.446   3.087   8.708 -0.6990 -0.2043 -0.5546
   70SLPC   C33 6052   4.173   4.237  10.054 -0.2422 -0.3951  0.9251
   70SLPC   H3X 6053   4.234   4.154  10.013  0.5239 -0.1042  1.4566
   70SLPC   H3Y 6054   4.237   4.314  10.102  0.8923  1.2886 -2.9178
   70SLPC   C34 6055   4.096   4.289   9.932  0.2002  0.4249  0.2793
   70SLPC   H4X 6056   4.175   4.353   9.889  1.0452 -0.2974  0.7193
   70SLPC   H4Y 6057   4.010   4.347   9.973 -1.8382 -1.8865 -0.5088
   70SLPC   C35 6058   4.025   4.191   9.839  0.5378 -0.3424  1.0005
   70SLPC   H5X 6059   3.931   4.154   9.884 -1.2083  1.3972 -1.0203
   70SLPC   H5Y 6060   4.094   4.103   9.831 -0.3228 -0.9781  0.4652
   70SLPC   C36 6061   3.997   4.257   9.701  0.5578  0.1047  0.2588
   70SLPC   H6X 6062   4.090   4.310   9.671  0.4950 -0.2167 -0.5311
   70SLPC   H6Y 6063   3.923   4.340   9.705 -0.0046 -0.2959 -1.3017
   70SLPC   C37 6064   3.956   4.153   9.601 -0.1219 -0.0845  0.1981
   70SLPC   H7X 6065   3.865   4.104   9.640  0.0321 -0.2538  0.3432
   70SLPC   H7Y 6066   4.031   4.072   9.606  0.9939  1.0129  3.5314
   70SLPC   C38 6067   3.935   4.185   9.451  0.1298  0.5145 -0.6699
   70SLPC   H8X 6068   4.030   4.218   9.404 -0.2311  0.5042 -1.4263
   70SLPC   H8Y 6069   3.872   4.277   9.442  2.4404  2.4131  1.1511
   70SLPC   C39 6070   3.878   4.062   9.380  0.0389  0.1466  0.3089
   70SLPC   H9X 6071   3.788   4.011   9.420  1.6325 -3.2504 -0.0956
   70SLPC   H9Y 6072   3.957   3.984   9.386 -1.4575 -1.5162 -0.6958
   70SLPC  C310 6073   3.842   4.083   9.230  0.4850  0.5950 -0.1652
   70SLPC  H10X 6074   3.929   4.143   9.192  0.7404  1.0970  1.1661
   70SLPC  H10Y 6075   3.748   4.141   9.225  0.0961  0.1155  1.2653
   70SLPC  C311 6076   3.818   3.957   9.145 -0.7965  0.5467 -0.1622
   70SLPC  H11X 6077   3.732   3.917   9.204 -0.2987 -1.0284 -0.4674
   70SLPC  H11Y 6078   3.907   3.894   9.166 -1.2376  0.2224  0.7813
   70SLPC  C312 6079   3.797   3.982   8.999  0.3355  0.1682  0.5770
   70SLPC  H12X 6080   3.889   4.027   8.954  1.4825 -0.5551  2.0876
   70SLPC  H12Y 6081   3.711   4.048   8.977  0.6106  1.0573  1.9979
   70SLPC  C313 6082   3.775   3.848   8.917  0.2492 -0.0048 -0.1801
   70SLPC  H13X 6083   3.702   3.796   8.984  2.2360 -1.9759  0.5846
   70SLPC  H13Y 6084   3.875   3.800   8.915 -0.4519 -1.5239 -1.4909
   70SLPC  C314 6085   3.715   3.869   8.780  0.1307 -0.8415 -0.4518
   70SLPC  H14X 6086   3.792   3.942   8.747  2.7259 -3.6898 -1.1732
   70SLPC  H14Y 6087   3.617   3.921   8.777 -0.3637 -1.7831 -1.3052
   70SLPC  C315 6088   3.725   3.752   8.684  0.0617  0.5196 -0.3091
   70SLPC  H15X 6089   3.659   3.670   8.723  3.3684 -2.0869  0.2701
   70SLPC  H15Y 6090   3.828   3.711   8.673  0.4924  1.5121 -0.0321
   70SLPC  C316 6091   3.676   3.789   8.535 -0.4732  0.5974 -0.1388
   70SLPC  H16X 6092   3.731   3.877   8.495  1.7195 -1.8642 -3.0434
   70SLPC  H16Y 6093   3.565   3.797   8.536 -0.9925 -3.7970 -1.3064
   70SLPC  C317 6094   3.725   3.683   8.431  0.2499 -0.3205 -0.2515
   70SLPC  H17X 6095   3.836   3.675   8.436  0.1719 -0.7379  2.0586
   70SLPC  H17Y 6096   3.705   3.714   8.326 -2.2390  0.5510  0.4064
   70SLPC  C318 6097   3.658   3.546   8.451 -0.0304  0.5397 -0.0994
   70SLPC  H18X 6098   3.673   3.517   8.557  0.3827  2.6500  0.4642
   70SLPC  H18Y 6099   3.710   3.466   8.393 -0.2388  0.7843 -0.6262
   70SLPC  H18Z 6100   3.549   3.557   8.434 -0.6125 -3.0241  0.5959
   71SLPC     N 6101   2.977   2.527  11.198 -0.5242 -0.0310  0.7105
   71SLPC   C13 6102   3.118   2.482  11.222  0.8815 -0.0910 -0.0799
   71SLPC  H13A 6103   3.144   2.383  11.257  1.9570  0.6017  1.1355
   71SLPC  H13B 6104   3.177   2.491  11.132  1.1888 -3.0557 -0.2728
   71SLPC  H13C 6105   3.170   2.547  11.290  1.2217  0.5178 -0.9132
   71SLPC   C14 6106   2.971   2.668  11.142 -0.2167  0.5167  0.7424
   71SLPC  H14A 6107   3.007   2.675  11.040 -1.8817  3.6722  0.2243
   71SLPC  H14B 6108   2.869   2.703  11.129 -0.5447 -0.4788  0.5569
   71SLPC  H14C 6109   3.024   2.743  11.199  0.7625  0.1305  0.3669
   71SLPC   C15 6110   2.889   2.529  11.323 -0.2477  0.2947  0.0398
   71SLPC  H15A 6111   2.901   2.429  11.363 -2.3183 -0.4004 -0.9217
   71SLPC  H15B 6112   2.914   2.602  11.399 -0.1064 -0.8410  1.1248
   71SLPC  H15C 6113   2.784   2.527  11.300 -0.8944 -3.3682  2.4253
   71SLPC   C12 6114   2.916   2.425  11.097  0.5398 -0.0042  0.2487
   71SLPC  H12A 6115   2.970   2.432  11.004 -0.4234 -1.7209 -0.4874
   71SLPC  H12B 6116   2.812   2.451  11.083  0.6305  0.4188  0.3515
   71SLPC   C11 6117   2.925   2.279  11.135  0.1900 -0.8321  0.0135
   71SLPC  H11A 6118   2.870   2.271  11.231  0.2805  0.9431  0.2551
   71SLPC  H11B 6119   3.028   2.246  11.159  0.2667 -0.1234  0.7069
   71SLPC     P 6120   2.926   2.162  10.903  0.1196  0.3473  0.2421
   71SLPC   O13 6121   3.066   2.137  10.924  0.2326  0.1726  0.8161
   71SLPC   O14 6122   2.847   2.051  10.854  0.4139  0.0115 -0.2540
   71SLPC   O12 6123   2.854   2.197  11.042 -0.3081  0.1060 -0.0028
   71SLPC   O11 6124   2.912   2.290  10.813  0.0481  0.5975 -0.2783
   71SLPC    C1 6125   2.784   2.349  10.799 -0.3881  0.4535 -0.5542
   71SLPC    HA 6126   2.717   2.328  10.886  0.8920 -1.2393  0.0970
   71SLPC    HB 6127   2.794   2.458  10.786  1.3619  0.8148  2.7302
   71SLPC    C2 6128   2.710   2.292  10.675 -0.4518  0.2541 -0.2770
   71SLPC    HS 6129   2.718   2.183  10.695  0.4722  0.2733 -0.5354
   71SLPC   O21 6130   2.781   2.327  10.556 -0.5455 -0.1473 -0.0412
   71SLPC   C21 6131   2.749   2.240  10.453 -1.0439 -0.0543 -0.3338
   71SLPC   O22 6132   2.690   2.138  10.457  0.3269 -0.5193 -1.0056
   71SLPC   C22 6133   2.803   2.301  10.323 -0.0236 -0.3836  0.7097
   71SLPC   H2R 6134   2.760   2.404  10.315 -2.3751 -1.3362  0.1016
   71SLPC   H2S 6135   2.913   2.311  10.329 -0.1245  0.5842  1.0753
   71SLPC    C3 6136   2.555   2.327  10.683  0.4352  1.1415  0.6252
   71SLPC    HX 6137   2.533   2.436  10.686 -1.0810  0.9246 -0.8583
   71SLPC    HY 6138   2.526   2.299  10.786 -0.6680  0.5478  0.1666
   71SLPC   O31 6139   2.481   2.266  10.572  0.4751 -0.0411 -0.0795
   71SLPC   C31 6140   2.429   2.140  10.595  0.2042  0.0667  0.3870
   71SLPC   O32 6141   2.454   2.064  10.684 -0.4078  0.0237  0.8847
   71SLPC   C32 6142   2.334   2.113  10.480 -0.5291  0.5189 -0.0041
   71SLPC   H2X 6143   2.235   2.100  10.529 -0.2155 -0.5607  0.3802
   71SLPC   H2Y 6144   2.357   2.007  10.455 -2.9754 -0.1531  0.2882
   71SLPC   C23 6145   2.759   2.240  10.186  0.2438 -0.3931 -0.3103
   71SLPC   H3R 6146   2.648   2.240  10.181  0.2917 -1.7956 -2.2845
   71SLPC   H3S 6147   2.793   2.136  10.167 -0.4394 -0.2330 -2.8066
   71SLPC   C24 6148   2.803   2.318  10.062 -0.3235  0.5057  0.1019
   71SLPC   H4R 6149   2.900   2.369  10.079  0.4236  0.2046 -2.7439
   71SLPC   H4S 6150   2.727   2.394  10.032 -0.7073 -0.6771 -2.1579
   71SLPC   C25 6151   2.823   2.245   9.927 -0.0346 -0.3893  0.9484
   71SLPC   H5R 6152   2.726   2.199   9.901  0.2747 -0.4817 -0.0596
   71SLPC   H5S 6153   2.893   2.160   9.944 -1.1048 -1.5862 -0.4493
   71SLPC   C26 6154   2.868   2.344   9.814 -0.5734 -0.0073 -0.5128
   71SLPC   H6R 6155   2.786   2.414   9.788 -0.2854  0.8406  0.7384
   71SLPC   H6S 6156   2.886   2.278   9.726 -0.9449  0.5300 -1.0005
   71SLPC   C27 6157   3.010   2.405   9.842  0.9505 -0.1001 -0.1287
   71SLPC   H7R 6158   3.086   2.324   9.844  0.3936 -0.6121  0.5929
   71SLPC   H7S 6159   3.001   2.459   9.938  0.1904 -0.2548 -0.1063
   71SLPC   C28 6160   3.049   2.523   9.751 -1.5338  0.0621  0.5485
   71SLPC   H8R 6161   3.143   2.568   9.791 -1.0427 -0.0147 -0.4911
   71SLPC   H8S 6162   2.979   2.609   9.753  0.3627  1.7372 -0.9259
   71SLPC   C29 6163   3.062   2.489   9.604 -0.4521 -0.2474 -0.2892
   71SLPC   H9R 6164   2.971   2.511   9.547 -1.2116 -0.1870  0.9027
   71SLPC  C210 6165   3.177   2.437   9.547  0.0282  0.0945  0.0532
   71SLPC  H10R 6166   3.175   2.415   9.439 -1.9882  2.4664 -0.4766
   71SLPC  C211 6167   3.304   2.398   9.624  0.1989  0.4806  0.2126
   71SLPC  H11R 6168   3.286   2.292   9.652 -0.9273  0.4931 -0.3843
   71SLPC  H11S 6169   3.314   2.441   9.726  1.1500  0.0328  0.3171
   71SLPC  C212 6170   3.435   2.412   9.549  0.1402  0.2205 -1.2837
   71SLPC  H12R 6171   3.484   2.504   9.582 -0.0274  0.0953 -0.6683
   71SLPC  C213 6172   3.481   2.334   9.451  0.5455  0.1332 -0.2930
   71SLPC  H13R 6173   3.583   2.355   9.416  1.1910  1.0280  1.9802
   71SLPC  C214 6174   3.408   2.211   9.391 -0.3811 -0.0398 -0.0244
   71SLPC  H14R 6175   3.301   2.201   9.419 -0.5105 -1.6076 -0.9830
   71SLPC  H14S 6176   3.455   2.119   9.433  0.8715  0.4009 -0.3871
   71SLPC  C215 6177   3.407   2.211   9.234 -0.5997 -0.3922 -0.8443
   71SLPC  H15R 6178   3.363   2.308   9.202 -2.4677 -1.4375 -1.6313
   71SLPC  H15S 6179   3.345   2.125   9.201 -0.1579 -0.1109 -2.4790
   71SLPC  C216 6180   3.541   2.208   9.160 -0.6520 -0.3583  0.5816
   71SLPC  H16R 6181   3.583   2.106   9.173  1.6700  0.3514 -0.9065
   71SLPC  H16S 6182   3.616   2.273   9.210 -1.8948  0.7826  1.0336
   71SLPC  C217 6183   3.522   2.250   9.013 -0.1084 -0.9772 -0.9512
   71SLPC  H17R 6184   3.486   2.355   9.003  1.8215 -0.1930 -0.1165
   71SLPC  H17S 6185   3.443   2.181   8.978  0.0800 -0.7686 -1.8229
   71SLPC  C218 6186   3.643   2.245   8.920  0.3010  0.0269 -0.4398
   71SLPC  H18R 6187   3.704   2.151   8.922 -0.5244 -0.5692 -1.5401
   71SLPC  H18S 6188   3.709   2.333   8.929  1.0107 -0.6103  0.8564
   71SLPC  H18T 6189   3.611   2.239   8.813 -1.2576 -0.4284  0.0300
   71SLPC   C33 6190   2.354   2.206  10.355  0.3295  0.2674  0.0839
   71SLPC   H3X 6191   2.462   2.201  10.328  0.2193 -0.1475 -0.2877
   71SLPC   H3Y 6192   2.330   2.310  10.386  1.1039  0.5891 -0.3615
   71SLPC   C34 6193   2.272   2.147  10.236  0.3288  0.0625 -0.0546
   71SLPC   H4X 6194   2.166   2.123  10.262  1.3560 -1.5767  3.2115
   71SLPC   H4Y 6195   2.317   2.055  10.193 -3.6787 -1.8352 -0.6712
   71SLPC   C35 6196   2.269   2.247  10.123  0.6535  0.0708  0.3163
   71SLPC   H5X 6197   2.231   2.344  10.163  0.2884  0.7619 -1.5706
   71SLPC   H5Y 6198   2.200   2.218  10.042  1.1551  1.1594 -0.5387
   71SLPC   C36 6199   2.403   2.282  10.067 -0.2017 -0.1964  0.8177
   71SLPC   H6X 6200   2.460   2.186  10.062  0.7642  0.1896  3.0298
   71SLPC   H6Y 6201   2.470   2.346  10.129  0.6534  1.9913 -2.1403
   71SLPC   C37 6202   2.397   2.344   9.920  0.0579  0.0608  0.0304
   71SLPC   H7X 6203   2.492   2.398   9.902 -0.3811  0.6872 -0.4167
   71SLPC   H7Y 6204   2.306   2.406   9.907 -0.1094  0.2688  1.8332
   71SLPC   C38 6205   2.391   2.228   9.815  0.0978 -0.2373  0.2900
   71SLPC   H8X 6206   2.307   2.165   9.851 -0.1730 -0.2875 -0.4131
   71SLPC   H8Y 6207   2.480   2.164   9.830 -0.2924 -0.4201  2.0936
   71SLPC   C39 6208   2.355   2.283   9.676  0.0755  0.6260 -0.9478
   71SLPC   H9X 6209   2.260   2.340   9.677  0.5500  1.4546  0.6747
   71SLPC   H9Y 6210   2.334   2.199   9.606 -1.1178 -0.4452  0.6374
   71SLPC  C310 6211   2.457   2.390   9.617 -0.3146 -0.0366 -0.1773
   71SLPC  H10X 6212   2.486   2.470   9.689 -1.1019 -0.3469  0.5113
   71SLPC  H10Y 6213   2.409   2.425   9.524 -0.0032 -3.6610 -1.8497
   71SLPC  C311 6214   2.585   2.311   9.571 -0.1147  1.2713  0.1608
   71SLPC  H11X 6215   2.536   2.241   9.500  1.2771  0.9346 -0.5052
   71SLPC  H11Y 6216   2.639   2.253   9.649 -1.5146 -2.6772 -1.4985
   71SLPC  C312 6217   2.676   2.392   9.485 -0.4038 -0.3922  0.2327
   71SLPC  H12X 6218   2.760   2.432   9.545 -0.0990 -2.1947  1.0837
   71SLPC  H12Y 6219   2.627   2.473   9.427 -0.3920  0.1112  0.9216
   71SLPC  C313 6220   2.747   2.298   9.375 -0.7955 -0.1029 -0.2405
   71SLPC  H13X 6221   2.668   2.231   9.332 -1.1039 -1.5257  2.3121
   71SLPC  H13Y 6222   2.801   2.220   9.433 -0.5145 -1.4662 -2.2062
   71SLPC  C314 6223   2.847   2.364   9.279 -0.1929 -0.0580 -0.3053
   71SLPC  H14X 6224   2.920   2.426   9.334 -0.4661 -1.4612  1.7680
   71SLPC  H14Y 6225   2.799   2.442   9.218  2.1121  1.4574 -0.2833
   71SLPC  C315 6226   2.912   2.273   9.175 -0.8209  0.4346 -0.2526
   71SLPC  H15X 6227   2.833   2.229   9.110  0.8044 -0.6599 -1.5803
   71SLPC  H15Y 6228   2.940   2.183   9.234 -0.1229  1.3200  0.8151
   71SLPC  C316 6229   3.036   2.320   9.105 -0.4138 -0.5869  0.6610
   71SLPC  H16X 6230   3.092   2.235   9.060 -1.4525 -1.2579  0.5877
   71SLPC  H16Y 6231   3.099   2.373   9.179  1.6322 -2.5211  0.3774
   71SLPC  C317 6232   3.008   2.431   9.003 -0.3500 -0.1735  0.0138
   71SLPC  H17X 6233   2.936   2.504   9.047 -1.8697 -1.7813  0.2774
   71SLPC  H17Y 6234   2.953   2.390   8.916  0.9523 -0.9131 -0.4964
   71SLPC  C318 6235   3.135   2.494   8.957  0.2017  0.2224  0.5549
   71SLPC  H18X 6236   3.119   2.587   8.898  1.2648 -1.1201 -2.0322
   71SLPC  H18Y 6237   3.187   2.423   8.889 -0.1274 -0.2353  0.7753
   71SLPC  H18Z 6238   3.205   2.526   9.037  0.9014 -0.5266  0.2528
   72SLPC     N 6239   3.988   1.345  11.171  0.5348  0.3065 -0.3653
   72SLPC   C13 6240   4.092   1.456  11.194  0.1710 -0.4411 -0.4844
   72SLPC  H13A 6241   4.190   1.415  11.215  0.9110  0.9940 -0.9370
   72SLPC  H13B 6242   4.104   1.516  11.104 -1.1442 -1.2025 -1.1945
   72SLPC  H13C 6243   4.062   1.524  11.272 -0.2922  1.5060 -2.2528
   72SLPC   C14 6244   3.848   1.399  11.151  0.5724  0.0374  0.6946
   72SLPC  H14A 6245   3.810   1.450  11.238 -0.3476 -1.3063  1.0980
   72SLPC  H14B 6246   3.848   1.472  11.071 -2.5535 -1.9220 -1.2545
   72SLPC  H14C 6247   3.774   1.324  11.128  0.3666 -0.2395  2.1791
   72SLPC   C15 6248   3.994   1.256  11.291  0.0986  0.6509 -0.0345
   72SLPC  H15A 6249   4.093   1.216  11.300 -0.6482 -1.4686 -0.7751
   72SLPC  H15B 6250   3.972   1.311  11.382 -1.8602 -0.0498 -0.0362
   72SLPC  H15C 6251   3.930   1.169  11.285 -0.9050  1.3410  0.2500
   72SLPC   C12 6252   4.021   1.270  11.045  0.3713  0.5109  0.8969
   72SLPC  H12A 6253   3.961   1.181  11.033 -1.9609  1.8426  1.9766
   72SLPC  H12B 6254   4.116   1.223  11.063 -0.8145 -1.8857  1.4013
   72SLPC   C11 6255   4.009   1.345  10.911  0.4397 -0.3556 -0.1515
   72SLPC  H11A 6256   3.932   1.425  10.908  0.1304 -0.6790 -1.3279
   72SLPC  H11B 6257   3.975   1.280  10.828  0.1599 -0.7160  0.2483
   72SLPC     P 6258   4.253   1.311  10.818 -0.3602 -0.4935 -0.0461
   72SLPC   O13 6259   4.367   1.357  10.905  0.3034 -0.2033 -0.3902
   72SLPC   O14 6260   4.225   1.170  10.813  0.1440  0.2384  0.3691
   72SLPC   O12 6261   4.135   1.398  10.867 -0.7778 -0.3904  0.3368
   72SLPC   O11 6262   4.269   1.366  10.671  0.0146  0.2000  0.3923
   72SLPC    C1 6263   4.152   1.372  10.586 -0.1466 -0.6455 -0.0799
   72SLPC    HA 6264   4.119   1.267  10.573 -0.7729 -0.5696  0.8319
   72SLPC    HB 6265   4.070   1.430  10.632  0.4335 -1.5033  2.1853
   72SLPC    C2 6266   4.181   1.432  10.447 -0.2877 -0.4087  0.1605
   72SLPC    HS 6267   4.090   1.482  10.407 -0.3325 -0.8565 -0.3233
   72SLPC   O21 6268   4.227   1.327  10.352  0.3986  0.2291 -0.1078
   72SLPC   C21 6269   4.137   1.238  10.317  0.2023  0.5659  1.0875
   72SLPC   O22 6270   4.022   1.231  10.353  0.5430  0.6079 -0.4561
   72SLPC   C22 6271   4.200   1.145  10.215 -0.2207 -0.1592  0.9696
   72SLPC   H2R 6272   4.218   1.215  10.130 -0.6199 -0.9103  0.2490
   72SLPC   H2S 6273   4.300   1.109  10.246 -0.1793 -0.0664  0.9421
   72SLPC    C3 6274   4.289   1.542  10.457 -0.0143 -0.1187 -0.4276
   72SLPC    HX 6275   4.377   1.503  10.513 -0.8712  0.4582  1.3839
   72SLPC    HY 6276   4.253   1.620  10.527 -2.2190 -0.7266 -0.8307
   72SLPC   O31 6277   4.326   1.582  10.320 -0.3940 -0.1176  0.2919
   72SLPC   C31 6278   4.287   1.698  10.281  0.0866  0.1265 -0.5909
   72SLPC   O32 6279   4.195   1.763  10.332 -0.2668 -0.2451  0.2226
   72SLPC   C32 6280   4.376   1.736  10.162 -0.2520  0.6160 -0.4513
   72SLPC   H2X 6281   4.367   1.656  10.085 -2.1430  0.7046 -0.3675
   72SLPC   H2Y 6282   4.483   1.750  10.190 -0.3317  0.9815 -0.3156
   72SLPC   C23 6283   4.120   1.017  10.167 -0.4922  0.6928 -0.7042
   72SLPC   H3R 6284   4.025   1.058  10.126 -0.2127  1.4478 -0.6242
   72SLPC   H3S 6285   4.100   0.949  10.252 -2.4844  0.4297 -1.3474
   72SLPC   C24 6286   4.198   0.923  10.074 -0.1892 -0.2939  0.6114
   72SLPC   H4R 6287   4.135   0.845  10.027  0.6041  0.7551 -2.3640
   72SLPC   H4S 6288   4.281   0.880  10.135 -0.8011  1.1603  2.5714
   72SLPC   C25 6289   4.278   0.996   9.957 -0.9210 -0.0900  0.2497
   72SLPC   H5R 6290   4.326   0.915   9.898 -0.5348 -0.7866  1.5030
   72SLPC   H5S 6291   4.359   1.062   9.996 -0.5932  0.9720 -2.0446
   72SLPC   C26 6292   4.190   1.079   9.859  0.0300  0.1272 -0.5263
   72SLPC   H6R 6293   4.174   1.173   9.915  0.9789  1.2213 -2.0436
   72SLPC   H6S 6294   4.093   1.024   9.859 -0.3281  0.7589 -0.7635
   72SLPC   C27 6295   4.259   1.093   9.724  0.3994 -0.4513 -0.1861
   72SLPC   H7R 6296   4.283   0.990   9.691  2.0788 -0.6759  1.5717
   72SLPC   H7S 6297   4.358   1.136   9.748 -0.2077  0.7057  0.3397
   72SLPC   C28 6298   4.170   1.180   9.625  0.4986  0.7274  0.2791
   72SLPC   H8R 6299   4.244   1.235   9.563  0.4868  0.6217  0.1674
   72SLPC   H8S 6300   4.103   1.255   9.671 -2.1986 -0.2778 -1.7851
   72SLPC   C29 6301   4.080   1.082   9.543  0.4216  0.1873 -0.0508
   72SLPC   H9R 6302   3.999   1.042   9.606 -0.2210  0.5980 -0.5986
   72SLPC  C210 6303   4.084   1.051   9.403 -0.0810  0.5405  0.2294
   72SLPC  H10R 6304   4.005   0.982   9.371  0.4524 -1.2744  2.5471
   72SLPC  C211 6305   4.181   1.103   9.292  0.2511  0.5829  0.3541
   72SLPC  H11R 6306   4.248   1.173   9.346 -0.1053  0.7008  0.6514
   72SLPC  H11S 6307   4.113   1.145   9.215 -0.2300 -2.4041 -0.9833
   72SLPC  C212 6308   4.252   0.981   9.239 -0.0214  0.2889  1.0369
   72SLPC  H12R 6309   4.315   0.938   9.318 -0.7768  2.3223  2.8609
   72SLPC  C213 6310   4.256   0.942   9.112  0.4628  0.0784  0.1494
   72SLPC  H13R 6311   4.298   0.841   9.101 -0.6160 -0.3724  0.0240
   72SLPC  C214 6312   4.190   1.004   8.988  0.1106  0.1172  0.0235
   72SLPC  H14R 6313   4.266   1.032   8.912 -0.3857 -0.4237 -0.6909
   72SLPC  H14S 6314   4.129   1.096   9.005  0.2421  0.2711 -0.3395
   72SLPC  C215 6315   4.093   0.909   8.920  0.1922  0.0927  0.6287
   72SLPC  H15R 6316   4.017   0.891   9.000  1.7806  0.0689  2.2123
   72SLPC  H15S 6317   4.134   0.808   8.897 -0.4182 -0.1220  0.4778
   72SLPC  C216 6318   4.034   0.966   8.788 -0.5147 -0.0184  0.5978
   72SLPC  H16R 6319   4.113   0.980   8.711 -1.6601  1.6634 -0.3366
   72SLPC  H16S 6320   4.003   1.072   8.801  3.5108  1.5816 -1.1543
   72SLPC  C217 6321   3.934   0.874   8.720 -0.4366  0.5751  0.6624
   72SLPC  H17R 6322   3.944   0.766   8.742  0.5156  0.7908  1.3298
   72SLPC  H17S 6323   3.950   0.891   8.611 -0.4978 -0.5607  0.4625
   72SLPC  C218 6324   3.784   0.918   8.747 -0.1979  0.0012 -0.8428
   72SLPC  H18R 6325   3.765   1.025   8.721  1.0061  0.7179  1.0295
   72SLPC  H18S 6326   3.732   0.895   8.843 -0.0025 -0.6390 -0.8861
   72SLPC  H18T 6327   3.729   0.858   8.672  0.4311  0.1349 -1.4142
   72SLPC   C33 6328   4.316   1.865  10.113 -0.8992  0.2392 -0.3087
   72SLPC   H3X 6329   4.303   1.950  10.183  1.7644  0.7822 -0.3674
   72SLPC   H3Y 6330   4.213   1.846  10.076 -0.6751 -1.0191 -0.3281
   72SLPC   C34 6331   4.392   1.914   9.993 -0.5062  0.2430 -0.2293
   72SLPC   H4X 6332   4.500   1.893  10.005 -0.6401 -0.3202  0.0084
   72SLPC   H4Y 6333   4.390   2.025   9.992 -1.1971  0.2312 -0.7655
   72SLPC   C35 6334   4.335   1.861   9.858 -0.1250 -0.3248  0.3068
   72SLPC   H5X 6335   4.234   1.908   9.846 -0.3419 -0.1056  2.5841
   72SLPC   H5Y 6336   4.316   1.752   9.858 -1.2628 -0.1455  0.4027
   72SLPC   C36 6337   4.419   1.908   9.740  0.2273  0.1361 -0.3460
   72SLPC   H6X 6338   4.516   1.856   9.753 -0.8019 -1.1676  3.1122
   72SLPC   H6Y 6339   4.435   2.017   9.747  3.0492 -0.0507 -2.2918
   72SLPC   C37 6340   4.363   1.872   9.606  0.1008 -0.2672  0.2684
   72SLPC   H7X 6341   4.279   1.940   9.578 -2.5581 -3.4016 -0.0680
   72SLPC   H7Y 6342   4.328   1.766   9.605 -1.2257  0.1457  0.8359
   72SLPC   C38 6343   4.472   1.875   9.499 -0.2364 -0.3509  0.5340
   72SLPC   H8X 6344   4.553   1.805   9.528  2.1036 -0.0234 -4.3004
   72SLPC   H8Y 6345   4.508   1.980   9.506 -0.6382 -0.1440 -0.4255
   72SLPC   C39 6346   4.424   1.839   9.359 -0.1192 -0.7175  0.0543
   72SLPC   H9X 6347   4.337   1.894   9.318  1.1939 -1.2443 -3.9177
   72SLPC   H9Y 6348   4.415   1.728   9.366 -0.9466 -0.6239  0.5629
   72SLPC  C310 6349   4.530   1.869   9.254 -0.8615  0.3384  0.0066
   72SLPC  H10X 6350   4.625   1.834   9.300 -1.5136 -0.8451  0.4997
   72SLPC  H10Y 6351   4.538   1.979   9.242 -1.7431  0.2819 -1.3485
   72SLPC  C311 6352   4.498   1.805   9.114  0.7828 -0.1201 -0.2009
   72SLPC  H11X 6353   4.410   1.853   9.066 -0.6516 -2.7099 -0.3704
   72SLPC  H11Y 6354   4.461   1.701   9.126 -0.5185  0.2773 -0.5314
   72SLPC  C312 6355   4.610   1.804   9.016 -0.4409  0.5119  0.1252
   72SLPC  H12X 6356   4.686   1.731   9.052  0.7086  2.2471  1.4402
   72SLPC  H12Y 6357   4.656   1.905   9.009 -0.9157  0.6986 -0.3228
   72SLPC  C313 6358   4.571   1.772   8.871  0.2757  0.7823  0.2216
   72SLPC  H13X 6359   4.487   1.839   8.841 -0.3167 -1.0469 -2.5544
   72SLPC  H13Y 6360   4.533   1.668   8.868  1.5298  0.3161  0.3188
   72SLPC  C314 6361   4.680   1.769   8.758 -0.3119 -0.1469 -0.2078
   72SLPC  H14X 6362   4.729   1.670   8.768 -2.9762 -1.4989  0.4358
   72SLPC  H14Y 6363   4.758   1.844   8.783 -1.0348  1.0393 -1.3618
   72SLPC  C315 6364   4.628   1.796   8.614 -0.5140 -0.8280 -0.6435
   72SLPC  H15X 6365   4.588   1.899   8.612 -0.0015 -0.6337 -1.2766
   72SLPC  H15Y 6366   4.543   1.728   8.593 -0.5038 -1.6276  1.5520
   72SLPC  C316 6367   4.744   1.782   8.507 -0.2851  0.2640 -0.8891
   72SLPC  H16X 6368   4.817   1.863   8.529 -0.6906  0.6677 -1.0080
   72SLPC  H16Y 6369   4.699   1.790   8.406  0.7697 -0.1607 -1.4037
   72SLPC  C317 6370   4.800   1.642   8.518 -0.0691 -0.2862  0.6099
   72SLPC  H17X 6371   4.714   1.581   8.550  0.1919 -0.3460  1.2168
   72SLPC  H17Y 6372   4.876   1.624   8.597  2.0149 -2.5235 -1.7267
   72SLPC  C318 6373   4.885   1.584   8.403 -0.5084 -0.3888  1.2241
   72SLPC  H18X 6374   4.887   1.473   8.412 -2.0421 -0.6106 -0.4871
   72SLPC  H18Y 6375   4.986   1.628   8.393 -1.0017  0.3098 -1.9279
   72SLPC  H18Z 6376   4.844   1.609   8.303  1.8120 -1.3184 -0.0340
   73SLPC     N 6377   5.759   6.384  10.868  0.9185  0.6180  0.4251
   73SLPC   C13 6378   5.775   6.236  10.886 -0.3464  0.2600 -0.3119
   73SLPC  H13A 6379   5.835   6.222  10.975 -0.3556  2.3167  0.0703
   73SLPC  H13B 6380   5.674   6.198  10.899  0.0162 -0.2332  1.3699
   73SLPC  H13C 6381   5.822   6.185  10.804  3.6526  0.2003  1.7876
   73SLPC   C14 6382   5.890   6.457  10.872 -0.9721 -0.4026 -0.3797
   73SLPC  H14A 6383   5.950   6.448  10.961  0.8020  2.8143 -1.0720
   73SLPC  H14B 6384   5.944   6.441  10.780  1.1168  1.4851  0.4295
   73SLPC  H14C 6385   5.874   6.564  10.874 -0.1548 -0.2772  0.3183
   73SLPC   C15 6386   5.674   6.435  10.978  0.5398 -0.2694  0.1422
   73SLPC  H15A 6387   5.718   6.412  11.073  2.9737 -0.1143 -0.8728
   73SLPC  H15B 6388   5.668   6.543  10.974 -0.1628 -0.3169 -0.3992
   73SLPC  H15C 6389   5.573   6.397  10.974  1.2427 -2.2695  0.1556
   73SLPC   C12 6390   5.694   6.417  10.734 -0.7556 -0.1734 -0.4784
   73SLPC  H12A 6391   5.762   6.408  10.650  1.0448 -0.4327  0.9326
   73SLPC  H12B 6392   5.676   6.523  10.735  2.9752  0.5868 -0.0919
   73SLPC   C11 6393   5.555   6.342  10.702  0.1430 -0.3175 -0.3299
   73SLPC  H11A 6394   5.576   6.233  10.705  2.3976  0.0700  1.5989
   73SLPC  H11B 6395   5.529   6.382  10.602 -0.1241  0.6479  0.1185
   73SLPC     P 6396   5.328   6.310  10.840  0.0469 -0.6436  0.0630
   73SLPC   O13 6397   5.356   6.176  10.893 -0.0657 -0.3350  0.3266
   73SLPC   O14 6398   5.247   6.399  10.921 -0.8801 -0.3807  0.2034
   73SLPC   O12 6399   5.459   6.393  10.796 -0.2124 -0.3073 -0.4921
   73SLPC   O11 6400   5.267   6.304  10.696 -0.2867  0.5332 -0.0162
   73SLPC    C1 6401   5.129   6.298  10.673  0.4067  0.2075  0.2988
   73SLPC    HA 6402   5.061   6.252  10.747 -1.9200  1.9255 -0.6224
   73SLPC    HB 6403   5.092   6.403  10.675 -3.0479 -0.8352 -1.0149
   73SLPC    C2 6404   5.089   6.241  10.532  0.2269  0.0492  0.1354
   73SLPC    HS 6405   4.982   6.260  10.511  0.2260  0.9110  0.8433
   73SLPC   O21 6406   5.104   6.092  10.538  0.0767  0.3808  0.6828
   73SLPC   C21 6407   5.034   6.030  10.437 -0.2112 -0.2128 -0.5214
   73SLPC   O22 6408   4.965   6.092  10.356  0.2323 -0.2788 -0.5067
   73SLPC   C22 6409   5.058   5.885  10.451  0.3545 -0.3208  0.4468
   73SLPC   H2R 6410   5.029   5.863  10.556  0.6198  0.4049  0.6787
   73SLPC   H2S 6411   4.989   5.844  10.375 -0.8960  1.6617  0.4459
   73SLPC    C3 6412   5.193   6.292  10.418 -0.0171 -0.0850 -0.0079
   73SLPC    HX 6413   5.296   6.257  10.441  0.2580  1.1092  0.6551
   73SLPC    HY 6414   5.200   6.403  10.420 -0.2016 -0.0819  0.9244
   73SLPC   O31 6415   5.152   6.244  10.288 -0.0977  0.2066  0.7903
   73SLPC   C31 6416   5.082   6.333  10.216 -0.3807  0.9686  0.4714
   73SLPC   O32 6417   5.062   6.447  10.241  0.0033 -0.1181 -0.5258
   73SLPC   C32 6418   5.042   6.272  10.084  0.3538 -0.1367 -0.0327
   73SLPC   H2X 6419   4.935   6.298  10.067 -0.4370 -2.6351  0.6630
   73SLPC   H2Y 6420   5.038   6.162  10.097 -0.6717 -0.0209  0.7890
   73SLPC   C23 6421   5.200   5.839  10.396 -0.1247 -0.3624 -0.0815
   73SLPC   H3R 6422   5.200   5.728  10.395 -2.1228 -0.4157  1.5009
   73SLPC   H3S 6423   5.284   5.871  10.461  1.2672 -0.9786 -1.5114
   73SLPC   C24 6424   5.229   5.888  10.255 -0.3165  0.2022  0.0400
   73SLPC   H4R 6425   5.329   5.842  10.244 -0.6368 -0.5641  0.2417
   73SLPC   H4S 6426   5.245   5.997  10.263 -0.6719  0.2192  0.5871
   73SLPC   C25 6427   5.121   5.868  10.136  0.2181  0.3290 -0.4492
   73SLPC   H5R 6428   5.157   5.915  10.042  0.7332  1.0950  0.1250
   73SLPC   H5S 6429   5.032   5.931  10.158  1.4653  1.8986  0.2506
   73SLPC   C26 6430   5.093   5.720  10.118 -0.1853 -0.1003  0.8858
   73SLPC   H6R 6431   5.013   5.710  10.042  0.3245  0.5422  0.2467
   73SLPC   H6S 6432   5.058   5.686  10.218 -2.5148 -2.1837 -0.5235
   73SLPC   C27 6433   5.206   5.636  10.059  0.1672 -0.5205  0.4348
   73SLPC   H7R 6434   5.180   5.528  10.070 -1.8637 -0.2776 -1.3880
   73SLPC   H7S 6435   5.305   5.642  10.110  1.2005 -1.2638 -1.3982
   73SLPC   C28 6436   5.228   5.666   9.908 -0.2262  1.2595 -0.3619
   73SLPC   H8R 6437   5.268   5.769   9.895  0.6471  0.9021 -0.5909
   73SLPC   H8S 6438   5.134   5.658   9.849 -0.8935 -1.6036  0.9529
   73SLPC   C29 6439   5.320   5.562   9.851 -0.2056  0.4073  0.1106
   73SLPC   H9R 6440   5.384   5.522   9.931  0.1683 -0.4757 -0.6202
   73SLPC  C210 6441   5.316   5.514   9.725 -0.1188 -0.0583  0.1357
   73SLPC  H10R 6442   5.407   5.461   9.691  2.0737  2.4926  1.6560
   73SLPC  C211 6443   5.220   5.557   9.613  0.0059  0.6084 -0.5943
   73SLPC  H11R 6444   5.177   5.655   9.645 -0.0676 -0.4175  2.8806
   73SLPC  H11S 6445   5.129   5.494   9.612 -0.9211  1.7646  1.9281
   73SLPC  C212 6446   5.288   5.575   9.483  0.0560  0.2234 -0.3527
   73SLPC  H12R 6447   5.372   5.646   9.473 -1.2467  1.8587  0.0544
   73SLPC  C213 6448   5.262   5.510   9.373 -0.1930 -0.4592  0.3406
   73SLPC  H13R 6449   5.327   5.526   9.286  2.6942 -2.7120  1.8948
   73SLPC  C214 6450   5.142   5.416   9.350  0.4361 -0.2381 -0.8065
   73SLPC  H14R 6451   5.061   5.479   9.393  0.9479  0.8427 -1.4023
   73SLPC  H14S 6452   5.149   5.320   9.405 -0.4376 -1.3462 -2.5487
   73SLPC  C215 6453   5.107   5.383   9.207 -0.1630 -0.5122  0.1385
   73SLPC  H15R 6454   5.133   5.462   9.132 -1.3305  1.9673  2.1983
   73SLPC  H15S 6455   4.998   5.372   9.195  0.1078 -2.3814 -0.9340
   73SLPC  C216 6456   5.168   5.241   9.166  0.1964  0.0706 -0.6518
   73SLPC  H16R 6457   5.101   5.168   9.217  2.5245 -1.2069  0.7491
   73SLPC  H16S 6458   5.268   5.218   9.207 -0.5903  0.2342  1.4970
   73SLPC  C217 6459   5.162   5.223   9.012  0.9334 -0.0311  0.1308
   73SLPC  H17R 6460   5.233   5.298   8.971  0.0820  0.8127  0.1582
   73SLPC  H17S 6461   5.061   5.240   8.969  0.2577 -0.7508  1.3645
   73SLPC  C218 6462   5.201   5.084   8.963 -0.3402 -0.2683 -0.8426
   73SLPC  H18R 6463   5.116   5.015   8.983 -1.9269  1.8493  0.0762
   73SLPC  H18S 6464   5.294   5.045   9.009 -1.4907 -2.4139 -0.2306
   73SLPC  H18T 6465   5.217   5.076   8.853 -1.0797 -3.1929 -0.8341
   73SLPC   C33 6466   5.137   6.306   9.974 -0.9837 -0.3933  0.3045
   73SLPC   H3X 6467   5.247   6.304   9.994 -0.7193 -0.5987 -1.1166
   73SLPC   H3Y 6468   5.108   6.411   9.951 -0.3970  0.2348  2.2212
   73SLPC   C34 6469   5.099   6.221   9.851  0.5431 -0.1188  0.0301
   73SLPC   H4X 6470   5.102   6.112   9.873  0.6131 -0.0583  0.3217
   73SLPC   H4Y 6471   5.171   6.248   9.771  0.8070 -0.5189  0.1320
   73SLPC   C35 6472   4.965   6.262   9.790 -0.2366 -0.0234  0.7406
   73SLPC   H5X 6473   4.978   6.355   9.731 -0.3156 -1.3569 -1.4858
   73SLPC   H5Y 6474   4.884   6.284   9.863 -1.2979 -0.0555 -0.3964
   73SLPC   C36 6475   4.900   6.150   9.703 -1.2302  0.4061 -0.6498
   73SLPC   H6X 6476   4.891   6.060   9.766 -1.9135  1.5171  0.9060
   73SLPC   H6Y 6477   4.972   6.129   9.621 -2.2467  1.2523 -1.8140
   73SLPC   C37 6478   4.770   6.199   9.655  0.9686 -0.6381  0.6715
   73SLPC   H7X 6479   4.708   6.235   9.740 -2.0573  0.7993 -1.9200
   73SLPC   H7Y 6480   4.721   6.111   9.606  0.3780 -2.0734  3.6551
   73SLPC   C38 6481   4.782   6.316   9.557  0.2594 -0.3387  0.1834
   73SLPC   H8X 6482   4.821   6.404   9.612 -0.4030 -0.9220  1.6351
   73SLPC   H8Y 6483   4.681   6.341   9.519  0.6533  1.5867  0.3018
   73SLPC   C39 6484   4.873   6.298   9.440 -0.6974  0.4251  0.3495
   73SLPC   H9X 6485   4.873   6.192   9.405 -1.5328 -0.5469  3.0595
   73SLPC   H9Y 6486   4.978   6.319   9.468  0.0677  0.4910 -2.2619
   73SLPC  C310 6487   4.821   6.374   9.314 -0.3103 -0.2527  0.3023
   73SLPC  H10X 6488   4.775   6.470   9.347 -0.7167 -0.8673  1.5675
   73SLPC  H10Y 6489   4.730   6.317   9.287  0.7378 -2.1056  0.5186
   73SLPC  C311 6490   4.926   6.384   9.203  0.1580  0.4247 -0.2971
   73SLPC  H11X 6491   4.924   6.289   9.145 -2.1802  0.6460 -0.6957
   73SLPC  H11Y 6492   5.030   6.393   9.240  0.0322  0.9930 -0.0685
   73SLPC  C312 6493   4.888   6.494   9.103 -0.6276 -0.1812  0.0001
   73SLPC  H12X 6494   4.959   6.506   9.018 -1.2208  0.4938 -0.4215
   73SLPC  H12Y 6495   4.896   6.589   9.160  2.2530  0.4562 -1.2792
   73SLPC  C313 6496   4.744   6.480   9.044 -0.2196  0.9311  0.7921
   73SLPC  H13X 6497   4.666   6.462   9.121  2.1010 -2.2441  2.7036
   73SLPC  H13Y 6498   4.737   6.394   8.974 -1.3637  1.0091  0.7933
   73SLPC  C314 6499   4.711   6.603   8.963 -0.5535  0.2516 -0.3467
   73SLPC  H14X 6500   4.777   6.606   8.873 -1.7637 -0.4930 -1.2990
   73SLPC  H14Y 6501   4.747   6.690   9.021  1.3033 -0.9765  0.4473
   73SLPC  C315 6502   4.562   6.612   8.924 -0.8872  0.8910 -0.0645
   73SLPC  H15X 6503   4.517   6.587   9.023  0.7047 -0.4096  0.3704
   73SLPC  H15Y 6504   4.536   6.535   8.848  0.9806 -0.7033  0.8457
   73SLPC  C316 6505   4.526   6.754   8.882 -0.1472  0.5079  0.4503
   73SLPC  H16X 6506   4.552   6.832   8.957  0.4528 -0.0238  0.8090
   73SLPC  H16Y 6507   4.415   6.755   8.875 -0.3395 -3.9314 -0.2296
   73SLPC  C317 6508   4.571   6.795   8.741  0.7774 -0.9722 -0.1370
   73SLPC  H17X 6509   4.559   6.712   8.668 -2.2538  1.5928 -2.8476
   73SLPC  H17Y 6510   4.682   6.804   8.744  0.8300 -1.6754  0.4306
   73SLPC  C318 6511   4.517   6.932   8.689  0.0421 -0.2801 -0.3434
   73SLPC  H18X 6512   4.501   7.003   8.773  1.7985  0.1658 -0.3578
   73SLPC  H18Y 6513   4.422   6.927   8.631 -0.2757 -1.2806  0.2487
   73SLPC  H18Z 6514   4.585   6.995   8.628 -1.7619 -0.2258 -2.4159
   74SLPC     N 6515   5.228   1.329  10.770  0.2381  0.0850 -0.1211
   74SLPC   C13 6516   5.167   1.248  10.660 -0.1426 -0.4060 -0.4703
   74SLPC  H13A 6517   5.237   1.189  10.603  0.8667 -0.4840  0.7962
   74SLPC  H13B 6518   5.091   1.183  10.701  1.0010 -0.9370  0.8942
   74SLPC  H13C 6519   5.113   1.309  10.589  3.2047  2.1014 -1.1033
   74SLPC   C14 6520   5.111   1.366  10.858  0.2826  0.1416 -0.2003
   74SLPC  H14A 6521   5.029   1.404  10.799 -0.4986 -0.1896  0.6558
   74SLPC  H14B 6522   5.064   1.288  10.915 -1.1863  1.1623  0.0248
   74SLPC  H14C 6523   5.131   1.446  10.928 -2.0072  0.2584  0.3836
   74SLPC   C15 6524   5.290   1.451  10.711  0.6842  0.5344 -0.3401
   74SLPC  H15A 6525   5.215   1.508  10.658 -0.4920 -0.7756 -0.1279
   74SLPC  H15B 6526   5.335   1.516  10.785  0.1163  0.0947  0.3983
   74SLPC  H15C 6527   5.365   1.411  10.645 -0.3382  0.9635 -1.8219
   74SLPC   C12 6528   5.327   1.250  10.851 -0.3522  0.0080  0.2258
   74SLPC  H12A 6529   5.284   1.162  10.898  0.7071 -0.5282  0.2021
   74SLPC  H12B 6530   5.357   1.314  10.933  0.0895  0.7719 -0.5256
   74SLPC   C11 6531   5.453   1.200  10.768 -0.0591 -0.3663  0.0264
   74SLPC  H11A 6532   5.510   1.136  10.838  0.5901 -0.6398 -0.7464
   74SLPC  H11B 6533   5.507   1.290  10.731 -1.3602  0.8223  0.9016
   74SLPC     P 6534   5.469   1.133  10.509  0.2445  0.1060 -0.6542
   74SLPC   O13 6535   5.384   1.241  10.457  0.3408 -0.0451  0.0053
   74SLPC   O14 6536   5.615   1.137  10.504  0.2336 -0.9183  0.3364
   74SLPC   O12 6537   5.414   1.105  10.666 -0.7641  0.0248  0.5208
   74SLPC   O11 6538   5.426   0.998  10.435 -0.2008 -0.2680 -0.1257
   74SLPC    C1 6539   5.301   0.941  10.465 -0.5342  0.2849  0.1326
   74SLPC    HA 6540   5.310   0.881  10.559 -0.7515  0.0555  0.0090
   74SLPC    HB 6541   5.221   1.017  10.476 -0.9590 -0.4281  2.8156
   74SLPC    C2 6542   5.285   0.835  10.354  1.1426 -0.7193 -0.0245
   74SLPC    HS 6543   5.380   0.779  10.344  1.5044 -0.0687 -0.2740
   74SLPC   O21 6544   5.247   0.915  10.233  0.4759 -0.0267  0.1814
   74SLPC   C21 6545   5.320   0.873  10.132  0.2417  0.2533  0.5077
   74SLPC   O22 6546   5.411   0.792  10.124  0.1821  0.2423 -0.1816
   74SLPC   C22 6547   5.275   0.949  10.004  0.0356  0.1433 -0.1409
   74SLPC   H2R 6548   5.164   0.951  10.003  0.0168  0.7528 -2.0418
   74SLPC   H2S 6549   5.303   1.056  10.011 -0.3975  0.3813 -1.6210
   74SLPC    C3 6550   5.175   0.723  10.380 -0.5527  0.6768 -0.4689
   74SLPC    HX 6551   5.073   0.766  10.386 -0.3883  1.2543 -1.4575
   74SLPC    HY 6552   5.193   0.664  10.472 -2.2516 -1.1202 -1.2314
   74SLPC   O31 6553   5.170   0.635  10.265 -0.1982 -0.2382  0.2098
   74SLPC   C31 6554   5.258   0.534  10.272 -0.4632  0.0595 -0.1586
   74SLPC   O32 6555   5.336   0.507  10.359  0.1077 -0.3459 -0.2024
   74SLPC   C32 6556   5.253   0.453  10.148  0.1494 -0.0511  0.9975
   74SLPC   H2X 6557   5.197   0.358  10.157  1.9776 -1.3511 -0.4064
   74SLPC   H2Y 6558   5.359   0.419  10.151 -0.0381 -0.8075 -0.1729
   74SLPC   C23 6559   5.331   0.889   9.872  0.7487 -0.0366 -0.3601
   74SLPC   H3R 6560   5.307   0.782   9.852  5.5757 -1.2747 -0.8925
   74SLPC   H3S 6561   5.442   0.882   9.882  0.5962  0.4063  2.6440
   74SLPC   C24 6562   5.287   0.961   9.738 -0.2290  0.0310 -0.2619
   74SLPC   H4R 6563   5.345   1.054   9.717 -1.0598 -0.2469 -4.8516
   74SLPC   H4S 6564   5.182   0.996   9.731 -0.0011  1.6306  2.5618
   74SLPC   C25 6565   5.320   0.867   9.610 -0.2064 -0.1567  0.0141
   74SLPC   H5R 6566   5.274   0.768   9.631 -0.6128  0.3863  1.8928
   74SLPC   H5S 6567   5.431   0.861   9.605 -0.1574 -0.4716  1.0609
   74SLPC   C26 6568   5.279   0.931   9.475  0.0726  0.3714 -0.6253
   74SLPC   H6R 6569   5.345   1.017   9.452  0.6685 -0.1282 -0.7995
   74SLPC   H6S 6570   5.172   0.958   9.486 -0.2332 -1.6538  4.4526
   74SLPC   C27 6571   5.305   0.839   9.351  0.4217 -0.1555 -0.3640
   74SLPC   H7R 6572   5.225   0.763   9.338 -0.2448  0.7777 -1.9781
   74SLPC   H7S 6573   5.399   0.785   9.376  1.2224  1.1002 -0.5789
   74SLPC   C28 6574   5.328   0.916   9.230  0.2670  0.0795  0.4240
   74SLPC   H8R 6575   5.382   0.854   9.155  0.6963  0.1974  0.6316
   74SLPC   H8S 6576   5.396   1.001   9.252 -1.4445  1.8272 -0.8047
   74SLPC   C29 6577   5.204   0.982   9.172 -0.7922 -0.4611 -0.7531
   74SLPC   H9R 6578   5.157   1.052   9.242  0.4868 -0.5804  0.2520
   74SLPC  C210 6579   5.154   0.971   9.049  1.2875  0.0523  0.1022
   74SLPC  H10R 6580   5.060   1.025   9.029  0.0915 -1.6055  0.9309
   74SLPC  C211 6581   5.204   0.891   8.928  0.1921  0.3680 -0.2827
   74SLPC  H11R 6582   5.124   0.820   8.898  0.8400 -1.0752  1.1827
   74SLPC  H11S 6583   5.276   0.811   8.956 -0.0590 -0.6750 -2.4042
   74SLPC  C212 6584   5.264   0.972   8.816 -0.7141  0.3194 -0.4675
   74SLPC  H12R 6585   5.303   1.070   8.849 -0.3794 -0.4441  1.5282
   74SLPC  C213 6586   5.262   0.946   8.690 -0.0250 -0.7583  0.0293
   74SLPC  H13R 6587   5.326   1.000   8.618  1.1260 -0.9003  0.9083
   74SLPC  C214 6588   5.191   0.824   8.633  0.5813 -0.7214  0.1267
   74SLPC  H14R 6589   5.175   0.842   8.524 -1.0284  0.9730  0.6066
   74SLPC  H14S 6590   5.090   0.822   8.678  0.5788  4.5435  0.9113
   74SLPC  C215 6591   5.269   0.701   8.662 -0.4767 -0.7454  0.1343
   74SLPC  H15R 6592   5.198   0.616   8.649  1.3749 -2.6625  1.7818
   74SLPC  H15S 6593   5.301   0.695   8.768 -1.1677 -1.6382  0.3080
   74SLPC  C216 6594   5.386   0.676   8.569 -0.2401 -0.4223 -0.1520
   74SLPC  H16R 6595   5.461   0.756   8.586 -0.3295 -0.1179 -1.1354
   74SLPC  H16S 6596   5.357   0.680   8.462 -0.2894  0.1980 -0.1174
   74SLPC  C217 6597   5.461   0.541   8.590 -0.2195 -0.1178  0.8121
   74SLPC  H17R 6598   5.387   0.461   8.568  0.5610 -0.1118 -2.4200
   74SLPC  H17S 6599   5.485   0.527   8.697  2.7844  0.2478  0.2746
   74SLPC  C218 6600   5.583   0.526   8.495  0.3526 -0.5039 -0.1947
   74SLPC  H18R 6601   5.648   0.614   8.515 -0.7364  0.3707 -0.4478
   74SLPC  H18S 6602   5.547   0.544   8.392  0.6962  0.6893 -0.1145
   74SLPC  H18T 6603   5.632   0.427   8.509 -0.4697 -0.7344  1.2886
   74SLPC   C33 6604   5.247   0.538  10.016 -0.3897  0.8164  0.5171
   74SLPC   H3X 6605   5.330   0.612  10.024  0.3601  0.1521 -0.7875
   74SLPC   H3Y 6606   5.154   0.600  10.018  1.1513  3.4528 -1.5624
   74SLPC   C34 6607   5.251   0.443   9.892 -0.1217  0.0721  0.2205
   74SLPC   H4X 6608   5.174   0.364   9.903  1.0746 -1.0382  0.7845
   74SLPC   H4Y 6609   5.353   0.403   9.904  0.0797  0.6432  0.4464
   74SLPC   C35 6610   5.240   0.517   9.759  0.1276 -0.3287 -0.1096
   74SLPC   H5X 6611   5.306   0.606   9.757  2.1016 -1.6411 -3.9204
   74SLPC   H5Y 6612   5.135   0.548   9.739 -0.7169 -1.5998  1.9842
   74SLPC   C36 6613   5.285   0.427   9.636 -0.1982 -0.1876  0.0756
   74SLPC   H6X 6614   5.215   0.341   9.640 -1.4539  0.8275  0.6909
   74SLPC   H6Y 6615   5.387   0.386   9.646 -0.9677 -2.5676 -1.0841
   74SLPC   C37 6616   5.265   0.483   9.500 -0.2901  0.4253 -0.4725
   74SLPC   H7X 6617   5.330   0.573   9.496  0.9874 -0.5140 -1.7680
   74SLPC   H7Y 6618   5.157   0.509   9.498 -0.2284  0.6464 -1.1906
   74SLPC   C38 6619   5.299   0.395   9.380 -0.1496  0.0176 -0.0036
   74SLPC   H8X 6620   5.232   0.308   9.390  1.4084 -1.0490  2.0900
   74SLPC   H8Y 6621   5.406   0.364   9.390 -0.6514 -1.5365  0.7831
   74SLPC   C39 6622   5.265   0.468   9.250  0.1347 -0.7711 -0.9505
   74SLPC   H9X 6623   5.309   0.570   9.243 -1.1384  0.1103  2.2735
   74SLPC   H9Y 6624   5.155   0.478   9.260  0.3223 -0.2924  1.0919
   74SLPC  C310 6625   5.286   0.381   9.127 -0.3550 -0.0211  0.1162
   74SLPC  H10X 6626   5.231   0.428   9.043  0.6823 -0.7002 -0.9800
   74SLPC  H10Y 6627   5.247   0.279   9.145  2.8396 -1.2517  0.6558
   74SLPC  C311 6628   5.432   0.378   9.084  0.4038  0.2573 -0.1426
   74SLPC  H11X 6629   5.490   0.325   9.162  0.1512 -0.7640 -0.6399
   74SLPC  H11Y 6630   5.481   0.478   9.085 -0.5433  0.7400 -0.9940
   74SLPC  C312 6631   5.448   0.308   8.944 -0.2490 -0.0391  0.1952
   74SLPC  H12X 6632   5.413   0.389   8.876 -1.1351 -0.2708  0.3619
   74SLPC  H12Y 6633   5.377   0.223   8.937 -2.0545  1.3580  0.7381
   74SLPC  C313 6634   5.589   0.255   8.917  0.0160 -0.2337  0.2656
   74SLPC  H13X 6635   5.637   0.176   8.978  3.0715 -0.2581 -1.9057
   74SLPC  H13Y 6636   5.660   0.339   8.934  3.0921 -2.3963 -0.8828
   74SLPC  C314 6637   5.604   0.221   8.761 -0.3063 -0.1819 -0.4735
   74SLPC  H14X 6638   5.691   0.267   8.710  1.4008  0.0355  2.4648
   74SLPC  H14Y 6639   5.514   0.271   8.718 -0.8158 -2.1613 -1.8374
   74SLPC  C315 6640   5.592   0.073   8.736 -0.3364  0.3710  0.0609
   74SLPC  H15X 6641   5.508   0.032   8.797 -0.0542  0.8561  0.7918
   74SLPC  H15Y 6642   5.680   0.032   8.790 -1.2173 -1.9311 -0.1330
   74SLPC  C316 6643   5.604   0.017   8.590 -0.3018 -0.7472  0.8675
   74SLPC  H16X 6644   5.696   0.051   8.540 -0.9498  1.0882  0.8527
   74SLPC  H16Y 6645   5.527   0.063   8.524  0.8602  2.0652  1.3114
   74SLPC  C317 6646   5.618  -0.133   8.579 -0.0587  0.4824  0.6251
   74SLPC  H17X 6647   5.516  -0.168   8.603 -0.3524  1.2091  0.4794
   74SLPC  H17Y 6648   5.697  -0.182   8.639  1.7784 -0.3106 -2.2560
   74SLPC  C318 6649   5.650  -0.180   8.430 -0.4470 -0.5711 -0.0638
   74SLPC  H18X 6650   5.646  -0.291   8.436 -0.8923 -0.5665 -0.2081
   74SLPC  H18Y 6651   5.748  -0.144   8.394 -0.9383 -1.4540 -2.4574
   74SLPC  H18Z 6652   5.583  -0.148   8.348 -0.1651 -0.7553 -0.3681
   75SLPC     N 6653   2.939   4.260   6.431  0.2139  0.5785 -0.2538
   75SLPC   C13 6654   2.813   4.217   6.365 -0.4370 -0.0054 -0.2387
   75SLPC  H13A 6655   2.734   4.202   6.437 -1.1019 -1.0006 -1.1436
   75SLPC  H13B 6656   2.786   4.281   6.282  0.0159  0.2670 -0.1783
   75SLPC  H13C 6657   2.815   4.120   6.318 -0.9886  0.4141 -1.1645
   75SLPC   C14 6658   2.974   4.164   6.548 -0.0916  0.5921  0.7806
   75SLPC  H14A 6659   2.919   4.201   6.633  0.0972  1.9282  0.3460
   75SLPC  H14B 6660   2.962   4.058   6.534  1.8115  0.2348  1.5891
   75SLPC  H14C 6661   3.080   4.168   6.563  0.2018 -1.8747 -0.1568
   75SLPC   C15 6662   2.925   4.395   6.486 -0.0800 -0.1954  0.5050
   75SLPC  H15A 6663   2.822   4.408   6.518  0.0111  0.4285  0.5480
   75SLPC  H15B 6664   2.985   4.412   6.574  0.1480 -1.3209  0.5842
   75SLPC  H15C 6665   2.925   4.469   6.407  1.2340 -1.4378 -0.7282
   75SLPC   C12 6666   3.049   4.249   6.324  0.2034 -0.4334  0.1293
   75SLPC  H12A 6667   3.005   4.306   6.243 -0.7273 -0.5385  0.5492
   75SLPC  H12B 6668   3.051   4.146   6.294 -0.3159 -1.0619  2.1096
   75SLPC   C11 6669   3.192   4.295   6.354  0.1624 -0.2035 -0.5042
   75SLPC  H11A 6670   3.181   4.405   6.360 -1.0185 -0.3768  2.7101
   75SLPC  H11B 6671   3.250   4.270   6.263  0.1937 -0.0161 -0.5348
   75SLPC     P 6672   3.307   4.315   6.585 -0.1675  0.3041 -0.0837
   75SLPC   O13 6673   3.411   4.393   6.525 -0.0330 -0.0121 -0.3126
   75SLPC   O14 6674   3.199   4.380   6.659 -1.0665 -0.0872 -0.4851
   75SLPC   O12 6675   3.250   4.228   6.471 -0.2964 -0.1817  0.7716
   75SLPC   O11 6676   3.367   4.203   6.680  0.0545  0.0269 -0.2569
   75SLPC    C1 6677   3.485   4.121   6.664  0.6267  0.0818 -0.0160
   75SLPC    HA 6678   3.450   4.017   6.649  0.8765 -0.0192  0.1079
   75SLPC    HB 6679   3.539   4.149   6.571 -1.0131  2.4177 -0.3487
   75SLPC    C2 6680   3.581   4.145   6.777  0.2182  0.4430 -0.9415
   75SLPC    HS 6681   3.654   4.062   6.791 -0.4502  0.0283  0.1854
   75SLPC   O21 6682   3.509   4.175   6.900 -0.1105 -0.0191 -0.4046
   75SLPC   C21 6683   3.444   4.071   6.947 -0.1136 -0.1850 -0.2013
   75SLPC   O22 6684   3.470   3.954   6.921  0.8012 -0.1919  0.9083
   75SLPC   C22 6685   3.344   4.126   7.046 -0.4847  0.3574 -0.1175
   75SLPC   H2R 6686   3.398   4.168   7.134 -0.5757 -1.0675  0.6460
   75SLPC   H2S 6687   3.282   4.204   6.997 -0.9711 -0.7166 -1.2784
   75SLPC    C3 6688   3.673   4.267   6.739 -0.7951 -0.1296 -0.6368
   75SLPC    HX 6689   3.604   4.354   6.746 -0.4827  0.4352 -3.3863
   75SLPC    HY 6690   3.717   4.277   6.637  1.1408  1.9422  0.3072
   75SLPC   O31 6691   3.782   4.276   6.838  0.1255  0.0696  0.4060
   75SLPC   C31 6692   3.823   4.397   6.848  0.2178  0.3126 -0.0587
   75SLPC   O32 6693   3.794   4.490   6.771 -0.0804  0.1980  0.4512
   75SLPC   C32 6694   3.915   4.406   6.966 -0.3352 -0.1558  0.0884
   75SLPC   H2X 6695   3.975   4.312   6.976 -2.0130 -1.2371  0.4869
   75SLPC   H2Y 6696   3.855   4.412   7.060 -0.1155  0.3149  0.1992
   75SLPC   C23 6697   3.236   4.027   7.101 -0.2726 -0.3418 -0.0409
   75SLPC   H3R 6698   3.275   3.943   7.163  0.3921 -0.3548 -0.4687
   75SLPC   H3S 6699   3.175   3.978   7.022 -3.5960 -0.5281  2.4173
   75SLPC   C24 6700   3.126   4.105   7.179  0.2801  0.1159 -0.4043
   75SLPC   H4R 6701   3.058   4.031   7.227 -2.0248  1.2556 -1.7157
   75SLPC   H4S 6702   3.070   4.157   7.099 -0.4529 -0.7106 -0.4416
   75SLPC   C25 6703   3.170   4.191   7.294 -0.3658  0.3941  0.1617
   75SLPC   H5R 6704   3.080   4.233   7.344 -0.4020  1.0605 -0.4567
   75SLPC   H5S 6705   3.234   4.278   7.267  2.7924 -0.6493  3.4103
   75SLPC   C26 6706   3.251   4.120   7.401  0.4504  0.5369  0.5986
   75SLPC   H6R 6707   3.359   4.111   7.375 -0.2179 -0.4811 -2.0992
   75SLPC   H6S 6708   3.224   4.012   7.403  3.2184 -0.2147  1.7642
   75SLPC   C27 6709   3.238   4.165   7.545 -0.1098  0.3876 -0.7276
   75SLPC   H7R 6710   3.281   4.091   7.616 -1.5361  1.0299  0.8564
   75SLPC   H7S 6711   3.131   4.170   7.576  0.6102 -0.3100  2.2256
   75SLPC   C28 6712   3.308   4.298   7.568 -0.6169 -0.4183 -0.2890
   75SLPC   H8R 6713   3.261   4.380   7.510 -0.8812  0.5578  1.2606
   75SLPC   H8S 6714   3.409   4.279   7.527  0.2079  1.4389  0.7333
   75SLPC   C29 6715   3.315   4.330   7.708 -0.1480 -0.7624 -0.5318
   75SLPC   H9R 6716   3.228   4.381   7.753  0.8587  0.4262  0.1128
   75SLPC  C210 6717   3.418   4.310   7.790  0.3823  0.3410 -0.0802
   75SLPC  H10R 6718   3.405   4.356   7.889 -1.5523 -3.6348  1.7307
   75SLPC  C211 6719   3.554   4.245   7.770  0.1681  0.0983 -0.4533
   75SLPC  H11R 6720   3.627   4.311   7.822 -3.0077  1.4406  2.7576
   75SLPC  H11S 6721   3.587   4.253   7.664 -0.6883 -1.3135 -0.8518
   75SLPC  C212 6722   3.557   4.098   7.812  0.4876 -0.0741 -0.2659
   75SLPC  H12R 6723   3.557   4.077   7.920 -1.0588 -2.4657 -0.6459
   75SLPC  C213 6724   3.576   3.985   7.738  0.9578  0.3841  0.7122
   75SLPC  H13R 6725   3.554   3.887   7.783  2.8227 -0.9253 -1.0710
   75SLPC  C214 6726   3.597   3.979   7.588  0.2039 -0.2634 -0.6181
   75SLPC  H14R 6727   3.703   3.957   7.563  0.3472  0.4436 -0.6444
   75SLPC  H14S 6728   3.577   4.081   7.549  1.3445  0.2156 -0.0067
   75SLPC  C215 6729   3.505   3.875   7.528  0.8803 -0.3564 -0.2798
   75SLPC  H15R 6730   3.399   3.908   7.537  0.5597 -1.4844  0.2164
   75SLPC  H15S 6731   3.516   3.782   7.587  2.4143 -0.3250 -0.4890
   75SLPC  C216 6732   3.553   3.842   7.388  0.7495 -0.5530  0.1251
   75SLPC  H16R 6733   3.658   3.805   7.391  1.2704  0.8945  1.9631
   75SLPC  H16S 6734   3.555   3.940   7.334 -0.5234  0.2326  1.4419
   75SLPC  C217 6735   3.461   3.748   7.317  1.1763  0.0065  0.0643
   75SLPC  H17R 6736   3.353   3.772   7.326  0.7053 -1.9581  0.0075
   75SLPC  H17S 6737   3.474   3.650   7.368 -1.7522 -0.4843  0.0586
   75SLPC  C218 6738   3.488   3.726   7.167  0.5034 -0.1532  0.3956
   75SLPC  H18R 6739   3.593   3.753   7.141 -0.0714  0.6724 -1.2044
   75SLPC  H18S 6740   3.427   3.799   7.110 -0.6136 -1.5015 -0.1998
   75SLPC  H18T 6741   3.460   3.623   7.137  0.0725 -0.0120  0.2987
   75SLPC   C33 6742   4.012   4.523   6.942 -0.3425  0.0254 -0.1985
   75SLPC   H3X 6743   4.069   4.506   6.848  2.0187 -0.8728  1.3200
   75SLPC   H3Y 6744   3.943   4.610   6.943 -1.2113 -0.6514  1.4182
   75SLPC   C34 6745   4.115   4.527   7.051  0.0586 -0.1228  0.3123
   75SLPC   H4X 6746   4.181   4.615   7.034 -0.0745 -0.3577 -1.6244
   75SLPC   H4Y 6747   4.187   4.442   7.048  1.5440  1.0838  0.7041
   75SLPC   C35 6748   4.056   4.539   7.198 -0.3713 -0.6990  0.5514
   75SLPC   H5X 6749   4.011   4.439   7.217 -0.7126 -0.8512 -0.9348
   75SLPC   H5Y 6750   3.983   4.622   7.196  1.7116  1.3459 -3.0416
   75SLPC   C36 6751   4.156   4.584   7.298 -0.3845 -0.1226  0.1764
   75SLPC   H6X 6752   4.171   4.693   7.280  0.2868 -0.5880 -2.6354
   75SLPC   H6Y 6753   4.253   4.532   7.284  1.0938  2.1584  1.3500
   75SLPC   C37 6754   4.099   4.566   7.432  0.3209  0.0585  0.3331
   75SLPC   H7X 6755   4.045   4.469   7.439  0.1326  0.2807  3.1573
   75SLPC   H7Y 6756   4.016   4.640   7.443 -0.5983 -0.7473 -0.8862
   75SLPC   C38 6757   4.206   4.557   7.550  0.1370 -0.2097  0.8870
   75SLPC   H8X 6758   4.261   4.653   7.537  0.0763 -0.2572  0.2657
   75SLPC   H8Y 6759   4.269   4.468   7.530  0.5853  0.3847 -0.4202
   75SLPC   C39 6760   4.155   4.543   7.686  0.4461  0.1410 -0.2733
   75SLPC   H9X 6761   4.080   4.461   7.686 -0.9576  1.3671 -2.0243
   75SLPC   H9Y 6762   4.088   4.630   7.702 -0.9413 -0.9283 -0.1402
   75SLPC  C310 6763   4.241   4.536   7.811  0.1803 -0.1821 -0.1714
   75SLPC  H10X 6764   4.307   4.625   7.806 -0.4060  0.4553  2.1784
   75SLPC  H10Y 6765   4.313   4.451   7.814  0.0464 -0.3115 -0.5639
   75SLPC  C311 6766   4.166   4.535   7.944  0.4566 -1.0383 -0.3344
   75SLPC  H11X 6767   4.126   4.436   7.974  0.7130 -0.4717  2.0548
   75SLPC  H11Y 6768   4.078   4.601   7.931  0.9605 -0.0454  1.0820
   75SLPC  C312 6769   4.261   4.571   8.059  0.4120  0.0652  0.0049
   75SLPC  H12X 6770   4.314   4.668   8.046 -1.7675  1.5193  1.3668
   75SLPC  H12Y 6771   4.328   4.482   8.056  0.0653 -0.1832 -0.4403
   75SLPC  C313 6772   4.182   4.577   8.196 -0.2402  0.6039 -0.2158
   75SLPC  H13X 6773   4.134   4.478   8.205 -0.0947  0.5222 -0.3487
   75SLPC  H13Y 6774   4.099   4.651   8.188 -0.7568  0.2938  1.7487
   75SLPC  C314 6775   4.275   4.613   8.305 -0.7678 -0.2645 -0.4832
   75SLPC  H14X 6776   4.315   4.715   8.286 -1.4506  0.1665  0.3199
   75SLPC  H14Y 6777   4.364   4.547   8.310 -1.6182 -1.4079  0.0028
   75SLPC  C315 6778   4.210   4.629   8.439  0.1239  0.5450 -0.4801
   75SLPC  H15X 6779   4.123   4.699   8.442 -0.7615 -0.5259 -0.3304
   75SLPC  H15Y 6780   4.292   4.678   8.496 -0.4727  2.3723 -1.1165
   75SLPC  C316 6781   4.177   4.493   8.498  0.1373 -0.6027 -0.0666
   75SLPC  H16X 6782   4.271   4.444   8.533  0.6862  0.0165 -0.6463
   75SLPC  H16Y 6783   4.118   4.431   8.428 -0.0120 -0.4913 -0.0393
   75SLPC  C317 6784   4.095   4.498   8.631 -0.5397  0.3676  0.0205
   75SLPC  H17X 6785   3.991   4.528   8.606 -1.2106 -1.9249 -0.1388
   75SLPC  H17Y 6786   4.150   4.568   8.698  1.1740 -0.3116 -0.6202
   75SLPC  C318 6787   4.075   4.365   8.701 -0.1397 -0.2102  0.2793
   75SLPC  H18X 6788   4.040   4.285   8.632 -1.1182  0.4417 -0.0051
   75SLPC  H18Y 6789   3.998   4.374   8.780 -1.9965  0.8817 -1.5443
   75SLPC  H18Z 6790   4.168   4.322   8.743 -0.1905 -1.1704 -0.5460
   76SLPC     N 6791   5.194   2.555   6.057 -0.4234 -0.5522 -0.3061
   76SLPC   C13 6792   5.056   2.584   6.111  0.2487  0.2032  0.3583
   76SLPC  H13A 6793   5.002   2.498   6.074  0.2498  0.0878  0.6244
   76SLPC  H13B 6794   5.048   2.572   6.218 -2.1744 -1.1073  0.0976
   76SLPC  H13C 6795   5.000   2.668   6.073  1.1423  1.2358  1.2444
   76SLPC   C14 6796   5.276   2.673   6.069  0.7964 -0.6698 -0.5755
   76SLPC  H14A 6797   5.307   2.687   6.172  0.0760 -0.6426 -0.3507
   76SLPC  H14B 6798   5.366   2.670   6.011 -0.3491  0.3942 -2.5075
   76SLPC  H14C 6799   5.221   2.760   6.035  1.3735  0.0327  0.2399
   76SLPC   C15 6800   5.156   2.508   5.921 -1.0271  0.2952 -0.2131
   76SLPC  H15A 6801   5.115   2.410   5.936 -0.2391  0.0018  0.1030
   76SLPC  H15B 6802   5.080   2.572   5.879 -0.2660  0.5265 -1.2903
   76SLPC  H15C 6803   5.242   2.490   5.859 -2.2371 -0.7133 -1.6647
   76SLPC   C12 6804   5.266   2.440   6.126  0.3264 -0.2322  0.6586
   76SLPC  H12A 6805   5.366   2.415   6.095  0.7141 -1.0177  2.4191
   76SLPC  H12B 6806   5.200   2.359   6.098 -1.0607 -0.0676  3.1645
   76SLPC   C11 6807   5.258   2.443   6.282 -0.3186 -0.2708  0.6024
   76SLPC  H11A 6808   5.286   2.344   6.323  3.0931 -0.9996 -2.8730
   76SLPC  H11B 6809   5.150   2.453   6.309 -0.4598  1.8476 -0.5143
   76SLPC     P 6810   5.484   2.540   6.367 -0.0648 -0.4238  0.0393
   76SLPC   O13 6811   5.546   2.444   6.278  0.2752  0.2880  0.3231
   76SLPC   O14 6812   5.545   2.672   6.380 -0.1079  0.3473 -0.0207
   76SLPC   O12 6813   5.330   2.551   6.330  0.0477  0.1080 -0.3091
   76SLPC   O11 6814   5.492   2.474   6.512 -0.3750 -0.1937  1.0869
   76SLPC    C1 6815   5.381   2.459   6.593  0.8314 -0.1329  0.3053
   76SLPC    HA 6816   5.312   2.544   6.579 -0.4458 -1.5291 -2.8667
   76SLPC    HB 6817   5.320   2.369   6.570  0.9746 -0.7579  2.2406
   76SLPC    C2 6818   5.416   2.465   6.744 -0.2986  0.8043 -0.1526
   76SLPC    HS 6819   5.496   2.541   6.761 -0.1835  0.5797  0.3269
   76SLPC   O21 6820   5.462   2.336   6.785 -0.2766 -0.8427  0.6822
   76SLPC   C21 6821   5.544   2.333   6.887 -0.0827  0.3731  0.4205
   76SLPC   O22 6822   5.600   2.426   6.936 -0.2722 -0.1033 -0.1896
   76SLPC   C22 6823   5.550   2.178   6.937 -0.5696  0.6042 -0.2723
   76SLPC   H2R 6824   5.476   2.117   6.882 -1.1879  0.1603  1.0126
   76SLPC   H2S 6825   5.656   2.153   6.915 -0.0462 -0.4437  2.9604
   76SLPC    C3 6826   5.296   2.521   6.830  0.1658 -0.5032 -0.2465
   76SLPC    HX 6827   5.210   2.452   6.817 -0.1345  0.0103 -1.0605
   76SLPC    HY 6828   5.258   2.620   6.797 -2.1313 -0.5121  2.0606
   76SLPC   O31 6829   5.323   2.527   6.973 -0.5895 -0.1737 -0.1592
   76SLPC   C31 6830   5.394   2.635   7.012  0.1163 -0.2349  0.3597
   76SLPC   O32 6831   5.419   2.734   6.944 -0.0861  0.0803  0.0875
   76SLPC   C32 6832   5.416   2.627   7.154  0.0342 -0.2705 -0.1383
   76SLPC   H2X 6833   5.463   2.528   7.173  0.2658 -0.0559  0.4244
   76SLPC   H2Y 6834   5.314   2.647   7.195  0.5877  0.0982  1.1063
   76SLPC   C23 6835   5.541   2.179   7.094 -0.0967 -0.3387  0.9678
   76SLPC   H3R 6836   5.605   2.254   7.146 -0.1127  0.1401  0.3091
   76SLPC   H3S 6837   5.553   2.074   7.130 -2.2953 -0.8196  0.4523
   76SLPC   C24 6838   5.393   2.198   7.139 -0.0359 -0.3843  0.2559
   76SLPC   H4R 6839   5.324   2.147   7.069  1.4461  1.4244 -2.7266
   76SLPC   H4S 6840   5.357   2.303   7.134 -0.2900 -0.4088  1.2496
   76SLPC   C25 6841   5.374   2.158   7.287 -0.0808  0.4365 -0.1825
   76SLPC   H5R 6842   5.436   2.219   7.355  2.1291 -2.1745  0.3325
   76SLPC   H5S 6843   5.418   2.056   7.292 -1.9183 -0.3450  1.1520
   76SLPC   C26 6844   5.227   2.166   7.330 -0.0807  0.2945  0.6224
   76SLPC   H6R 6845   5.170   2.073   7.309 -0.0545 -0.2015  2.5382
   76SLPC   H6S 6846   5.190   2.250   7.268 -1.4422 -0.2818  0.6327
   76SLPC   C27 6847   5.219   2.215   7.471 -0.8133  0.8550  0.5642
   76SLPC   H7R 6848   5.280   2.308   7.479 -0.9313  0.9216  0.6935
   76SLPC   H7S 6849   5.278   2.144   7.533 -2.1526  1.4449  2.6577
   76SLPC   C28 6850   5.077   2.249   7.526  0.3846  0.1867  0.0399
   76SLPC   H8R 6851   5.088   2.297   7.625 -0.8587  1.5745 -0.4546
   76SLPC   H8S 6852   5.033   2.330   7.463  0.4329 -0.0664 -0.3234
   76SLPC   C29 6853   4.991   2.128   7.531  0.0791 -0.0351  0.0550
   76SLPC   H9R 6854   4.993   2.071   7.436  0.5657  0.5236 -0.2787
   76SLPC  C210 6855   4.909   2.087   7.633 -0.6719  1.0159 -0.0030
   76SLPC  H10R 6856   4.836   2.005   7.622 -0.1672 -0.2574  4.4138
   76SLPC  C211 6857   4.899   2.147   7.766  0.0370 -0.0159  0.0703
   76SLPC  H11R 6858   4.792   2.136   7.795 -0.0822 -0.1258 -0.4121
   76SLPC  H11S 6859   4.932   2.253   7.769 -0.1553  0.0275  1.4624
   76SLPC  C212 6860   4.967   2.058   7.870 -0.1708  1.0317  0.4010
   76SLPC  H12R 6861   4.928   1.956   7.870  0.8148  0.5944 -2.0401
   76SLPC  C213 6862   5.074   2.092   7.947  0.3366 -0.2421  0.4261
   76SLPC  H13R 6863   5.082   2.021   8.030 -1.4366 -0.8093  0.1569
   76SLPC  C214 6864   5.154   2.218   7.960  0.0238 -0.4588 -0.1525
   76SLPC  H14R 6865   5.133   2.281   8.049  2.6895  1.2715 -0.6257
   76SLPC  H14S 6866   5.128   2.283   7.874  0.3962 -0.1497 -0.0325
   76SLPC  C215 6867   5.310   2.206   7.955  0.3053 -0.3964  0.7395
   76SLPC  H15R 6868   5.358   2.306   7.939 -0.5268  0.2249  1.9713
   76SLPC  H15S 6869   5.343   2.149   7.866  0.1409 -0.5769  0.7937
   76SLPC  C216 6870   5.363   2.148   8.079  0.3697  0.2293  0.1826
   76SLPC  H16R 6871   5.319   2.049   8.101  3.5826 -1.3153  0.2048
   76SLPC  H16S 6872   5.349   2.220   8.163  0.0067 -0.6035  0.8427
   76SLPC  C217 6873   5.523   2.136   8.068  0.0211 -0.1540  0.6357
   76SLPC  H17R 6874   5.562   2.229   8.021 -0.1828 -0.5612 -0.3451
   76SLPC  H17S 6875   5.543   2.057   7.993 -0.2858  1.7260 -1.5252
   76SLPC  C218 6876   5.588   2.117   8.198  0.3252 -0.3591  0.4287
   76SLPC  H18R 6877   5.597   2.215   8.249  1.2142 -1.0230  1.6275
   76SLPC  H18S 6878   5.691   2.076   8.189  0.0089 -0.7487 -1.9221
   76SLPC  H18T 6879   5.542   2.037   8.260  2.2270 -1.3377  0.6716
   76SLPC   C33 6880   5.512   2.737   7.212 -0.2756 -0.2319  0.0251
   76SLPC   H3X 6881   5.462   2.833   7.185 -0.4152 -0.3670 -0.2010
   76SLPC   H3Y 6882   5.612   2.737   7.164 -0.0227 -3.0592  0.3928
   76SLPC   C34 6883   5.537   2.715   7.365 -0.3459  0.1125 -0.2762
   76SLPC   H4X 6884   5.435   2.726   7.410 -0.5450 -2.2829 -0.0305
   76SLPC   H4Y 6885   5.592   2.800   7.411 -3.0474  0.1578  3.4338
   76SLPC   C35 6886   5.611   2.591   7.411  0.6034 -0.3232  0.7555
   76SLPC   H5X 6887   5.714   2.591   7.368  0.2443  1.0899 -0.1753
   76SLPC   H5Y 6888   5.556   2.502   7.373  1.7741 -0.4893 -0.6475
   76SLPC   C36 6889   5.623   2.586   7.564  0.8787 -0.2103 -0.0567
   76SLPC   H6X 6890   5.529   2.576   7.623 -0.7435 -2.0860 -2.7025
   76SLPC   H6Y 6891   5.673   2.684   7.576  3.1139 -1.1409 -1.1235
   76SLPC   C37 6892   5.705   2.471   7.615  0.6013  0.3275 -0.1240
   76SLPC   H7X 6893   5.799   2.467   7.556 -0.8347 -0.5200 -2.4882
   76SLPC   H7Y 6894   5.657   2.371   7.604  0.6745  0.3151 -0.3371
   76SLPC   C38 6895   5.751   2.491   7.760  0.8011  0.2837 -0.1102
   76SLPC   H8X 6896   5.807   2.586   7.771  1.6640 -0.1027 -1.0131
   76SLPC   H8Y 6897   5.819   2.409   7.792 -0.3036 -0.3854  0.5940
   76SLPC   C39 6898   5.630   2.493   7.860 -0.2166  0.4989  0.2744
   76SLPC   H9X 6899   5.561   2.409   7.840  1.4508 -0.7026 -0.6714
   76SLPC   H9Y 6900   5.572   2.587   7.850 -2.1154 -0.6714 -0.2888
   76SLPC  C310 6901   5.691   2.487   7.999 -0.7083  0.6473  0.0765
   76SLPC  H10X 6902   5.776   2.558   8.010 -0.2234 -0.0900  1.2219
   76SLPC  H10Y 6903   5.731   2.384   8.008 -3.8986 -1.1133 -3.3386
   76SLPC  C311 6904   5.592   2.520   8.113 -0.4783 -0.3421  0.7969
   76SLPC  H11X 6905   5.507   2.449   8.121 -1.0166  0.3251  1.0029
   76SLPC  H11Y 6906   5.540   2.616   8.091 -1.9539 -1.2717  0.0810
   76SLPC  C312 6907   5.664   2.525   8.246 -0.1732 -0.4607  0.6831
   76SLPC  H12X 6908   5.761   2.578   8.235 -0.4809 -0.1331 -0.6282
   76SLPC  H12Y 6909   5.687   2.420   8.274 -1.4180 -0.4178  1.9751
   76SLPC  C313 6910   5.577   2.599   8.350  0.0912 -0.3415 -0.3662
   76SLPC  H13X 6911   5.605   2.560   8.450  1.5955  2.3146  0.3519
   76SLPC  H13Y 6912   5.470   2.577   8.328  0.6421 -1.8015 -1.7860
   76SLPC  C314 6913   5.590   2.745   8.353 -0.7274 -0.8407 -0.4100
   76SLPC  H14X 6914   5.553   2.776   8.252 -0.0306  0.4163 -0.3098
   76SLPC  H14Y 6915   5.695   2.780   8.368 -1.2807  0.9165 -0.3433
   76SLPC  C315 6916   5.506   2.795   8.475  0.0782  0.0744 -0.1771
   76SLPC  H15X 6917   5.575   2.784   8.561  1.1629  1.3143 -0.8589
   76SLPC  H15Y 6918   5.416   2.732   8.493  0.2212  0.4357  2.0313
   76SLPC  C316 6919   5.477   2.951   8.461 -0.1889  1.0605 -0.0983
   76SLPC  H16X 6920   5.387   2.967   8.398 -2.1336  1.7185  2.6695
   76SLPC  H16Y 6921   5.568   3.003   8.424  1.8334 -2.5481 -0.6971
   76SLPC  C317 6922   5.447   3.003   8.604 -0.6195 -0.3586 -0.8217
   76SLPC  H17X 6923   5.551   3.004   8.642 -0.9795  1.4751  0.2551
   76SLPC  H17Y 6924   5.386   2.944   8.676  0.7147 -0.5025  0.2376
   76SLPC  C318 6925   5.382   3.150   8.598  0.4291 -0.7942  0.1360
   76SLPC  H18X 6926   5.279   3.137   8.559  0.6756 -2.0869 -0.1132
   76SLPC  H18Y 6927   5.441   3.225   8.541 -0.7915 -0.3205 -0.5472
   76SLPC  H18Z 6928   5.376   3.188   8.702 -0.9736 -1.1654  0.2095
   77SLPC     N 6929   0.777   1.502   6.209 -0.1686  0.0930 -0.2974
   77SLPC   C13 6930   0.885   1.455   6.299 -0.3335  0.2573  0.4377
   77SLPC  H13A 6931   0.961   1.528   6.324 -1.2351  1.8665 -1.2814
   77SLPC  H13B 6932   0.842   1.425   6.394 -1.4923 -1.9241 -0.7056
   77SLPC  H13C 6933   0.941   1.370   6.264  4.0727  1.8181  2.8490
   77SLPC   C14 6934   0.685   1.381   6.165 -1.1266 -0.1649 -0.0083
   77SLPC  H14A 6935   0.648   1.340   6.257 -0.4647  0.3476  0.4907
   77SLPC  H14B 6936   0.614   1.416   6.092 -0.9682  2.6999  1.0619
   77SLPC  H14C 6937   0.746   1.301   6.125 -4.0020 -3.0242  0.9715
   77SLPC   C15 6938   0.845   1.550   6.081 -0.1416 -0.4808 -0.0208
   77SLPC  H15A 6939   0.894   1.644   6.099  1.5292 -1.5657  1.3758
   77SLPC  H15B 6940   0.919   1.478   6.049 -0.9538 -1.1459 -0.4480
   77SLPC  H15C 6941   0.770   1.547   6.003 -0.3412 -0.5872  0.1719
   77SLPC   C12 6942   0.683   1.610   6.247  0.2474 -0.3037  0.3000
   77SLPC  H12A 6943   0.626   1.638   6.160 -2.1203  0.1084  1.8979
   77SLPC  H12B 6944   0.722   1.705   6.280 -0.0617  0.2053 -0.7794
   77SLPC   C11 6945   0.582   1.579   6.357  0.3075  0.5899  0.1126
   77SLPC  H11A 6946   0.510   1.501   6.322  2.5789 -1.7436  0.2922
   77SLPC  H11B 6947   0.515   1.666   6.373  1.1000  1.0184  1.2679
   77SLPC     P 6948   0.682   1.646   6.588 -0.1060  0.3281 -0.1840
   77SLPC   O13 6949   0.815   1.603   6.646 -0.1132 -0.2599 -0.4599
   77SLPC   O14 6950   0.676   1.782   6.533  0.5433 -0.3934 -0.3125
   77SLPC   O12 6951   0.638   1.538   6.480 -0.1898  0.1894  0.0409
   77SLPC   O11 6952   0.579   1.623   6.691  0.2555  0.1820  0.4005
   77SLPC    C1 6953   0.440   1.657   6.680  0.2577 -0.5369  0.0847
   77SLPC    HA 6954   0.436   1.767   6.690  1.1302 -0.5069  0.1710
   77SLPC    HB 6955   0.399   1.634   6.579 -0.2572  0.6123  0.0122
   77SLPC    C2 6956   0.352   1.578   6.779  0.5595  0.0714 -0.1736
   77SLPC    HS 6957   0.251   1.623   6.774  0.7027  0.5531  0.8575
   77SLPC   O21 6958   0.403   1.591   6.911 -0.2803  0.6412  0.1486
   77SLPC   C21 6959   0.391   1.708   6.966  0.1825 -0.3423  0.2795
   77SLPC   O22 6960   0.324   1.804   6.922  0.1101  0.9119 -0.4163
   77SLPC   C22 6961   0.486   1.708   7.085  0.1229  0.4461  0.1287
   77SLPC   H2R 6962   0.535   1.609   7.100 -1.1304 -0.0789  0.9564
   77SLPC   H2S 6963   0.565   1.782   7.062 -0.0503  0.2497 -1.1939
   77SLPC    C3 6964   0.358   1.425   6.754 -0.3198 -0.7500  0.3471
   77SLPC    HX 6965   0.456   1.382   6.781  0.4210  0.9180  0.4247
   77SLPC    HY 6966   0.352   1.420   6.643  0.0557  0.2478  0.2639
   77SLPC   O31 6967   0.245   1.354   6.808 -0.4990 -0.0683  0.1456
   77SLPC   C31 6968   0.189   1.261   6.730  0.1974 -0.1592  1.0265
   77SLPC   O32 6969   0.211   1.248   6.613  0.2013 -0.0633  0.2750
   77SLPC   C32 6970   0.070   1.204   6.811 -0.4757 -0.0569 -0.1867
   77SLPC   H2X 6971   0.039   1.278   6.888 -0.9899  0.2453 -0.6716
   77SLPC   H2Y 6972   0.099   1.108   6.859  1.7875  0.9579  0.5636
   77SLPC   C23 6973   0.422   1.756   7.216 -0.7902 -0.4204 -0.1798
   77SLPC   H3R 6974   0.369   1.680   7.277 -0.9676 -0.8587 -0.8777
   77SLPC   H3S 6975   0.335   1.822   7.195 -0.2671  0.6097  0.7582
   77SLPC   C24 6976   0.512   1.843   7.304  0.0619  0.4787 -0.3025
   77SLPC   H4R 6977   0.481   1.949   7.313  3.3047  1.4989  0.1864
   77SLPC   H4S 6978   0.619   1.832   7.276 -0.3066  1.2928 -2.1045
   77SLPC   C25 6979   0.497   1.805   7.458 -0.3236 -0.2458  0.6757
   77SLPC   H5R 6980   0.513   1.695   7.465 -1.4206 -0.6024 -1.3996
   77SLPC   H5S 6981   0.401   1.827   7.510 -1.7272 -0.7630 -1.5236
   77SLPC   C26 6982   0.609   1.866   7.543  0.7914 -0.5274 -0.0170
   77SLPC   H6R 6983   0.583   1.974   7.534 -3.6330 -1.4477 -0.9575
   77SLPC   H6S 6984   0.709   1.850   7.498  1.3548 -0.6196  1.2581
   77SLPC   C27 6985   0.595   1.836   7.690  0.2189 -0.3019  0.6252
   77SLPC   H7R 6986   0.619   1.728   7.699  1.1776 -0.1168  0.4023
   77SLPC   H7S 6987   0.491   1.857   7.722 -0.0433  1.0906 -1.0123
   77SLPC   C28 6988   0.700   1.912   7.774 -0.0782 -0.2491 -0.2576
   77SLPC   H8R 6989   0.675   1.896   7.881  0.0981 -0.3367 -0.2276
   77SLPC   H8S 6990   0.673   2.017   7.749 -1.9828 -1.2199 -2.6750
   77SLPC   C29 6991   0.844   1.887   7.749  0.1334 -0.1970 -0.1995
   77SLPC   H9R 6992   0.883   1.950   7.668  1.1627  1.5244  1.5305
   77SLPC  C210 6993   0.926   1.796   7.794 -0.5569  0.4954 -0.5248
   77SLPC  H10R 6994   1.029   1.801   7.755 -0.3200  0.8668  0.1268
   77SLPC  C211 6995   0.885   1.700   7.907 -0.5485 -0.1238 -0.1577
   77SLPC  H11R 6996   0.777   1.680   7.919 -0.5187 -0.0664  0.2283
   77SLPC  H11S 6997   0.924   1.751   7.998 -0.0530 -0.0629 -0.4011
   77SLPC  C212 6998   0.956   1.568   7.901 -0.6534  0.4460 -0.2562
   77SLPC  H12R 6999   1.034   1.553   7.824 -0.5294 -0.3789  0.0193
   77SLPC  C213 7000   0.929   1.473   7.990 -0.4995  0.6847  0.5242
   77SLPC  H13R 7001   0.996   1.386   7.991  0.0577  1.1101  1.3218
   77SLPC  C214 7002   0.837   1.474   8.112 -0.0040  0.4654  0.6797
   77SLPC  H14R 7003   0.780   1.379   8.112  0.9334 -0.1513 -1.1255
   77SLPC  H14S 7004   0.773   1.564   8.097  0.4619  0.6468 -0.3401
   77SLPC  C215 7005   0.911   1.483   8.248  0.3774 -0.5805 -0.4954
   77SLPC  H15R 7006   0.963   1.385   8.252 -0.4537 -1.1201 -2.0721
   77SLPC  H15S 7007   0.836   1.509   8.326  2.8954  1.5029  1.3796
   77SLPC  C216 7008   1.023   1.594   8.257  0.0135 -0.1967 -0.1808
   77SLPC  H16R 7009   0.992   1.679   8.192  1.6311  0.1672 -0.5303
   77SLPC  H16S 7010   1.121   1.549   8.228  0.5815  0.8350  0.0634
   77SLPC  C217 7011   1.045   1.649   8.401  0.7125 -0.2181  0.1016
   77SLPC  H17R 7012   1.095   1.574   8.466  1.3681  0.6937  0.6800
   77SLPC  H17S 7013   0.949   1.675   8.451 -0.4595 -2.1628 -1.0255
   77SLPC  C218 7014   1.113   1.786   8.395  0.0209 -0.2117 -0.4704
   77SLPC  H18R 7015   1.042   1.860   8.351 -0.1190  0.3864  0.7339
   77SLPC  H18S 7016   1.195   1.774   8.320  0.9428 -0.3856  0.5485
   77SLPC  H18T 7017   1.154   1.822   8.492 -2.0403 -1.1077  0.7965
   77SLPC   C33 7018  -0.044   1.192   6.707 -0.2829 -0.8738 -0.3946
   77SLPC   H3X 7019  -0.033   1.118   6.625  2.6033 -0.3419 -0.6098
   77SLPC   H3Y 7020  -0.058   1.290   6.656 -0.2567 -1.2589 -1.1506
   77SLPC   C34 7021  -0.184   1.173   6.774 -0.2309 -0.4378  0.2273
   77SLPC   H4X 7022  -0.265   1.179   6.698 -1.0331  0.8176  1.1348
   77SLPC   H4Y 7023  -0.206   1.262   6.837 -1.4199  0.7937 -1.8149
   77SLPC   C35 7024  -0.204   1.040   6.846  0.0287  0.1187  0.0818
   77SLPC   H5X 7025  -0.144   0.960   6.796 -0.8997  0.1489 -1.1257
   77SLPC   H5Y 7026  -0.311   1.015   6.835 -0.3683  1.2800  1.2070
   77SLPC   C36 7027  -0.182   1.060   6.999  0.4528  0.1471  0.7464
   77SLPC   H6X 7028  -0.216   1.161   7.030 -1.0254 -0.0505 -0.1066
   77SLPC   H6Y 7029  -0.072   1.060   7.010  0.5631 -0.3647 -0.2220
   77SLPC   C37 7030  -0.240   0.954   7.090 -0.0773  0.3479 -0.2952
   77SLPC   H7X 7031  -0.197   0.970   7.191  0.7747 -0.7861 -0.4513
   77SLPC   H7Y 7032  -0.220   0.849   7.058 -2.1995  0.0617 -0.8495
   77SLPC   C38 7033  -0.394   0.955   7.091  0.4579 -0.4089  0.0239
   77SLPC   H8X 7034  -0.429   0.929   6.989  1.1451 -1.6164  0.0666
   77SLPC   H8Y 7035  -0.432   1.058   7.105  1.2684 -0.2632  1.3362
   77SLPC   C39 7036  -0.461   0.851   7.189 -0.0275 -0.4881  0.3041
   77SLPC   H9X 7037  -0.436   0.888   7.291 -1.2807 -0.7334  0.7106
   77SLPC   H9Y 7038  -0.408   0.760   7.155 -1.5731 -0.6791 -1.8272
   77SLPC  C310 7039  -0.617   0.843   7.186  0.0991  0.0385  0.0238
   77SLPC  H10X 7040  -0.652   0.818   7.083  0.4472  0.7349 -0.2700
   77SLPC  H10Y 7041  -0.657   0.944   7.209 -1.5747 -0.3595 -0.9520
   77SLPC  C311 7042  -0.681   0.748   7.294 -0.5792  0.2162  0.3148
   77SLPC  H11X 7043  -0.633   0.757   7.394  0.6839  1.2717 -0.3579
   77SLPC  H11Y 7044  -0.667   0.641   7.268  0.7180  0.7493 -1.3752
   77SLPC  C312 7045  -0.834   0.780   7.299 -0.4223 -0.1948 -0.3257
   77SLPC  H12X 7046  -0.878   0.751   7.200  0.6913  0.9237 -1.1785
   77SLPC  H12Y 7047  -0.854   0.886   7.325 -0.1976 -0.3098  0.3154
   77SLPC  C313 7048  -0.916   0.702   7.407 -0.3077 -0.2931  0.0817
   77SLPC  H13X 7049  -0.900   0.594   7.388 -1.2132 -0.2007 -1.3854
   77SLPC  H13Y 7050  -1.024   0.728   7.397 -0.0091  0.6560 -1.0010
   77SLPC  C314 7051  -0.882   0.747   7.553 -0.1962  0.3451  1.0099
   77SLPC  H14X 7052  -0.895   0.856   7.571  2.0630  0.3180  3.3957
   77SLPC  H14Y 7053  -0.774   0.725   7.569  0.0879  0.0699 -0.9948
   77SLPC  C315 7054  -0.964   0.676   7.660 -0.2765 -0.6596  0.7143
   77SLPC  H15X 7055  -0.936   0.569   7.660 -0.7341 -0.7927  0.1358
   77SLPC  H15Y 7056  -1.070   0.679   7.625 -0.6275  1.4191  1.7677
   77SLPC  C316 7057  -0.943   0.723   7.802 -0.4531  0.1653  0.5365
   77SLPC  H16X 7058  -0.844   0.681   7.828 -1.5386 -2.8052  0.2549
   77SLPC  H16Y 7059  -1.020   0.667   7.860 -1.7032  0.2145 -1.0236
   77SLPC  C317 7060  -0.943   0.868   7.825 -0.3405  0.0184 -0.3794
   77SLPC  H17X 7061  -0.853   0.922   7.787  0.2526 -0.8169 -0.2030
   77SLPC  H17Y 7062  -0.920   0.877   7.933  2.5749 -0.4034 -0.8765
   77SLPC  C318 7063  -1.078   0.941   7.787  0.2309  0.1822  0.1260
   77SLPC  H18X 7064  -1.165   0.893   7.835  0.1823 -0.0498 -0.1925
   77SLPC  H18Y 7065  -1.077   0.919   7.678  1.6819 -0.8046  0.3087
   77SLPC  H18Z 7066  -1.080   1.052   7.786 -3.1659  0.2047  0.6591
   78SLPC     N 7067   2.712   2.799   5.982 -0.1185 -0.0106 -0.5601
   78SLPC   C13 7068   2.577   2.804   5.918  0.1425  0.8548  0.1612
   78SLPC  H13A 7069   2.582   2.784   5.812  0.1203 -0.1681  0.3404
   78SLPC  H13B 7070   2.519   2.720   5.954 -0.1051  0.8253 -0.3037
   78SLPC  H13C 7071   2.534   2.900   5.943  0.0528  0.0098  3.8549
   78SLPC   C14 7072   2.797   2.899   5.918  0.3257 -0.2046 -0.2818
   78SLPC  H14A 7073   2.751   2.997   5.913  1.0924  0.3052  1.7966
   78SLPC  H14B 7074   2.900   2.913   5.946  0.3124 -0.4158 -0.1213
   78SLPC  H14C 7075   2.805   2.875   5.813  0.6532  1.6248 -0.7155
   78SLPC   C15 7076   2.773   2.659   5.966  0.3446 -0.5162  0.2797
   78SLPC  H15A 7077   2.775   2.618   5.866  1.0635  0.6264 -0.1993
   78SLPC  H15B 7078   2.876   2.651   5.999  0.3436 -2.6084 -0.0925
   78SLPC  H15C 7079   2.711   2.593   6.024  0.3935 -1.8387 -1.1140
   78SLPC   C12 7080   2.706   2.831   6.134  0.3146 -0.4418 -0.4387
   78SLPC  H12A 7081   2.625   2.779   6.182  1.4188 -2.0225 -0.1970
   78SLPC  H12B 7082   2.696   2.937   6.150  3.0873 -0.3038  1.0135
   78SLPC   C11 7083   2.824   2.783   6.217 -0.3091 -0.3208 -0.1405
   78SLPC  H11A 7084   2.820   2.841   6.312  0.4243 -0.1303 -0.2221
   78SLPC  H11B 7085   2.910   2.830   6.164 -0.9992  0.3565 -0.6754
   78SLPC     P 7086   2.758   2.549   6.312  0.2341  0.4779 -0.0612
   78SLPC   O13 7087   2.621   2.591   6.274  0.1404 -0.4626  0.0514
   78SLPC   O14 7088   2.789   2.409   6.274 -0.6143 -0.5069  0.3564
   78SLPC   O12 7089   2.854   2.650   6.239  0.0982 -0.3878 -0.5005
   78SLPC   O11 7090   2.777   2.576   6.470 -0.2334 -0.0862  0.4585
   78SLPC    C1 7091   2.906   2.626   6.510  0.2098 -0.3126 -1.0140
   78SLPC    HA 7092   2.949   2.701   6.441  0.5543  0.5382  0.0937
   78SLPC    HB 7093   2.897   2.668   6.613 -1.5444 -2.1579 -0.3612
   78SLPC    C2 7094   3.012   2.513   6.525 -0.4145  0.1414  0.2331
   78SLPC    HS 7095   2.995   2.446   6.439  0.2068  0.4166 -0.1101
   78SLPC   O21 7096   2.995   2.434   6.645  0.0310  0.3379  0.8357
   78SLPC   C21 7097   3.063   2.318   6.646 -0.7161  0.4951  0.1586
   78SLPC   O22 7098   3.122   2.278   6.546  0.1834  0.4219 -0.0046
   78SLPC   C22 7099   3.029   2.241   6.777  0.6488 -0.4685 -0.0097
   78SLPC   H2R 7100   2.991   2.316   6.849 -1.5655 -0.9865 -0.5724
   78SLPC   H2S 7101   2.946   2.169   6.760 -0.6424  0.6389  1.2822
   78SLPC    C3 7102   3.156   2.568   6.510  0.2637 -0.0586  0.2891
   78SLPC    HX 7103   3.153   2.624   6.414 -3.3238 -1.5498 -0.6506
   78SLPC    HY 7104   3.222   2.484   6.479  1.2457  1.8382 -3.2313
   78SLPC   O31 7105   3.206   2.640   6.626  0.3511 -0.0296 -0.4626
   78SLPC   C31 7106   3.209   2.777   6.605  0.2818 -0.6880  0.1572
   78SLPC   O32 7107   3.178   2.831   6.499  0.4684  0.3596  0.6381
   78SLPC   C32 7108   3.255   2.838   6.735 -0.4000 -0.0854 -0.4762
   78SLPC   H2X 7109   3.304   2.760   6.796 -0.4956  0.1461 -0.0987
   78SLPC   H2Y 7110   3.165   2.863   6.796  0.3837  2.5313 -0.2741
   78SLPC   C23 7111   3.154   2.172   6.829  0.0445  0.2982 -0.3774
   78SLPC   H3R 7112   3.233   2.249   6.840 -0.1921  0.2539  2.1079
   78SLPC   H3S 7113   3.191   2.091   6.762  0.7099 -0.6818  1.1158
   78SLPC   C24 7114   3.146   2.105   6.963 -0.3227  0.1663 -0.2694
   78SLPC   H4R 7115   3.053   2.045   6.970 -0.2506 -0.1921 -1.9680
   78SLPC   H4S 7116   3.143   2.176   7.048  0.0429 -0.9772  0.7231
   78SLPC   C25 7117   3.265   2.005   6.985 -0.5569 -0.1169 -0.4847
   78SLPC   H5R 7118   3.256   1.916   6.919  2.4312 -0.2003 -0.9603
   78SLPC   H5S 7119   3.250   1.975   7.091  0.3894  0.5920 -0.1310
   78SLPC   C26 7120   3.406   2.063   6.947 -0.1473  0.2761  0.6902
   78SLPC   H6R 7121   3.446   2.137   7.020  2.6256 -0.4169 -0.0010
   78SLPC   H6S 7122   3.402   2.103   6.844 -3.3927  0.1748  0.6752
   78SLPC   C27 7123   3.522   1.963   6.954  0.1005 -0.5512 -0.2149
   78SLPC   H7R 7124   3.483   1.876   6.897 -3.2401  0.9429 -0.4646
   78SLPC   H7S 7125   3.557   1.928   7.054 -2.1162 -2.1309  0.0984
   78SLPC   C28 7126   3.646   2.027   6.890  0.0537 -0.2580 -0.5746
   78SLPC   H8R 7127   3.657   2.128   6.933 -0.1834  0.0847 -1.2900
   78SLPC   H8S 7128   3.631   2.040   6.780 -0.0819 -0.2872 -0.5608
   78SLPC   C29 7129   3.778   1.953   6.887 -0.1159  0.3888  0.5688
   78SLPC   H9R 7130   3.766   1.843   6.887 -0.4121  0.3502  3.4495
   78SLPC  C210 7131   3.900   2.013   6.889  0.0998  0.1742 -0.4357
   78SLPC  H10R 7132   3.986   1.948   6.867  0.1279  0.6162 -1.7197
   78SLPC  C211 7133   3.925   2.160   6.875 -0.2845  0.3719 -0.2488
   78SLPC  H11R 7134   3.869   2.213   6.955  0.4264 -0.0147  0.5187
   78SLPC  H11S 7135   3.891   2.189   6.773 -0.6523  1.9906  0.3052
   78SLPC  C212 7136   4.075   2.186   6.881  0.7619  0.1409  0.1313
   78SLPC  H12R 7137   4.125   2.165   6.785  2.2119 -1.2510  1.1355
   78SLPC  C213 7138   4.151   2.211   6.989 -0.3694  0.2496 -0.5319
   78SLPC  H13R 7139   4.259   2.219   6.969 -0.5776 -0.8864 -2.3507
   78SLPC  C214 7140   4.092   2.239   7.128 -0.2684 -0.1507  0.3781
   78SLPC  H14R 7141   4.004   2.181   7.162 -0.2898 -0.5891 -0.3841
   78SLPC  H14S 7142   4.077   2.349   7.134  3.6132  0.5692 -0.2119
   78SLPC  C215 7143   4.214   2.204   7.228  0.3180  0.0036 -0.5213
   78SLPC  H15R 7144   4.301   2.265   7.195 -0.3772  0.8674 -0.8091
   78SLPC  H15S 7145   4.237   2.095   7.224  1.1473  0.1006  0.8305
   78SLPC  C216 7146   4.195   2.247   7.374  0.3913  0.4166 -0.0242
   78SLPC  H16R 7147   4.108   2.202   7.427  0.2233  0.3484 -0.3543
   78SLPC  H16S 7148   4.172   2.356   7.382  0.5410  0.3542  1.7280
   78SLPC  C217 7149   4.327   2.224   7.456  0.1046 -0.1466  0.2656
   78SLPC  H17R 7150   4.416   2.276   7.415  0.5105 -1.8608 -1.1576
   78SLPC  H17S 7151   4.360   2.119   7.445  0.3181 -0.2595  1.8008
   78SLPC  C218 7152   4.319   2.261   7.604  0.6746  0.7835  0.0718
   78SLPC  H18R 7153   4.405   2.227   7.665  2.2038 -0.2116 -2.4736
   78SLPC  H18S 7154   4.224   2.216   7.638  1.5791 -0.0791  1.5920
   78SLPC  H18T 7155   4.309   2.372   7.605 -1.9140  0.7293 -3.0513
   78SLPC   C33 7156   3.328   2.974   6.731 -0.2782  0.7723  0.5849
   78SLPC   H3X 7157   3.260   3.039   6.673  0.7334  0.4798 -0.9961
   78SLPC   H3Y 7158   3.427   2.960   6.682 -0.5842 -0.9988  0.4131
   78SLPC   C34 7159   3.351   3.035   6.868  0.0173  0.6252  0.4580
   78SLPC   H4X 7160   3.264   3.099   6.897  0.4702  1.8752 -0.8229
   78SLPC   H4Y 7161   3.430   3.113   6.861  1.8404 -1.1162  0.8835
   78SLPC   C35 7162   3.396   2.933   6.983 -0.6627  0.1512 -0.5587
   78SLPC   H5X 7163   3.492   2.881   6.963 -1.0572 -1.7262  1.9252
   78SLPC   H5Y 7164   3.319   2.853   6.993 -0.6778  0.2598  0.3036
   78SLPC   C36 7165   3.412   2.992   7.118 -0.1445 -0.3653  0.2296
   78SLPC   H6X 7166   3.430   2.928   7.207  0.3946 -0.2665  0.1928
   78SLPC   H6Y 7167   3.319   3.051   7.131  0.0593  0.0162 -0.0243
   78SLPC   C37 7168   3.536   3.086   7.138  0.0620 -0.0934 -0.1179
   78SLPC   H7X 7169   3.528   3.168   7.064  0.8714  1.5056  1.4982
   78SLPC   H7Y 7170   3.632   3.037   7.111 -0.1797  0.4341 -2.1555
   78SLPC   C38 7171   3.546   3.147   7.281  0.1815 -0.2944 -0.4115
   78SLPC   H8X 7172   3.641   3.205   7.284  0.9572 -1.5476  0.1369
   78SLPC   H8Y 7173   3.566   3.064   7.352  1.1017  1.7154  1.8192
   78SLPC   C39 7174   3.415   3.230   7.312  0.3846  0.0718  0.9235
   78SLPC   H9X 7175   3.330   3.158   7.319  1.4778 -1.3386  0.3267
   78SLPC   H9Y 7176   3.409   3.299   7.226  1.4872 -3.0552 -1.9111
   78SLPC  C310 7177   3.436   3.302   7.447  0.5213 -0.7111  0.2838
   78SLPC  H10X 7178   3.351   3.365   7.479 -0.4661 -1.5910 -0.5410
   78SLPC  H10Y 7179   3.535   3.352   7.458  1.5930 -2.8361  0.7524
   78SLPC  C311 7180   3.434   3.197   7.574  0.2628  0.7248  1.0460
   78SLPC  H11X 7181   3.536   3.151   7.574  1.2241  2.6364 -0.9876
   78SLPC  H11Y 7182   3.363   3.114   7.557  1.0388  0.1488  0.4920
   78SLPC  C312 7183   3.412   3.274   7.704  0.0930  0.3853  0.2697
   78SLPC  H12X 7184   3.407   3.207   7.793  0.1139 -1.0018 -0.7414
   78SLPC  H12Y 7185   3.315   3.325   7.684  0.9641  1.9866 -0.0558
   78SLPC  C313 7186   3.513   3.387   7.736  0.3907  0.0910 -0.0640
   78SLPC  H13X 7187   3.506   3.463   7.655  0.6550 -1.1034 -1.2244
   78SLPC  H13Y 7188   3.614   3.342   7.725 -0.7401 -2.4647 -0.5473
   78SLPC  C314 7189   3.487   3.447   7.868  0.6246  0.0172 -0.0354
   78SLPC  H14X 7190   3.578   3.503   7.898  0.8013  0.3226 -1.0989
   78SLPC  H14Y 7191   3.470   3.375   7.951  2.2461  0.9889  1.1975
   78SLPC  C315 7192   3.387   3.567   7.866 -0.4439  0.1581  0.0831
   78SLPC  H15X 7193   3.290   3.550   7.816 -1.0967 -2.7823  2.0606
   78SLPC  H15Y 7194   3.429   3.659   7.820  1.7943  0.3498  2.2139
   78SLPC  C316 7195   3.337   3.587   8.013  0.5294 -0.2137  0.1384
   78SLPC  H16X 7196   3.287   3.498   8.058  0.2884  0.0941  0.4877
   78SLPC  H16Y 7197   3.255   3.662   8.015 -1.3996 -2.2347  0.2501
   78SLPC  C317 7198   3.445   3.643   8.106 -0.3032 -0.3257 -0.2615
   78SLPC  H17X 7199   3.504   3.725   8.058 -2.6953  1.4055 -0.4263
   78SLPC  H17Y 7200   3.503   3.554   8.139 -1.5745 -1.0852 -0.0090
   78SLPC  C318 7201   3.384   3.697   8.232  0.1262 -0.2570 -0.8451
   78SLPC  H18X 7202   3.345   3.618   8.300 -2.7589  0.0166 -2.0543
   78SLPC  H18Y 7203   3.290   3.751   8.210 -2.2200 -3.3926  0.6654
   78SLPC  H18Z 7204   3.443   3.756   8.306 -0.5432 -0.7500  0.1042
   79SLPC     N 7205   1.599   4.147   6.276 -0.1863  0.3380 -0.5621
   79SLPC   C13 7206   1.701   4.212   6.373 -0.0362  0.5973 -0.2382
   79SLPC  H13A 7207   1.677   4.179   6.473  2.2466  0.0332  0.1650
   79SLPC  H13B 7208   1.802   4.181   6.351  0.4553  1.8189  0.2292
   79SLPC  H13C 7209   1.699   4.319   6.358  1.7774  0.3803 -2.6396
   79SLPC   C14 7210   1.620   3.999   6.293 -0.2752  0.3365 -0.5744
   79SLPC  H14A 7211   1.718   3.977   6.252 -0.0609  0.7825 -0.3027
   79SLPC  H14B 7212   1.634   3.968   6.396 -1.1433 -2.0142 -1.0901
   79SLPC  H14C 7213   1.547   3.930   6.253 -2.0127  0.6065  1.8942
   79SLPC   C15 7214   1.640   4.190   6.144  0.3621 -0.4094  0.7100
   79SLPC  H15A 7215   1.582   4.139   6.069 -1.6001  0.5605  1.4879
   79SLPC  H15B 7216   1.632   4.296   6.124 -1.6559 -0.9070 -1.5562
   79SLPC  H15C 7217   1.744   4.171   6.122  0.1688  0.4881 -1.1479
   79SLPC   C12 7218   1.455   4.184   6.303 -0.2903 -0.2006  0.1992
   79SLPC  H12A 7219   1.423   4.164   6.404 -2.7077  1.5360 -0.1257
   79SLPC  H12B 7220   1.400   4.120   6.235  3.2716  0.5383 -3.8021
   79SLPC   C11 7221   1.413   4.325   6.262  0.0311 -0.5974 -0.7188
   79SLPC  H11A 7222   1.305   4.331   6.288  0.4654 -1.1233  1.3801
   79SLPC  H11B 7223   1.405   4.336   6.152  1.1622 -0.9656 -0.8471
   79SLPC     P 7224   1.431   4.463   6.488  0.2327 -0.0132 -0.0981
   79SLPC   O13 7225   1.556   4.485   6.560 -0.3235  0.5158  0.7540
   79SLPC   O14 7226   1.336   4.567   6.500  0.6540 -0.1612  0.0215
   79SLPC   O12 7227   1.474   4.424   6.341 -0.2002 -0.0491 -0.0010
   79SLPC   O11 7228   1.371   4.336   6.541 -0.1645  0.1332  0.0497
   79SLPC    C1 7229   1.234   4.303   6.568  0.0026 -0.1123 -0.2210
   79SLPC    HA 7230   1.179   4.336   6.477  2.1474  3.3863 -0.4280
   79SLPC    HB 7231   1.240   4.193   6.586  4.9188  0.1718  1.4396
   79SLPC    C2 7232   1.174   4.361   6.694 -0.2333  0.2433 -0.6433
   79SLPC    HS 7233   1.163   4.471   6.682 -3.2659  0.0324 -0.4252
   79SLPC   O21 7234   1.268   4.331   6.798  0.4810  0.2109 -0.3760
   79SLPC   C21 7235   1.278   4.432   6.891  1.0157  0.3343 -0.5758
   79SLPC   O22 7236   1.210   4.532   6.884  0.3965 -0.2862  0.1893
   79SLPC   C22 7237   1.363   4.389   7.013 -0.9628 -0.3165  0.3111
   79SLPC   H2R 7238   1.312   4.297   7.049  1.9249 -2.4624 -0.7171
   79SLPC   H2S 7239   1.464   4.370   6.972 -1.1004 -0.1967 -0.0970
   79SLPC    C3 7240   1.037   4.294   6.730 -0.1034  0.4609 -0.2445
   79SLPC    HX 7241   1.060   4.186   6.719  0.9871  0.5691  0.7721
   79SLPC    HY 7242   0.968   4.320   6.647 -0.1443  1.3531  0.0583
   79SLPC   O31 7243   0.990   4.319   6.863 -0.8247 -0.6883  0.0529
   79SLPC   C31 7244   0.923   4.430   6.883 -0.2493 -0.7282  0.2454
   79SLPC   O32 7245   0.909   4.520   6.801 -0.4170 -1.2658  0.4954
   79SLPC   C32 7246   0.837   4.421   7.010  0.4522  0.2926  0.5371
   79SLPC   H2X 7247   0.744   4.366   6.986  1.2573 -0.4878 -0.9427
   79SLPC   H2Y 7248   0.806   4.524   7.037 -1.6287 -0.4398  1.0838
   79SLPC   C23 7249   1.354   4.485   7.131  0.4982 -0.0950 -0.2077
   79SLPC   H3R 7250   1.246   4.506   7.147 -0.0422 -2.2815 -0.6418
   79SLPC   H3S 7251   1.403   4.582   7.114  1.9088 -0.4368  1.5654
   79SLPC   C24 7252   1.410   4.420   7.255  0.4105 -0.1893  0.0236
   79SLPC   H4R 7253   1.520   4.410   7.243  0.2360 -1.9867 -0.3685
   79SLPC   H4S 7254   1.368   4.319   7.272 -2.5072  0.9865  0.4746
   79SLPC   C25 7255   1.374   4.506   7.374 -0.7785  0.1000 -0.2015
   79SLPC   H5R 7256   1.265   4.527   7.380 -0.7010  0.2661  1.1420
   79SLPC   H5S 7257   1.436   4.599   7.368  0.7753 -0.9004 -0.1620
   79SLPC   C26 7258   1.401   4.429   7.505 -0.2370  0.3571  0.4181
   79SLPC   H6R 7259   1.505   4.391   7.504 -0.8489 -1.3879 -1.0935
   79SLPC   H6S 7260   1.324   4.350   7.513 -0.4277  0.2814 -1.6857
   79SLPC   C27 7261   1.379   4.521   7.632 -0.4088  0.0761  0.0804
   79SLPC   H7R 7262   1.279   4.565   7.608 -0.6107 -0.6537 -0.4503
   79SLPC   H7S 7263   1.459   4.597   7.637  0.0070 -0.4037  0.9072
   79SLPC   C28 7264   1.375   4.437   7.762 -0.1079 -0.6863 -0.7105
   79SLPC   H8R 7265   1.400   4.509   7.843 -1.4036 -0.5887 -0.3843
   79SLPC   H8S 7266   1.464   4.372   7.777  0.3369 -0.0410 -0.5171
   79SLPC   C29 7267   1.242   4.372   7.799  0.4345 -0.0970  0.3553
   79SLPC   H9R 7268   1.218   4.269   7.766 -2.1140  1.1316 -2.0281
   79SLPC  C210 7269   1.139   4.438   7.866 -0.1124  0.4543 -0.3276
   79SLPC  H10R 7270   1.047   4.379   7.883 -0.5537  1.1555 -0.2310
   79SLPC  C211 7271   1.140   4.576   7.924  0.2999 -0.2474  0.2077
   79SLPC  H11R 7272   1.038   4.620   7.921  0.7270  0.9876  2.1161
   79SLPC  H11S 7273   1.192   4.647   7.856 -0.7854  0.4181  0.0567
   79SLPC  C212 7274   1.203   4.574   8.061 -0.2463  0.1957  0.0402
   79SLPC  H12R 7275   1.299   4.521   8.067  0.2284  1.0153 -0.2231
   79SLPC  C213 7276   1.162   4.634   8.173  0.3113  0.3201  0.0866
   79SLPC  H13R 7277   1.230   4.619   8.258 -0.3825 -0.4502  0.5120
   79SLPC  C214 7278   1.034   4.712   8.199  0.5144 -0.5260  0.9217
   79SLPC  H14R 7279   0.946   4.656   8.237 -1.5093  1.4892 -0.5158
   79SLPC  H14S 7280   1.006   4.751   8.099  0.9159 -0.7848  0.7083
   79SLPC  C215 7281   1.056   4.833   8.291  0.0466  0.4363 -0.5365
   79SLPC  H15R 7282   1.131   4.900   8.244  0.6777 -0.8152 -1.3427
   79SLPC  H15S 7283   1.108   4.783   8.376  0.2125 -0.1307 -0.9666
   79SLPC  C216 7284   0.931   4.904   8.344  0.8242 -0.3183 -0.2768
   79SLPC  H16R 7285   0.864   4.826   8.385  1.2118 -1.1590 -1.2097
   79SLPC  H16S 7286   0.883   4.960   8.262  0.1369  0.0879  0.3840
   79SLPC  C217 7287   0.961   5.008   8.466 -0.6212  0.3746 -0.4683
   79SLPC  H17R 7288   0.976   4.942   8.554 -1.7141 -0.6559 -1.0273
   79SLPC  H17S 7289   0.880   5.082   8.482 -0.0149  1.2393 -1.3059
   79SLPC  C218 7290   1.084   5.093   8.452  0.5040  0.2990 -0.8070
   79SLPC  H18R 7291   1.172   5.032   8.483  0.3585  0.7441  0.5443
   79SLPC  H18S 7292   1.070   5.181   8.518  1.7830  1.0440 -1.4922
   79SLPC  H18T 7293   1.105   5.135   8.351 -1.0779  0.1211 -1.2257
   79SLPC   C33 7294   0.920   4.353   7.121 -0.1048 -0.6900 -0.4843
   79SLPC   H3X 7295   1.022   4.397   7.133  0.0876 -1.3864  0.5742
   79SLPC   H3Y 7296   0.938   4.246   7.101  0.2913 -1.0362  1.4544
   79SLPC   C34 7297   0.850   4.342   7.259 -0.2345  0.2150 -0.2298
   79SLPC   H4X 7298   0.757   4.283   7.247  0.2840 -0.4490 -1.1688
   79SLPC   H4Y 7299   0.841   4.450   7.286 -1.2502  0.1595 -0.3068
   79SLPC   C35 7300   0.940   4.276   7.365  0.4307 -0.2751  1.0889
   79SLPC   H5X 7301   1.042   4.320   7.364  1.9411 -3.4087  1.9211
   79SLPC   H5Y 7302   0.951   4.170   7.332 -1.1807  0.2944 -1.5440
   79SLPC   C36 7303   0.876   4.284   7.506  0.0608 -0.4355  0.0951
   79SLPC   H6X 7304   0.771   4.248   7.506 -0.5491  1.2491  1.0249
   79SLPC   H6Y 7305   0.861   4.383   7.552  0.3960 -0.6513  0.6812
   79SLPC   C37 7306   0.943   4.181   7.604  0.5475  0.0068  0.1805
   79SLPC   H7X 7307   1.053   4.197   7.601  0.3018  2.2792  1.2428
   79SLPC   H7Y 7308   0.916   4.083   7.559  0.3996 -0.6871  1.7172
   79SLPC   C38 7309   0.883   4.186   7.747  0.0578  0.3249  0.3677
   79SLPC   H8X 7310   0.777   4.155   7.753 -0.0254  0.3997 -0.5899
   79SLPC   H8Y 7311   0.881   4.289   7.789 -0.8220  0.0337  1.0585
   79SLPC   C39 7312   0.957   4.091   7.849 -0.1002 -0.4164  0.1904
   79SLPC   H9X 7313   1.060   4.129   7.864 -0.2212  0.2584 -0.5752
   79SLPC   H9Y 7314   0.968   3.988   7.810  0.0235 -0.0415 -0.7992
   79SLPC  C310 7315   0.895   4.079   7.987  0.1596 -0.0232  1.6563
   79SLPC  H10X 7316   0.799   4.027   7.964  0.6664 -1.0432  1.8122
   79SLPC  H10Y 7317   0.874   4.176   8.037 -0.8915  0.0318  1.1340
   79SLPC  C311 7318   0.968   3.997   8.089  0.4095 -0.5287  0.0918
   79SLPC  H11X 7319   0.990   3.894   8.054  1.5384 -0.4809  0.6033
   79SLPC  H11Y 7320   0.892   3.986   8.170 -0.8118  0.1829 -0.9273
   79SLPC  C312 7321   1.096   4.058   8.144 -0.2533 -0.5234 -0.6653
   79SLPC  H12X 7322   1.178   4.043   8.071 -1.6045 -0.4392 -2.2556
   79SLPC  H12Y 7323   1.120   4.002   8.237  1.3701  2.7493  1.0622
   79SLPC  C313 7324   1.102   4.211   8.190 -0.2514  0.0584 -0.2267
   79SLPC  H13X 7325   1.090   4.265   8.094  2.1319  0.1382 -0.5536
   79SLPC  H13Y 7326   1.198   4.225   8.246 -0.8009  3.2943  0.1005
   79SLPC  C314 7327   0.998   4.255   8.291 -0.4707 -0.1931  0.1457
   79SLPC  H14X 7328   0.894   4.251   8.252 -0.7041  2.5702  0.3341
   79SLPC  H14Y 7329   1.012   4.364   8.305 -2.3216 -0.0915  1.6780
   79SLPC  C315 7330   1.006   4.195   8.427  0.1381  0.7372  0.2661
   79SLPC  H15X 7331   1.111   4.167   8.451 -0.3335 -0.7245  0.7171
   79SLPC  H15Y 7332   0.942   4.105   8.422  0.4796  0.4950  0.2033
   79SLPC  C316 7333   0.974   4.304   8.538  0.3578  0.6137 -0.0157
   79SLPC  H16X 7334   1.046   4.389   8.529  0.7790  0.5495  2.1125
   79SLPC  H16Y 7335   0.984   4.264   8.641 -0.6793 -2.5932 -1.0685
   79SLPC  C317 7336   0.823   4.341   8.526 -0.1915  0.3622 -0.4987
   79SLPC  H17X 7337   0.790   4.363   8.422 -2.9047 -1.6359 -0.1798
   79SLPC  H17Y 7338   0.815   4.428   8.596  2.1569  1.2469 -1.2488
   79SLPC  C318 7339   0.720   4.230   8.552 -0.5541  0.0336  0.1661
   79SLPC  H18X 7340   0.769   4.157   8.619 -0.7106 -1.1599 -0.9850
   79SLPC  H18Y 7341   0.691   4.183   8.455  0.0833  2.3083 -1.1988
   79SLPC  H18Z 7342   0.629   4.275   8.598 -1.5309 -1.7902  0.0929
   80SLPC     N 7343   2.027   1.982   6.428  0.3678  0.3111  0.3704
   80SLPC   C13 7344   2.057   2.059   6.301  0.7613  0.5500 -0.3947
   80SLPC  H13A 7345   2.144   2.122   6.304 -1.1769  3.4214 -0.5088
   80SLPC  H13B 7346   2.068   1.982   6.226  0.9971  0.7694 -0.5872
   80SLPC  H13C 7347   1.978   2.128   6.276  1.3049  0.6278 -2.0260
   80SLPC   C14 7348   1.912   1.895   6.397  0.8071 -0.5142  0.4162
   80SLPC  H14A 7349   1.942   1.812   6.334 -1.2630 -1.2599  0.3297
   80SLPC  H14B 7350   1.873   1.857   6.491 -0.1380 -4.6737 -1.4007
   80SLPC  H14C 7351   1.837   1.953   6.346  1.4668  0.6237  0.7082
   80SLPC   C15 7352   1.991   2.093   6.528  0.1969 -0.1037 -0.7662
   80SLPC  H15A 7353   1.903   2.146   6.494 -1.6086  0.5364  4.0269
   80SLPC  H15B 7354   1.963   2.051   6.624 -0.6348  2.1306  0.0400
   80SLPC  H15C 7355   2.066   2.170   6.536 -0.1537  0.2653 -0.9735
   80SLPC   C12 7356   2.134   1.897   6.483 -0.4983  0.5030  0.2389
   80SLPC  H12A 7357   2.166   1.816   6.418 -0.1490  1.7206 -1.1442
   80SLPC  H12B 7358   2.094   1.842   6.568 -0.0042 -0.1628  0.0555
   80SLPC   C11 7359   2.266   1.957   6.530  0.3412  0.6544 -0.0826
   80SLPC  H11A 7360   2.341   1.876   6.540  0.3733  0.2624 -2.8019
   80SLPC  H11B 7361   2.258   2.007   6.629  2.8858 -0.6766  0.8897
   80SLPC     P 7362   2.409   2.161   6.460  0.1822  0.2628 -0.1774
   80SLPC   O13 7363   2.531   2.122   6.535  0.1324 -0.0272  0.1880
   80SLPC   O14 7364   2.437   2.229   6.333  0.0362 -0.5393  0.0788
   80SLPC   O12 7365   2.325   2.034   6.429  0.6219  0.3884 -0.2127
   80SLPC   O11 7366   2.305   2.240   6.549  0.3446  0.1607 -0.1608
   80SLPC    C1 7367   2.368   2.336   6.638  0.1853  0.1845 -1.0283
   80SLPC    HA 7368   2.446   2.287   6.699 -0.9266  0.0040  0.2944
   80SLPC    HB 7369   2.417   2.418   6.582 -0.3321  1.4202  0.2870
   80SLPC    C2 7370   2.275   2.405   6.746  0.2193 -0.2534 -0.5833
   80SLPC    HS 7371   2.326   2.450   6.834 -3.6300  1.1818  1.1279
   80SLPC   O21 7372   2.175   2.312   6.796  0.7730 -0.1148  0.6048
   80SLPC   C21 7373   2.230   2.210   6.867 -0.6213  0.2099  0.4204
   80SLPC   O22 7374   2.343   2.196   6.907 -0.1451 -0.0261  0.9901
   80SLPC   C22 7375   2.120   2.104   6.887  0.3409  0.0227 -0.0729
   80SLPC   H2R 7376   2.116   2.038   6.798  1.2842  1.1708 -0.9974
   80SLPC   H2S 7377   2.170   2.038   6.961  1.2427  0.4960 -0.2361
   80SLPC    C3 7378   2.186   2.515   6.680 -0.1730 -0.4793  0.1214
   80SLPC    HX 7379   2.151   2.460   6.590 -2.8555  2.0638 -0.5609
   80SLPC    HY 7380   2.259   2.590   6.644  0.1177 -1.6447 -1.8519
   80SLPC   O31 7381   2.065   2.562   6.751  0.2842 -0.1619  0.4909
   80SLPC   C31 7382   2.098   2.635   6.853  0.5260 -0.1506  0.1426
   80SLPC   O32 7383   2.205   2.631   6.909  0.2733  0.5150  0.8403
   80SLPC   C32 7384   1.987   2.730   6.884  0.2419 -0.4171  0.2422
   80SLPC   H2X 7385   1.896   2.685   6.839 -0.3394  0.3167  0.6638
   80SLPC   H2Y 7386   2.008   2.825   6.831  0.5369 -0.5307  0.1507
   80SLPC   C23 7387   1.979   2.159   6.935 -1.0017 -0.5191 -0.0081
   80SLPC   H3R 7388   1.916   2.071   6.909 -0.0911 -0.3670 -3.0772
   80SLPC   H3S 7389   1.940   2.247   6.881 -2.2386 -1.2071 -0.2878
   80SLPC   C24 7390   1.981   2.185   7.087 -0.2086 -0.0698  0.4923
   80SLPC   H4R 7391   2.059   2.130   7.144 -0.6364 -1.2090  0.0127
   80SLPC   H4S 7392   1.882   2.161   7.132 -0.9927  2.8670  0.5917
   80SLPC   C25 7393   2.004   2.337   7.104  0.2844 -0.1307  0.1937
   80SLPC   H5R 7394   1.923   2.390   7.049  0.9738 -0.9362 -1.6776
   80SLPC   H5S 7395   2.103   2.365   7.064 -0.1017 -1.5556 -1.9003
   80SLPC   C26 7396   1.998   2.366   7.256 -0.1381 -0.0772 -0.4317
   80SLPC   H6R 7397   2.026   2.472   7.269 -2.5873  0.8721 -2.1933
   80SLPC   H6S 7398   2.059   2.302   7.323 -0.5727 -0.1274 -0.0769
   80SLPC   C27 7399   1.856   2.349   7.316  0.1021  0.8073  0.7930
   80SLPC   H7R 7400   1.820   2.245   7.327  1.5600 -0.4791 -4.1080
   80SLPC   H7S 7401   1.790   2.392   7.237  1.0746  0.0409 -0.4751
   80SLPC   C28 7402   1.831   2.426   7.452 -0.6388  0.4058 -0.0732
   80SLPC   H8R 7403   1.723   2.423   7.477 -1.2184  0.3237 -2.3623
   80SLPC   H8S 7404   1.866   2.530   7.436  2.3859 -0.4716  0.2855
   80SLPC   C29 7405   1.917   2.362   7.557  0.3942 -0.1915  0.0136
   80SLPC   H9R 7406   2.023   2.352   7.531  0.6626 -1.1736  1.3618
   80SLPC  C210 7407   1.872   2.299   7.670 -0.1507 -0.3139  0.1884
   80SLPC  H10R 7408   1.952   2.258   7.734 -1.1663 -4.4243 -0.9001
   80SLPC  C211 7409   1.728   2.283   7.716  0.2726 -0.0482 -0.9465
   80SLPC  H11R 7410   1.660   2.276   7.628  0.2800 -1.1557 -0.8779
   80SLPC  H11S 7411   1.710   2.383   7.761  1.6469  0.1179 -0.7012
   80SLPC  C212 7412   1.717   2.158   7.801  0.0900 -0.0072  0.3777
   80SLPC  H12R 7413   1.713   2.066   7.741  2.7233  0.8599 -1.3332
   80SLPC  C213 7414   1.698   2.155   7.932  0.3781 -0.3870 -0.5584
   80SLPC  H13R 7415   1.685   2.063   7.990 -1.4839 -0.4642 -1.0349
   80SLPC  C214 7416   1.681   2.271   8.033 -0.2640  0.2908 -0.7295
   80SLPC  H14R 7417   1.614   2.246   8.117  0.4372  0.5037 -0.0913
   80SLPC  H14S 7418   1.638   2.357   7.978 -0.0128 -0.5224 -2.2583
   80SLPC  C215 7419   1.819   2.318   8.096 -0.1747 -0.6475 -0.0468
   80SLPC  H15R 7420   1.881   2.335   8.005 -1.7668 -1.1852 -1.2829
   80SLPC  H15S 7421   1.863   2.227   8.144  0.5379  0.1599  0.8622
   80SLPC  C216 7422   1.816   2.449   8.180  0.5515  0.0570 -0.0364
   80SLPC  H16R 7423   1.758   2.526   8.125 -1.3535 -2.8691 -2.4952
   80SLPC  H16S 7424   1.916   2.497   8.174 -0.4280  2.1419 -0.5882
   80SLPC  C217 7425   1.775   2.428   8.321 -0.4490  0.2543 -0.3884
   80SLPC  H17R 7426   1.846   2.356   8.367  0.7513  0.0891 -2.3971
   80SLPC  H17S 7427   1.676   2.378   8.322 -0.3824  0.0431 -2.0981
   80SLPC  C218 7428   1.785   2.552   8.400  0.2826 -0.1925  0.1784
   80SLPC  H18R 7429   1.890   2.585   8.385  0.8009 -2.3375 -1.5130
   80SLPC  H18S 7430   1.755   2.539   8.506  0.1800 -1.1621  0.0376
   80SLPC  H18T 7431   1.725   2.635   8.356 -0.9964  1.6991  4.8561
   80SLPC   C33 7432   1.958   2.744   7.034 -0.5774  0.0245 -0.3740
   80SLPC   H3X 7433   2.031   2.804   7.092 -1.7308  1.1406 -0.0457
   80SLPC   H3Y 7434   1.956   2.648   7.092 -0.2691 -0.0099 -0.4185
   80SLPC   C34 7435   1.820   2.820   7.064 -0.0914  0.1312 -0.0047
   80SLPC   H4X 7436   1.744   2.739   7.070 -0.5888  0.5778 -0.2076
   80SLPC   H4Y 7437   1.797   2.893   6.983 -0.1401  1.1426  0.9010
   80SLPC   C35 7438   1.828   2.894   7.202  0.1286  0.6435  0.7639
   80SLPC   H5X 7439   1.744   2.967   7.202 -0.8016 -0.2720 -2.4130
   80SLPC   H5Y 7440   1.927   2.944   7.211  1.7523 -1.9747 -1.1446
   80SLPC   C36 7441   1.805   2.799   7.314 -0.3558 -0.3752 -0.3788
   80SLPC   H6X 7442   1.871   2.710   7.310  0.8134  0.1224  3.5076
   80SLPC   H6Y 7443   1.706   2.752   7.328 -0.1264 -0.0672  3.5026
   80SLPC   C37 7444   1.843   2.872   7.448 -0.6393  0.0825  0.2981
   80SLPC   H7X 7445   1.774   2.957   7.466  0.7601  1.2036  0.5401
   80SLPC   H7Y 7446   1.944   2.916   7.457 -0.7020 -0.1174  2.6988
   80SLPC   C38 7447   1.811   2.790   7.576 -0.8873  0.4183 -0.0702
   80SLPC   H8X 7448   1.877   2.700   7.588 -0.2847  1.0846  1.8360
   80SLPC   H8Y 7449   1.707   2.755   7.562  0.0088 -1.2873 -4.7271
   80SLPC   C39 7450   1.831   2.882   7.702  0.3519  0.6226  0.1146
   80SLPC   H9X 7451   1.795   2.985   7.682 -0.1577  0.8579  2.0020
   80SLPC   H9Y 7452   1.938   2.880   7.734  0.5760  1.2492 -0.5544
   80SLPC  C310 7453   1.759   2.827   7.827  0.4832 -0.4870  0.4673
   80SLPC  H10X 7454   1.783   2.720   7.845  0.2490 -0.7977 -0.9504
   80SLPC  H10Y 7455   1.649   2.833   7.814  0.6455 -1.7257 -2.4017
   80SLPC  C311 7456   1.797   2.912   7.960 -0.1007 -0.7321  1.2317
   80SLPC  H11X 7457   1.773   3.020   7.942 -0.5257 -0.4334  3.3863
   80SLPC  H11Y 7458   1.905   2.901   7.984 -0.0112 -1.5814  0.5121
   80SLPC  C312 7459   1.720   2.857   8.081 -0.0534  0.1117 -0.7265
   80SLPC  H12X 7460   1.750   2.751   8.099 -0.3309  0.2278  0.5247
   80SLPC  H12Y 7461   1.612   2.868   8.061  0.1711  0.8222 -1.6358
   80SLPC  C313 7462   1.761   2.925   8.220 -0.2644  0.6777  0.4769
   80SLPC  H13X 7463   1.696   2.869   8.290 -1.8941  1.5721 -0.2852
   80SLPC  H13Y 7464   1.733   3.032   8.226 -2.5137  0.0510  2.4776
   80SLPC  C314 7465   1.909   2.913   8.264  0.0462 -0.3288  0.5461
   80SLPC  H14X 7466   1.958   2.988   8.198  1.1055 -0.2315  1.4227
   80SLPC  H14Y 7467   1.958   2.818   8.232 -1.0019 -0.2224 -1.5488
   80SLPC  C315 7468   1.931   2.952   8.411 -0.4354  0.0785  0.2568
   80SLPC  H15X 7469   1.877   2.884   8.480 -1.0927  1.6377  1.3453
   80SLPC  H15Y 7470   1.907   3.060   8.424  1.6079  0.6089 -0.0080
   80SLPC  C316 7471   2.075   2.937   8.452 -0.2886 -0.5672 -0.6700
   80SLPC  H16X 7472   2.120   2.837   8.438 -0.3851 -0.9281  1.3449
   80SLPC  H16Y 7473   2.090   2.965   8.558 -0.1685  0.7011 -1.0036
   80SLPC  C317 7474   2.172   3.023   8.365  0.0554  0.0261  0.3770
   80SLPC  H17X 7475   2.145   3.130   8.376 -1.0733 -0.2163  0.1026
   80SLPC  H17Y 7476   2.152   3.002   8.257 -1.0569  1.7854  0.2047
   80SLPC  C318 7477   2.319   2.995   8.392  1.1290 -0.2306 -0.7559
   80SLPC  H18X 7478   2.378   3.027   8.304  0.4433 -0.2748 -1.2364
   80SLPC  H18Y 7479   2.321   2.885   8.409 -0.1864 -0.2553 -0.6904
   80SLPC  H18Z 7480   2.366   3.051   8.476  1.3995 -0.6698 -0.6090
   81SAPS     N 7481   2.732   3.533  11.352 -0.4071 -0.1362 -0.0788
   81SAPS   HN1 7482   2.631   3.510  11.350 -0.6952  1.1217 -0.8140
   81SAPS   HN2 7483   2.767   3.449  11.301 -0.9151 -0.3449 -0.0832
   81SAPS   HN3 7484   2.750   3.530  11.454 -1.2200 -0.3284  0.0628
   81SAPS   C12 7485   2.763   3.658  11.293  0.2926  0.6214 -0.1229
   81SAPS  H12A 7486   2.710   3.736  11.345 -0.2734  1.4922 -1.9251
   81SAPS   C13 7487   2.916   3.686  11.312  0.4836 -0.2560 -0.2295
   81SAPS  O13A 7488   2.986   3.631  11.403 -0.0105  0.0917 -0.5647
   81SAPS  O13B 7489   2.953   3.796  11.262 -0.4060 -0.0914 -0.2506
   81SAPS   C11 7490   2.736   3.658  11.137  0.0597 -0.6454  0.0762
   81SAPS  H11A 7491   2.764   3.559  11.094 -1.2973  0.6354 -4.2047
   81SAPS  H11B 7492   2.788   3.739  11.082 -1.0628 -1.3071 -2.0347
   81SAPS     P 7493   2.545   3.747  10.967 -0.2579 -0.0839  0.3389
   81SAPS   O13 7494   2.399   3.783  10.977 -0.4765 -0.3960  0.7810
   81SAPS   O14 7495   2.637   3.857  10.939  0.3641 -0.7212  0.8737
   81SAPS   O12 7496   2.594   3.676  11.100 -0.0629  0.3810  0.2490
   81SAPS   O11 7497   2.569   3.637  10.858 -0.6797  0.0722  0.0677
   81SAPS    C1 7498   2.687   3.633  10.774  0.2442  0.0892 -0.4150
   81SAPS    HA 7499   2.776   3.671  10.829  1.0733 -2.0114 -0.2163
   81SAPS    HB 7500   2.707   3.529  10.742 -1.2483 -0.2405 -0.3345
   81SAPS    C2 7501   2.680   3.721  10.644 -0.0283  0.4531  0.0049
   81SAPS    HS 7502   2.634   3.818  10.674 -0.2163  0.0368  1.1093
   81SAPS   O21 7503   2.606   3.653  10.546 -0.2769  0.1063 -0.2825
   81SAPS   C21 7504   2.527   3.723  10.468 -0.4406  0.0326 -0.1851
   81SAPS   O22 7505   2.494   3.841  10.479 -0.0165  0.0800 -0.2711
   81SAPS   C22 7506   2.484   3.639  10.355 -0.1653 -0.7142  0.2101
   81SAPS   H2R 7507   2.564   3.654  10.279 -0.0324  0.3908  0.5435
   81SAPS   H2S 7508   2.493   3.533  10.388  3.2644 -0.6106  0.0342
   81SAPS    C3 7509   2.825   3.755  10.589  0.0237  0.2530 -0.0357
   81SAPS    HX 7510   2.876   3.656  10.583 -1.3860 -0.5415  0.5216
   81SAPS    HY 7511   2.883   3.806  10.669  0.7768 -1.1673  0.3743
   81SAPS   O31 7512   2.818   3.828  10.463  0.2321 -0.4226 -0.0914
   81SAPS   C31 7513   2.806   3.963  10.474  0.5914  0.9954  0.5150
   81SAPS   O32 7514   2.792   4.027  10.575 -0.2413  0.0596 -0.8848
   81SAPS   C32 7515   2.840   4.022  10.331  0.3949 -0.0078  0.6029
   81SAPS   H2X 7516   2.745   4.024  10.274  1.6003 -0.1988 -1.4929
   81SAPS   H2Y 7517   2.899   3.940  10.285 -0.7819 -0.9412  0.7070
   81SAPS   C23 7518   2.344   3.663  10.288  0.6499 -0.5741 -0.4499
   81SAPS   H3R 7519   2.331   3.771  10.265  2.7252 -0.1109  0.3378
   81SAPS   H3S 7520   2.274   3.636  10.369  0.2682  0.0803 -0.5491
   81SAPS   C24 7521   2.323   3.584  10.156 -0.2957 -0.8864 -0.2432
   81SAPS   H4R 7522   2.347   3.478  10.177  1.1693 -0.6003 -0.3637
   81SAPS   H4S 7523   2.385   3.626  10.074 -1.9036  3.9379  0.6895
   81SAPS   C25 7524   2.180   3.601  10.124 -0.5647  0.3032 -0.1606
   81SAPS   H5R 7525   2.105   3.562  10.194 -4.4225  1.7697 -3.1175
   81SAPS   C26 7526   2.129   3.652  10.002  0.4447  0.3254 -0.4490
   81SAPS   H6R 7527   2.019   3.650   9.995  0.4133 -1.9151 -0.0362
   81SAPS   C27 7528   2.191   3.706   9.881  0.5017  0.5337 -0.0800
   81SAPS   H7R 7529   2.290   3.754   9.896  1.5594 -1.8799  1.4225
   81SAPS   H7S 7530   2.115   3.781   9.852  0.8178  0.3206 -1.5427
   81SAPS   C28 7531   2.224   3.612   9.769  0.4789  0.1356  0.0665
   81SAPS   H8R 7532   2.248   3.509   9.800  1.0556  0.7828  1.8764
   81SAPS   C29 7533   2.233   3.649   9.642 -0.3377 -0.0611 -0.4091
   81SAPS   H9R 7534   2.252   3.570   9.568  1.7786 -0.5401  0.5910
   81SAPS  C210 7535   2.213   3.794   9.615 -0.1470  0.0620  0.1347
   81SAPS  H10R 7536   2.280   3.847   9.686 -1.9050 -0.2591  2.1307
   81SAPS  H10S 7537   2.106   3.822   9.626 -0.0667 -0.2515  1.9541
   81SAPS  C211 7538   2.259   3.804   9.473 -0.1226  0.7769  0.6135
   81SAPS  H11R 7539   2.192   3.765   9.396  0.6965  0.0265  0.2594
   81SAPS  C212 7540   2.369   3.862   9.425  0.0736 -0.4023 -0.7906
   81SAPS  H12R 7541   2.387   3.856   9.316  1.9699  0.0535 -0.5456
   81SAPS  C213 7542   2.473   3.932   9.511  0.7635 -0.0602 -0.5043
   81SAPS  H13R 7543   2.423   3.977   9.599  1.3442 -1.7474  0.7308
   81SAPS  H13S 7544   2.525   4.007   9.447  2.9024 -1.2890 -0.3263
   81SAPS  C214 7545   2.573   3.843   9.579 -0.1418  0.5534 -0.2208
   81SAPS  H14R 7546   2.535   3.747   9.616  2.4618 -0.9418 -1.2028
   81SAPS  C215 7547   2.703   3.860   9.591 -0.7670 -0.3212 -0.3074
   81SAPS  H15R 7548   2.774   3.787   9.635 -0.4302  0.1095 -0.1276
   81SAPS  C216 7549   2.791   3.974   9.539  0.3730 -0.0003 -0.0301
   81SAPS  H16R 7550   2.853   4.000   9.628  0.8860  0.8872 -0.6421
   81SAPS  H16S 7551   2.732   4.065   9.514  0.0313 -0.4949 -1.0638
   81SAPS  C217 7552   2.871   3.945   9.412  0.8728 -0.2306 -0.2103
   81SAPS  H17R 7553   2.928   3.850   9.418  2.1561  0.3227 -2.5547
   81SAPS  H17S 7554   2.953   4.018   9.392 -0.7891  1.6986 -0.2830
   81SAPS  C218 7555   2.794   3.944   9.278 -0.3314 -0.1950 -0.6460
   81SAPS  H18R 7556   2.754   4.044   9.252 -0.0930  0.3238  0.8404
   81SAPS  H18S 7557   2.704   3.880   9.288 -1.2243  1.0646 -0.4690
   81SAPS  C219 7558   2.887   3.901   9.159 -0.2742 -0.5112 -0.8677
   81SAPS  H19R 7559   2.915   3.798   9.191 -1.3681 -0.3826  0.6009
   81SAPS  H19S 7560   2.977   3.966   9.153 -0.4872 -0.1087  0.0717
   81SAPS  C220 7561   2.813   3.888   9.031  0.1994  0.1741  0.2298
   81SAPS  H20R 7562   2.867   3.838   8.948 -3.1901 -0.0327 -2.0545
   81SAPS  H20S 7563   2.766   3.975   8.979  0.1987 -0.2393 -0.4760
   81SAPS  H20T 7564   2.729   3.820   9.057  0.5773  0.3863  2.1696
   81SAPS   C33 7565   2.920   4.152  10.336  0.0014 -0.5620  0.7897
   81SAPS   H3X 7566   3.012   4.128  10.393  0.6915  0.2872  0.0642
   81SAPS   H3Y 7567   2.866   4.235  10.386 -0.5029  0.4043 -1.2656
   81SAPS   C34 7568   2.971   4.209  10.203 -0.1587 -0.3263  0.5398
   81SAPS   H4X 7569   3.024   4.306  10.215 -0.3710 -0.3726  2.0348
   81SAPS   H4Y 7570   2.886   4.234  10.136  1.9381  0.5764 -1.9543
   81SAPS   C35 7571   3.067   4.110  10.134 -0.3021 -0.4973 -0.5214
   81SAPS   H5X 7572   3.076   4.124  10.024 -0.1969 -0.4195 -0.5032
   81SAPS   H5Y 7573   3.032   4.008  10.159 -0.2418 -0.4341 -0.1650
   81SAPS   C36 7574   3.217   4.126  10.180  0.8292 -0.1430 -0.3124
   81SAPS   H6X 7575   3.226   4.129  10.290 -1.6514 -0.3293 -0.0566
   81SAPS   H6Y 7576   3.247   4.229  10.148  0.9002 -0.6764 -2.0763
   81SAPS   C37 7577   3.315   4.026  10.125 -0.4991 -0.3878 -0.2407
   81SAPS   H7X 7578   3.301   4.014  10.016  1.2270 -1.1082 -0.4090
   81SAPS   H7Y 7579   3.289   3.930  10.175  0.0266  0.0540  0.9256
   81SAPS   C38 7580   3.459   4.065  10.160 -0.2987 -0.3551 -0.7564
   81SAPS   H8X 7581   3.471   4.080  10.269  2.4560 -2.3268 -0.6752
   81SAPS   H8Y 7582   3.490   4.162  10.115  1.4135 -0.1929  0.6330
   81SAPS   C39 7583   3.556   3.965  10.089  0.3193  0.1636  0.4055
   81SAPS   H9X 7584   3.526   3.982   9.984 -2.0559 -1.1233  0.8042
   81SAPS   H9Y 7585   3.538   3.857  10.109 -2.7888  0.5877  0.3713
   81SAPS  C310 7586   3.703   4.010  10.111 -0.5868  0.2314  0.2167
   81SAPS  H10X 7587   3.701   4.107  10.166 -1.0799  0.8070 -0.7732
   81SAPS  H10Y 7588   3.750   4.039  10.015  0.3112  2.0761  1.1560
   81SAPS  C311 7589   3.799   3.908  10.178  0.5602  0.4176  0.4927
   81SAPS  H11X 7590   3.742   3.875  10.268  0.9114  1.1896  1.0015
   81SAPS  H11Y 7591   3.887   3.963  10.217  1.5073 -1.2515  0.8305
   81SAPS  C312 7592   3.845   3.789  10.095 -1.0561 -0.2507 -0.4823
   81SAPS  H12X 7593   3.761   3.725  10.061 -2.3378  0.1171  1.7695
   81SAPS  H12Y 7594   3.907   3.743  10.175 -0.0523  2.1508  0.2230
   81SAPS  C313 7595   3.931   3.816   9.969 -0.4174 -0.1317  0.1824
   81SAPS  H13X 7596   4.023   3.868  10.004 -0.3777  0.3331 -0.5852
   81SAPS  H13Y 7597   3.892   3.884   9.890  0.9588 -0.2411 -0.6338
   81SAPS  C314 7598   3.980   3.684   9.913 -0.7131 -0.0430  0.5969
   81SAPS  H14X 7599   3.892   3.627   9.875 -0.9884  1.0418 -0.4271
   81SAPS  H14Y 7600   4.028   3.620   9.991  1.8618  0.1731 -0.7065
   81SAPS  C315 7601   4.081   3.707   9.800  0.2021 -0.0403 -0.1118
   81SAPS  H15X 7602   4.186   3.723   9.834  0.1494  0.0352  0.0140
   81SAPS  H15Y 7603   4.048   3.798   9.745  2.3557 -0.4640 -2.2991
   81SAPS  C316 7604   4.097   3.587   9.704  0.3942  0.2305  0.6428
   81SAPS  H16X 7605   4.004   3.588   9.642  0.9129 -0.1956 -0.1642
   81SAPS  H16Y 7606   4.102   3.493   9.762 -1.2060  1.5601  3.1168
   81SAPS  C317 7607   4.223   3.599   9.609 -0.9220  0.7688  0.4793
   81SAPS  H17X 7608   4.309   3.586   9.679 -0.0616 -1.2003 -0.8593
   81SAPS  H17Y 7609   4.237   3.704   9.574  2.4152  0.7276  1.3323
   81SAPS  C318 7610   4.231   3.494   9.503 -0.5431 -0.0208  0.4915
   81SAPS  H18X 7611   4.144   3.497   9.434  0.6196 -1.0573 -1.0601
   81SAPS  H18Y 7612   4.238   3.391   9.544  1.5435 -0.5069 -0.9174
   81SAPS  H18Z 7613   4.321   3.511   9.441  1.3865 -1.1372  2.8031
   82SAPS     N 7614   6.586   3.788  11.229 -0.1692  0.3129  0.7153
   82SAPS   HN1 7615   6.593   3.685  11.222  0.0557  0.2976  1.1939
   82SAPS   HN2 7616   6.672   3.825  11.274 -0.4818  2.0883 -0.0644
   82SAPS   HN3 7617   6.502   3.815  11.285 -2.1682 -1.4392 -1.2189
   82SAPS   C12 7618   6.582   3.854  11.098 -0.0991 -0.3118  0.5365
   82SAPS  H12A 7619   6.541   3.784  11.027  0.8475  1.4710 -1.9040
   82SAPS   C13 7620   6.488   3.984  11.102  0.5596  0.2499  0.2238
   82SAPS  O13A 7621   6.422   4.008  11.208  0.1631  0.1352 -0.4935
   82SAPS  O13B 7622   6.436   4.029  10.991 -0.8904  0.5027 -0.0596
   82SAPS   C11 7623   6.722   3.890  11.059 -0.7417  0.6061 -0.0435
   82SAPS  H11A 7624   6.772   3.954  11.134 -0.7726 -0.3799  0.8313
   82SAPS  H11B 7625   6.730   3.933  10.957  0.6055 -1.2143 -0.7580
   82SAPS     P 7626   6.967   3.785  11.028  0.2996  0.1090 -0.2164
   82SAPS   O13 7627   7.011   3.917  11.072  0.1942  0.2981 -0.3215
   82SAPS   O14 7628   7.037   3.664  11.078 -0.1469  0.4074  0.6360
   82SAPS   O12 7629   6.805   3.770  11.048  0.5024  0.2754  0.2284
   82SAPS   O11 7630   6.978   3.779  10.872 -0.2119 -0.0694  0.3198
   82SAPS    C1 7631   6.877   3.719  10.794  0.4120 -0.2879  0.1555
   82SAPS    HA 7632   6.775   3.711  10.838  0.6168 -1.2730  0.4814
   82SAPS    HB 7633   6.869   3.771  10.696 -2.2153  1.4516  1.1909
   82SAPS    C2 7634   6.912   3.579  10.743  0.0099  0.6299 -0.3990
   82SAPS    HS 7635   6.932   3.523  10.837 -1.1449 -1.6477 -1.4289
   82SAPS   O21 7636   7.046   3.590  10.678  0.1367  0.0874 -0.2013
   82SAPS   C21 7637   7.118   3.480  10.678 -0.2964  0.1939 -0.3773
   82SAPS   O22 7638   7.095   3.372  10.729  0.1504  0.0010 -0.6898
   82SAPS   C22 7639   7.238   3.512  10.597 -0.4062 -0.6726 -0.1794
   82SAPS   H2R 7640   7.281   3.612  10.620  0.1690 -0.2994 -2.5824
   82SAPS   H2S 7641   7.323   3.443  10.615  0.4221  0.8101  2.0108
   82SAPS    C3 7642   6.807   3.504  10.652 -0.2046 -0.1898  0.2857
   82SAPS    HX 7643   6.709   3.494  10.703 -0.7220 -0.1593 -0.6614
   82SAPS    HY 7644   6.861   3.408  10.635  3.4218  1.8890 -1.0426
   82SAPS   O31 7645   6.796   3.580  10.530  0.1125  0.1447 -0.3454
   82SAPS   C31 7646   6.832   3.521  10.418 -0.9080  0.1054 -0.4812
   82SAPS   O32 7647   6.850   3.402  10.406 -0.2465  0.1546 -0.1245
   82SAPS   C32 7648   6.819   3.621  10.311 -0.1112  0.5537  0.2609
   82SAPS   H2X 7649   6.802   3.721  10.356  0.9240  0.1073  1.7109
   82SAPS   H2Y 7650   6.721   3.596  10.264 -0.2422  2.8199 -0.8196
   82SAPS   C23 7651   7.223   3.517  10.446  0.5291 -0.3345 -0.0385
   82SAPS   H3R 7652   7.134   3.580  10.424  0.8622  0.3685  0.6227
   82SAPS   H3S 7653   7.216   3.415  10.402  0.9182 -0.9792  1.3651
   82SAPS   C24 7654   7.351   3.574  10.374  0.3682  0.2703  0.6313
   82SAPS   H4R 7655   7.353   3.525  10.274  1.7970 -0.9546  1.2301
   82SAPS   H4S 7656   7.444   3.536  10.421 -0.7787 -0.4236  2.4291
   82SAPS   C25 7657   7.352   3.720  10.370  0.5742  0.3062  0.7519
   82SAPS   H5R 7658   7.341   3.773  10.465  0.8720  2.7617 -0.4848
   82SAPS   C26 7659   7.372   3.806  10.270  0.2403  0.1878  0.1033
   82SAPS   H6R 7660   7.384   3.914  10.287  3.3812  0.3396 -2.2279
   82SAPS   C27 7661   7.397   3.775  10.128  0.1935  1.0530  0.4060
   82SAPS   H7R 7662   7.411   3.870  10.074 -0.1113  1.2180  0.6097
   82SAPS   H7S 7663   7.303   3.742  10.079  1.9359  0.2036 -2.5657
   82SAPS   C28 7664   7.509   3.681  10.091 -0.7874 -0.0690 -0.9590
   82SAPS   H8R 7665   7.574   3.638  10.169 -0.5026 -1.4834 -1.9409
   82SAPS   C29 7666   7.536   3.641   9.966  0.3478  0.4686  0.6217
   82SAPS   H9R 7667   7.613   3.569   9.934 -0.6623 -0.8158  0.9608
   82SAPS  C210 7668   7.454   3.696   9.847 -0.2279 -0.5807 -0.5653
   82SAPS  H10R 7669   7.424   3.803   9.853 -1.1201 -0.8752  0.4123
   82SAPS  H10S 7670   7.358   3.640   9.854 -0.5553  0.1175  0.7402
   82SAPS  C211 7671   7.511   3.672   9.710 -0.4702 -0.4564 -0.3255
   82SAPS  H11R 7672   7.559   3.573   9.704  0.3345 -0.1940  1.2821
   82SAPS  C212 7673   7.500   3.755   9.601 -0.1892  0.2822  0.0669
   82SAPS  H12R 7674   7.528   3.707   9.506 -1.3211 -0.5466  0.1201
   82SAPS  C213 7675   7.426   3.883   9.586 -0.3227 -0.1367  0.1396
   82SAPS  H13R 7676   7.378   3.919   9.680 -0.5007 -1.4489  0.5623
   82SAPS  H13S 7677   7.342   3.878   9.513  0.0946 -2.6130 -0.2373
   82SAPS  C214 7678   7.534   3.981   9.539 -0.3399 -0.6735  0.7110
   82SAPS  H14R 7679   7.581   4.030   9.626 -2.7247  1.0684  1.1443
   82SAPS  C215 7680   7.554   4.023   9.411 -0.8602  0.9355  0.2622
   82SAPS  H15R 7681   7.639   4.089   9.388 -0.0358  1.2778  3.7810
   82SAPS  C216 7682   7.482   3.977   9.282 -0.0871  0.2194 -0.9179
   82SAPS  H16R 7683   7.426   4.057   9.227  0.3511  2.3649  1.5230
   82SAPS  H16S 7684   7.411   3.892   9.285 -1.4820  1.3452 -0.8032
   82SAPS  C217 7685   7.588   3.941   9.177 -0.3735  0.6627 -0.1358
   82SAPS  H17R 7686   7.639   3.853   9.223 -0.0020  0.5174 -0.8072
   82SAPS  H17S 7687   7.659   4.025   9.160 -1.9419  2.2162  0.7359
   82SAPS  C218 7688   7.531   3.906   9.035  0.2933  0.5967  0.2465
   82SAPS  H18R 7689   7.482   3.806   9.043  1.7881 -0.4246 -2.2162
   82SAPS  H18S 7690   7.610   3.874   8.964  0.2749  0.9401  0.0685
   82SAPS  C219 7691   7.443   4.011   8.971  0.9161 -0.1925 -0.3440
   82SAPS  H19R 7692   7.341   4.011   9.016  0.8629  1.0203 -0.4288
   82SAPS  H19S 7693   7.414   3.973   8.871 -1.9328  0.1084  0.2954
   82SAPS  C220 7694   7.515   4.149   8.968 -0.5804  0.0793  0.2428
   82SAPS  H20R 7695   7.599   4.140   8.896 -0.7074 -2.5404  0.3468
   82SAPS  H20S 7696   7.552   4.178   9.068  0.4169 -0.1912 -0.0348
   82SAPS  H20T 7697   7.446   4.225   8.926 -2.5445 -2.3969 -1.3259
   82SAPS   C33 7698   6.944   3.625  10.221  0.5819  0.2884 -0.7506
   82SAPS   H3X 7699   6.988   3.524  10.203  1.1707  0.4039 -0.0246
   82SAPS   H3Y 7700   7.013   3.695  10.273  0.0139 -0.2067  0.7534
   82SAPS   C34 7701   6.906   3.682  10.081  0.6371 -0.6648  0.0230
   82SAPS   H4X 7702   6.873   3.787  10.100 -1.2616 -1.1672 -0.3182
   82SAPS   H4Y 7703   6.818   3.630  10.038 -0.3187  0.3519  0.6897
   82SAPS   C35 7704   7.009   3.656   9.974 -0.5599  1.0226  0.0793
   82SAPS   H5X 7705   7.017   3.546   9.967  1.3159  1.0685  0.7674
   82SAPS   H5Y 7706   7.107   3.700  10.004 -0.8456  1.3874  0.5062
   82SAPS   C36 7707   6.974   3.722   9.841  0.1269 -0.9874 -0.3886
   82SAPS   H6X 7708   6.866   3.729   9.815  0.8211 -1.1888 -3.7890
   82SAPS   H6Y 7709   7.025   3.662   9.763  2.3661  2.0692 -1.4733
   82SAPS   C37 7710   7.030   3.864   9.832 -0.2172  0.4042  1.1506
   82SAPS   H7X 7711   7.140   3.856   9.841 -0.4350 -2.3646  2.1644
   82SAPS   H7Y 7712   6.990   3.931   9.911 -3.2602  1.3861 -1.0246
   82SAPS   C38 7713   6.977   3.925   9.697 -0.0952 -0.7787 -0.2485
   82SAPS   H8X 7714   6.871   3.955   9.711  0.3033  0.1791  0.9090
   82SAPS   H8Y 7715   6.993   3.837   9.631  3.8362 -1.9185  1.8840
   82SAPS   C39 7716   7.060   4.046   9.651  0.2808 -0.1663 -0.2221
   82SAPS   H9X 7717   7.168   4.020   9.644  0.3757 -0.0593  0.8151
   82SAPS   H9Y 7718   7.057   4.126   9.728  1.6598  1.9013 -2.1561
   82SAPS  C310 7719   7.021   4.100   9.514  0.2358  0.1903  0.3415
   82SAPS  H10X 7720   7.100   4.169   9.477 -0.8594  1.0811 -0.4294
   82SAPS  H10Y 7721   6.924   4.150   9.533  0.4967  0.5272  0.8245
   82SAPS  C311 7722   7.003   3.998   9.393 -0.0397  0.3386 -0.2463
   82SAPS  H11X 7723   6.931   3.917   9.419 -1.2550  0.7234 -2.2349
   82SAPS  H11Y 7724   7.101   3.948   9.376  0.7396  1.0274  1.8602
   82SAPS  C312 7725   6.951   4.079   9.275 -0.1661  0.0627  0.9086
   82SAPS  H12X 7726   6.871   4.148   9.308  0.1342  0.9553 -0.1790
   82SAPS  H12Y 7727   6.884   4.011   9.218  1.6439 -1.2688  0.2716
   82SAPS  C313 7728   7.059   4.127   9.179  0.2000  0.1731 -0.1170
   82SAPS  H13X 7729   7.109   4.038   9.137  1.1327  0.3688  0.5226
   82SAPS  H13Y 7730   7.133   4.179   9.245  0.9186 -1.5332  0.4620
   82SAPS  C314 7731   7.009   4.213   9.064 -0.4001  0.1727  0.7548
   82SAPS  H14X 7732   6.987   4.311   9.111 -0.4479  0.1301  0.8193
   82SAPS  H14Y 7733   6.906   4.177   9.042  0.6689 -2.5013 -0.2623
   82SAPS  C315 7734   7.099   4.224   8.943 -0.1528  0.0520  0.6238
   82SAPS  H15X 7735   7.128   4.133   8.886 -0.8208  0.2036  0.0201
   82SAPS  H15Y 7736   7.193   4.279   8.968 -1.4202  2.4250  0.4919
   82SAPS  C316 7737   7.035   4.315   8.839 -0.2450 -0.0279  0.4475
   82SAPS  H16X 7738   7.008   4.408   8.893 -3.2048 -0.9995  0.8366
   82SAPS  H16Y 7739   6.942   4.272   8.797  0.6546 -0.7900 -0.8256
   82SAPS  C317 7740   7.126   4.324   8.720 -0.2614  0.1143 -0.2566
   82SAPS  H17X 7741   7.145   4.225   8.673 -0.5551  1.2165 -2.8777
   82SAPS  H17Y 7742   7.218   4.367   8.765 -0.5036 -0.8618  1.2441
   82SAPS  C318 7743   7.092   4.425   8.604  0.0374 -0.2651 -0.0155
   82SAPS  H18X 7744   6.992   4.414   8.556 -0.8693  3.0565  0.8399
   82SAPS  H18Y 7745   7.172   4.430   8.527 -0.3677 -1.6798 -0.5597
   82SAPS  H18Z 7746   7.098   4.526   8.651  0.0588 -0.7339  1.0043
   83SAPS     N 7747   2.916   4.055  11.149  0.0676 -0.2202 -0.6445
   83SAPS   HN1 7748   2.909   3.963  11.198 -1.1066  0.0859 -0.1969
   83SAPS   HN2 7749   2.816   4.083  11.141 -0.1549 -1.3630 -2.9151
   83SAPS   HN3 7750   2.953   4.059  11.052 -0.7223  1.5087 -0.9134
   83SAPS   C12 7751   2.991   4.143  11.243  0.9803 -0.6545 -0.1623
   83SAPS  H12A 7752   2.985   4.239  11.194 -4.3235  0.4185  1.9321
   83SAPS   C13 7753   2.938   4.155  11.385  0.0235 -0.0026 -0.0229
   83SAPS  O13A 7754   2.823   4.109  11.401  0.3538  0.4298 -0.4950
   83SAPS  O13B 7755   3.001   4.224  11.468  0.4851  0.1493 -0.1747
   83SAPS   C11 7756   3.134   4.092  11.258 -0.6438 -0.5686  0.1140
   83SAPS  H11A 7757   3.134   4.001  11.322 -1.2345 -0.6557 -0.0019
   83SAPS  H11B 7758   3.194   4.174  11.304 -0.6026  0.5011 -1.7504
   83SAPS     P 7759   3.350   4.042  11.138  0.0726  0.1879  0.3407
   83SAPS   O13 7760   3.412   4.135  11.232  0.1137 -0.1236 -0.3204
   83SAPS   O14 7761   3.365   3.896  11.159  0.0564  0.4097 -0.0679
   83SAPS   O12 7762   3.191   4.071  11.130  0.0358  0.9033  0.0478
   83SAPS   O11 7763   3.386   4.083  10.991 -0.0361  0.5373  0.2221
   83SAPS    C1 7764   3.305   4.037  10.873  0.2388  0.4071 -0.1782
   83SAPS    HA 7765   3.249   3.943  10.892  2.1617 -0.4430  1.6926
   83SAPS    HB 7766   3.231   4.112  10.838  0.0667  0.7308  0.8472
   83SAPS    C2 7767   3.396   3.990  10.753  0.0875  0.4462  0.2021
   83SAPS    HS 7768   3.461   3.909  10.792  0.2121 -0.8216 -2.4328
   83SAPS   O21 7769   3.472   4.106  10.714  0.6362 -0.3088 -0.7006
   83SAPS   C21 7770   3.566   4.088  10.618  0.4911 -0.2731  0.1372
   83SAPS   O22 7771   3.626   3.989  10.588  0.1539  0.5454 -0.2346
   83SAPS   C22 7772   3.608   4.223  10.565 -0.2642 -0.2956  0.0329
   83SAPS   H2R 7773   3.544   4.249  10.478 -1.4469  1.1200  1.2807
   83SAPS   H2S 7774   3.593   4.299  10.645 -2.3119 -0.0061 -0.5816
   83SAPS    C3 7775   3.315   3.941  10.633  0.1050 -0.1055  0.9368
   83SAPS    HX 7776   3.265   4.032  10.591  2.0323  0.2578 -0.7759
   83SAPS    HY 7777   3.235   3.875  10.672 -0.8499  1.0237  0.9422
   83SAPS   O31 7778   3.389   3.876  10.526  0.0544 -0.0215 -0.2245
   83SAPS   C31 7779   3.417   3.748  10.525 -0.0632  0.0998 -0.5078
   83SAPS   O32 7780   3.377   3.674  10.615 -0.1472 -0.4502 -0.2147
   83SAPS   C32 7781   3.505   3.710  10.409 -0.9456  0.3439 -0.1492
   83SAPS   H2X 7782   3.604   3.680  10.451 -0.4934  1.8289 -0.0755
   83SAPS   H2Y 7783   3.524   3.800  10.346  0.4284  0.0489 -0.2032
   83SAPS   C23 7784   3.756   4.231  10.524  0.4919  0.1165  0.7361
   83SAPS   H3R 7785   3.792   4.134  10.483  0.4205 -0.2115  1.4346
   83SAPS   H3S 7786   3.822   4.244  10.612  1.3151  0.7283  0.0370
   83SAPS   C24 7787   3.802   4.341  10.422 -0.2426 -0.2646  0.8304
   83SAPS   H4R 7788   3.781   4.297  10.322  1.1567  1.0058 -0.0612
   83SAPS   H4S 7789   3.913   4.349  10.419 -0.3599  1.7191 -1.1585
   83SAPS   C25 7790   3.721   4.467  10.444 -0.2646 -0.8138 -0.6710
   83SAPS   H5R 7791   3.706   4.490  10.551 -2.8461 -2.6713 -0.5542
   83SAPS   C26 7792   3.670   4.555  10.355  0.3655 -1.0374  0.1530
   83SAPS   H6R 7793   3.616   4.637  10.405  2.1150 -0.3134  0.9535
   83SAPS   C27 7794   3.669   4.561  10.205 -0.1603 -0.9379  0.9174
   83SAPS   H7R 7795   3.711   4.660  10.176  3.1491 -2.0365  1.6155
   83SAPS   H7S 7796   3.565   4.561  10.166  0.1265 -2.1914  0.0926
   83SAPS   C28 7797   3.748   4.463  10.120  0.3495  0.3086  0.4834
   83SAPS   H8R 7798   3.846   4.438  10.162  0.7653  1.3258  0.1573
   83SAPS   C29 7799   3.702   4.384  10.016 -0.4921  0.1390  0.1145
   83SAPS   H9R 7800   3.775   4.322   9.962  0.1734  0.2983  0.8101
   83SAPS  C210 7801   3.564   4.396   9.956  0.1364 -0.2535  0.6724
   83SAPS  H10R 7802   3.493   4.445  10.026 -0.0009  0.3872  0.0986
   83SAPS  H10S 7803   3.517   4.296   9.965  0.4592 -0.4449  0.2660
   83SAPS  C211 7804   3.563   4.459   9.818  0.1625  0.1484  0.2508
   83SAPS  H11R 7805   3.572   4.567   9.805  4.1585 -0.0815 -0.2080
   83SAPS  C212 7806   3.549   4.382   9.705  0.4330  0.0157 -0.1465
   83SAPS  H12R 7807   3.562   4.421   9.603  0.0077 -2.2898 -1.1330
   83SAPS  C213 7808   3.537   4.228   9.707  0.7090 -0.0575 -0.0166
   83SAPS  H13R 7809   3.598   4.175   9.783  2.8783 -1.1053 -2.3463
   83SAPS  H13S 7810   3.578   4.183   9.614  0.6926 -0.5402  0.2101
   83SAPS  C214 7811   3.397   4.181   9.726  0.1637  0.4956 -1.3999
   83SAPS  H14R 7812   3.358   4.168   9.828  0.9603 -0.9647 -1.2545
   83SAPS  C215 7813   3.304   4.157   9.630  0.6754  0.4013 -0.4593
   83SAPS  H15R 7814   3.200   4.148   9.664  0.3173  0.7395 -1.4344
   83SAPS  C216 7815   3.314   4.176   9.480  0.1434  0.3290 -0.0007
   83SAPS  H16R 7816   3.380   4.264   9.467  2.2180 -1.0881  0.4250
   83SAPS  H16S 7817   3.211   4.187   9.440 -0.2590 -1.1521  0.5722
   83SAPS  C217 7818   3.386   4.057   9.413 -0.6252  0.7476 -0.2591
   83SAPS  H17R 7819   3.479   4.026   9.466 -0.5139 -0.0071 -0.8778
   83SAPS  H17S 7820   3.410   4.100   9.314 -1.3070  3.9686  0.8562
   83SAPS  C218 7821   3.306   3.936   9.403  0.2739 -0.2116  0.2950
   83SAPS  H18R 7822   3.205   3.955   9.362 -1.0568 -0.8233  3.0399
   83SAPS  H18S 7823   3.281   3.880   9.496  1.4677 -2.6228 -0.7560
   83SAPS  C219 7824   3.370   3.842   9.301  0.5933  0.0444 -0.5219
   83SAPS  H19R 7825   3.322   3.744   9.323  0.4387  0.1578 -0.3542
   83SAPS  H19S 7826   3.476   3.836   9.334  0.6797 -1.1751 -0.9504
   83SAPS  C220 7827   3.364   3.871   9.152  0.6379 -0.1099  0.1804
   83SAPS  H20R 7828   3.417   3.795   9.091  1.3604 -2.2075  3.1630
   83SAPS  H20S 7829   3.415   3.966   9.127 -2.4720  1.2152 -1.7756
   83SAPS  H20T 7830   3.261   3.857   9.113 -0.0813  1.0204  1.5858
   83SAPS   C33 7831   3.456   3.596  10.320  0.4009  0.2243 -0.4149
   83SAPS   H3X 7832   3.445   3.495  10.366 -0.0818 -0.7537 -2.5439
   83SAPS   H3Y 7833   3.525   3.577  10.235  0.1916  0.4276 -0.6300
   83SAPS   C34 7834   3.326   3.635  10.247 -0.6030  0.7006 -0.9229
   83SAPS   H4X 7835   3.326   3.742  10.217 -2.0970  1.1455  0.5015
   83SAPS   H4Y 7836   3.243   3.636  10.322 -1.4012  2.1266 -1.7763
   83SAPS   C35 7837   3.285   3.554  10.117 -0.0395 -0.1007  0.0089
   83SAPS   H5X 7838   3.336   3.604  10.032  0.2184  0.7221  0.6335
   83SAPS   H5Y 7839   3.176   3.570  10.107 -0.0927  0.0964  0.8656
   83SAPS   C36 7840   3.333   3.412  10.123 -0.0822 -0.4309  0.0679
   83SAPS   H6X 7841   3.334   3.364  10.223  0.3312 -1.0179 -0.2111
   83SAPS   H6Y 7842   3.434   3.416  10.076  0.0752  3.1639  0.4101
   83SAPS   C37 7843   3.248   3.323  10.035  0.3663  0.1464  0.7615
   83SAPS   H7X 7844   3.150   3.311  10.087  0.4662  1.0677  1.1875
   83SAPS   H7Y 7845   3.293   3.222  10.043  0.5120  0.3023  2.3846
   83SAPS   C38 7846   3.223   3.371   9.891  0.6430 -0.4588  0.8101
   83SAPS   H8X 7847   3.313   3.419   9.848 -1.4314  1.7391 -1.4197
   83SAPS   H8Y 7848   3.149   3.454   9.896  0.9199 -0.0918 -0.7969
   83SAPS   C39 7849   3.189   3.261   9.792  0.0325 -0.4754  0.4719
   83SAPS   H9X 7850   3.101   3.203   9.827 -0.4560 -1.0525 -1.5898
   83SAPS   H9Y 7851   3.267   3.183   9.782 -1.1350 -2.0810  2.8947
   83SAPS  C310 7852   3.175   3.328   9.652  0.0312  0.1676 -0.2357
   83SAPS  H10X 7853   3.182   3.242   9.581  0.3039 -0.4873  0.5754
   83SAPS  H10Y 7854   3.266   3.382   9.620 -1.0674  3.2273  1.4494
   83SAPS  C311 7855   3.045   3.408   9.623 -0.7720 -0.0114  0.3075
   83SAPS  H11X 7856   3.066   3.502   9.678 -2.7602  0.4016  0.4489
   83SAPS  H11Y 7857   2.962   3.358   9.678 -0.6545 -2.7088 -1.7851
   83SAPS  C312 7858   3.012   3.433   9.476  0.6716 -0.1291  0.5503
   83SAPS  H12X 7859   2.909   3.471   9.457  0.3794 -0.6490  1.0640
   83SAPS  H12Y 7860   3.026   3.344   9.412 -1.7768  0.3115 -0.7142
   83SAPS  C313 7861   3.115   3.538   9.426  0.4145  0.1551 -0.4012
   83SAPS  H13X 7862   3.215   3.492   9.441  1.0711  2.0608  1.6242
   83SAPS  H13Y 7863   3.111   3.630   9.488 -0.7364  0.0100 -0.2408
   83SAPS  C314 7864   3.070   3.599   9.289  0.2568 -1.2301 -0.0148
   83SAPS  H14X 7865   3.074   3.710   9.297 -1.7774 -1.1145 -0.0520
   83SAPS  H14Y 7866   2.960   3.597   9.271  0.4582  0.8417 -1.8659
   83SAPS  C315 7867   3.149   3.553   9.164  0.4534  0.0150 -0.0351
   83SAPS  H15X 7868   3.143   3.442   9.158  3.3236 -0.2505  0.6724
   83SAPS  H15Y 7869   3.255   3.583   9.180  0.8489 -1.0545 -0.5124
   83SAPS  C316 7870   3.098   3.607   9.025 -0.2512 -0.2889 -0.7215
   83SAPS  H16X 7871   3.107   3.717   9.015  0.1180 -0.2344  0.1306
   83SAPS  H16Y 7872   2.992   3.575   9.020 -0.0301 -1.6501  1.5289
   83SAPS  C317 7873   3.178   3.544   8.914 -0.0953  0.1823  0.2157
   83SAPS  H17X 7874   3.157   3.436   8.925 -0.4998  0.3473  1.1639
   83SAPS  H17Y 7875   3.286   3.551   8.937  0.0984 -1.4279 -0.0931
   83SAPS  C318 7876   3.146   3.597   8.775 -0.0900  0.7244  0.2306
   83SAPS  H18X 7877   3.166   3.706   8.777 -1.9512  1.2269  4.6508
   83SAPS  H18Y 7878   3.039   3.584   8.748  0.1116  0.0294 -0.2694
   83SAPS  H18Z 7879   3.217   3.547   8.706 -1.6449  0.5380 -1.2991
   84SAPS     N 7880   4.146   4.855  11.332  0.0971 -0.8680  0.0920
   84SAPS   HN1 7881   4.045   4.881  11.329  0.3368  0.5109  2.0093
   84SAPS   HN2 7882   4.185   4.874  11.426  0.4206 -0.4287 -0.1260
   84SAPS   HN3 7883   4.189   4.923  11.266 -1.5418 -2.4841 -2.8309
   84SAPS   C12 7884   4.178   4.722  11.287 -0.1454  0.0002  0.0182
   84SAPS  H12A 7885   4.283   4.730  11.262  0.2373  4.3965  2.1845
   84SAPS   C13 7886   4.173   4.616  11.398  0.3924 -0.2935 -0.8688
   84SAPS  O13A 7887   4.167   4.652  11.521 -0.9889  0.5092 -0.1697
   84SAPS  O13B 7888   4.179   4.494  11.366 -0.5954  0.0005  0.1125
   84SAPS   C11 7889   4.089   4.690  11.162  0.8835 -0.4267 -0.5188
   84SAPS  H11A 7890   3.981   4.692  11.185  1.0949  0.5320  0.5205
   84SAPS  H11B 7891   4.115   4.583  11.145 -2.2841 -2.0067  3.0720
   84SAPS     P 7892   4.027   4.864  10.981 -0.0927  0.1508  0.1445
   84SAPS   O13 7893   3.956   4.949  11.083  0.3087 -0.0463 -0.0117
   84SAPS   O14 7894   4.104   4.936  10.878 -0.0486  0.0464 -0.2111
   84SAPS   O12 7895   4.130   4.776  11.058  0.3829  0.1576  0.8237
   84SAPS   O11 7896   3.916   4.759  10.923  0.0827 -0.3002  0.5187
   84SAPS    C1 7897   3.935   4.652  10.834  0.0017 -0.5261  0.1492
   84SAPS    HA 7898   4.018   4.585  10.864  1.7131  1.2482 -0.4027
   84SAPS    HB 7899   3.841   4.595  10.822  0.2071 -0.7000 -0.6977
   84SAPS    C2 7900   3.984   4.702  10.696 -0.0056  0.2198  0.5822
   84SAPS    HS 7901   4.074   4.766  10.706  0.7408 -0.6125 -0.5209
   84SAPS   O21 7902   3.880   4.772  10.624  0.2870 -0.2338 -0.5865
   84SAPS   C21 7903   3.926   4.861  10.534 -0.2986 -0.0752  0.2234
   84SAPS   O22 7904   4.045   4.886  10.504 -0.2684  0.1930 -0.3200
   84SAPS   C22 7905   3.808   4.932  10.470 -0.1231 -0.0739  0.4326
   84SAPS   H2R 7906   3.736   4.856  10.434  1.8886 -1.4992 -0.7547
   84SAPS   H2S 7907   3.750   4.984  10.549 -0.5836 -0.9442  0.6822
   84SAPS    C3 7908   4.041   4.583  10.606 -0.5239  0.6650 -0.3894
   84SAPS    HX 7909   3.967   4.500  10.603  2.0971 -1.8183 -0.4558
   84SAPS    HY 7910   4.113   4.531  10.672 -1.0241 -0.3463 -0.6174
   84SAPS   O31 7911   4.088   4.609  10.468  0.0545  0.3202 -0.0441
   84SAPS   C31 7912   4.215   4.633  10.452  0.2025 -0.4342  0.2226
   84SAPS   O32 7913   4.300   4.632  10.541  0.3911 -0.0615  0.1829
   84SAPS   C32 7914   4.249   4.645  10.304 -0.6280 -0.0156 -0.5215
   84SAPS   H2X 7915   4.332   4.572  10.291 -0.2095  0.4327 -0.4076
   84SAPS   H2Y 7916   4.295   4.746  10.296  0.8679 -0.4535  1.7139
   84SAPS   C23 7917   3.847   5.028  10.355  0.4023 -0.0832 -0.5377
   84SAPS   H3R 7918   3.940   5.083  10.379  0.7565 -0.5433 -0.8449
   84SAPS   H3S 7919   3.763   5.100  10.346  1.7136  1.4296 -1.1035
   84SAPS   C24 7920   3.863   4.949  10.226 -0.5068 -0.1415 -0.6704
   84SAPS   H4R 7921   3.770   4.892  10.205 -0.6728 -0.6934  1.3781
   84SAPS   H4S 7922   3.939   4.873  10.255 -1.5908 -1.2658 -0.6854
   84SAPS   C25 7923   3.914   5.034  10.109 -0.1082 -0.1949  0.0079
   84SAPS   H5R 7924   4.000   5.096  10.138  0.5706 -2.1610  2.5099
   84SAPS   C26 7925   3.868   5.036   9.979 -0.0225  0.9479  0.4984
   84SAPS   H6R 7926   3.917   5.102   9.906  1.4253 -2.4735 -1.8671
   84SAPS   C27 7927   3.759   4.943   9.929 -0.4782  0.3914  0.0740
   84SAPS   H7R 7928   3.710   4.894  10.016  0.6658 -0.1151  0.4524
   84SAPS   H7S 7929   3.807   4.871   9.859 -0.5073 -0.2679  0.7142
   84SAPS   C28 7930   3.657   5.013   9.849  0.3670 -0.5817  0.2560
   84SAPS   H8R 7931   3.693   5.114   9.825  0.9638 -0.5392  1.2585
   84SAPS   C29 7932   3.538   4.972   9.801  0.2972  0.1646  0.1036
   84SAPS   H9R 7933   3.476   5.022   9.725  1.0355 -1.2103 -1.4838
   84SAPS  C210 7934   3.500   4.832   9.828  0.1341 -0.1927  0.3169
   84SAPS  H10R 7935   3.511   4.811   9.937  0.4020  0.4974  0.4242
   84SAPS  H10S 7936   3.560   4.765   9.763 -2.1339 -3.4920  1.2917
   84SAPS  C211 7937   3.355   4.802   9.814 -0.0788  0.0432  0.4803
   84SAPS  H11R 7938   3.298   4.816   9.907  1.6988  2.5958  1.3013
   84SAPS  C212 7939   3.291   4.767   9.698 -0.0749  0.4720  0.6772
   84SAPS  H12R 7940   3.181   4.759   9.703 -0.2580  2.1299  0.1815
   84SAPS  C213 7941   3.356   4.757   9.564  0.7642  1.0098  0.2965
   84SAPS  H13R 7942   3.462   4.789   9.576  0.6525  1.0789  1.1611
   84SAPS  H13S 7943   3.319   4.830   9.489  1.0094  0.1756 -0.6657
   84SAPS  C214 7944   3.344   4.615   9.514 -0.3281  0.4220 -0.2230
   84SAPS  H14R 7945   3.373   4.535   9.583 -1.5241 -1.6456 -1.9992
   84SAPS  C215 7946   3.295   4.574   9.396  0.4601  0.1403  0.5596
   84SAPS  H15R 7947   3.305   4.469   9.364  0.7604 -0.0642  1.3017
   84SAPS  C216 7948   3.259   4.668   9.281  0.3425  0.0767  0.0291
   84SAPS  H16R 7949   3.268   4.616   9.183  0.3250 -0.1105  0.1247
   84SAPS  H16S 7950   3.336   4.747   9.271 -0.1303  0.4347 -0.8129
   84SAPS  C217 7951   3.126   4.742   9.295  0.0319 -0.3106 -0.7227
   84SAPS  H17R 7952   3.108   4.783   9.396 -2.9931  0.7757 -1.5895
   84SAPS  H17S 7953   3.038   4.683   9.259 -1.1780 -0.0792  1.6915
   84SAPS  C218 7954   3.133   4.876   9.223 -0.1822  0.5756 -0.5906
   84SAPS  H18R 7955   3.143   4.869   9.113 -0.4905  0.7701 -0.6351
   84SAPS  H18S 7956   3.222   4.925   9.269 -0.3257  0.3939 -0.1065
   84SAPS  C219 7957   3.018   4.974   9.259  0.5013 -0.3455 -0.6090
   84SAPS  H19R 7958   3.050   5.072   9.218 -1.8904 -0.1008 -2.0703
   84SAPS  H19S 7959   3.004   4.975   9.369  3.4679 -0.4131 -0.1512
   84SAPS  C220 7960   2.887   4.941   9.182  0.0902  0.9133  0.6450
   84SAPS  H20R 7961   2.856   4.845   9.228  0.4336  2.3704  4.2337
   84SAPS  H20S 7962   2.893   4.939   9.071  1.1059  0.8344  0.6984
   84SAPS  H20T 7963   2.814   5.024   9.195  0.7349  1.6078 -0.0499
   84SAPS   C33 7964   4.133   4.621  10.204 -0.1910  0.0670  0.1126
   84SAPS   H3X 7965   4.044   4.683  10.230 -1.0258 -0.0809 -2.1565
   84SAPS   H3Y 7966   4.088   4.519  10.201 -1.2303  0.5121  0.1868
   84SAPS   C34 7967   4.176   4.670  10.061  0.0521  0.3677 -0.0635
   84SAPS   H4X 7968   4.263   4.609  10.031 -0.0026 -0.7134  1.8128
   84SAPS   H4Y 7969   4.213   4.773  10.080  0.6433  0.1686 -0.1359
   84SAPS   C35 7970   4.065   4.681   9.952 -0.1269  0.2662  0.2896
   84SAPS   H5X 7971   3.992   4.762   9.972  0.3463  1.2172 -1.6394
   84SAPS   H5Y 7972   4.010   4.584   9.953  1.7108 -0.8630 -1.6017
   84SAPS   C36 7973   4.125   4.704   9.813 -0.1232 -0.5278  0.0277
   84SAPS   H6X 7974   4.200   4.623   9.798 -2.0196 -1.8882 -3.2787
   84SAPS   H6Y 7975   4.184   4.798   9.816 -1.7790  0.5947 -1.2196
   84SAPS   C37 7976   4.026   4.707   9.689 -0.0245  0.0826 -0.0816
   84SAPS   H7X 7977   3.966   4.801   9.690  1.1851  0.8659  0.1845
   84SAPS   H7Y 7978   3.967   4.612   9.687 -1.4872  0.9389  0.4734
   84SAPS   C38 7979   4.104   4.714   9.556 -0.6314  0.4071  0.0529
   84SAPS   H8X 7980   4.189   4.643   9.568 -1.1754 -0.2666 -0.0644
   84SAPS   H8Y 7981   4.154   4.813   9.546  1.9946 -0.8575 -0.0812
   84SAPS   C39 7982   4.023   4.678   9.430  0.1066 -0.0255 -0.0738
   84SAPS   H9X 7983   4.071   4.723   9.341  0.7088 -2.8193 -1.2976
   84SAPS   H9Y 7984   3.916   4.706   9.432  0.6135  2.1634 -1.0479
   84SAPS  C310 7985   4.038   4.526   9.397 -0.3136  0.2330 -0.1612
   84SAPS  H10X 7986   3.965   4.476   9.465  0.7544  1.5620  2.0844
   84SAPS  H10Y 7987   4.137   4.495   9.435 -0.9158  1.1983  2.4499
   84SAPS  C311 7988   4.008   4.488   9.249  0.7747 -0.6050  0.0033
   84SAPS  H11X 7989   4.033   4.381   9.232  1.5942 -0.4362  0.1435
   84SAPS  H11Y 7990   4.072   4.553   9.185  1.6403 -0.9400  0.5213
   84SAPS  C312 7991   3.859   4.514   9.199  0.6448  0.3410  0.3623
   84SAPS  H12X 7992   3.834   4.621   9.215 -0.6160 -0.2029  2.4401
   84SAPS  H12Y 7993   3.803   4.456   9.275 -0.1298 -0.8645 -1.0724
   84SAPS  C313 7994   3.835   4.453   9.062 -0.7877  0.6860 -0.1887
   84SAPS  H13X 7995   3.880   4.352   9.054  0.9273  1.3044  1.0851
   84SAPS  H13Y 7996   3.886   4.509   8.981 -0.9101  0.8404 -0.1589
   84SAPS  C314 7997   3.690   4.450   9.029  0.2879  0.1034  0.2542
   84SAPS  H14X 7998   3.652   4.555   9.031 -2.2248 -0.7366 -0.0389
   84SAPS  H14Y 7999   3.616   4.402   9.096  0.6451 -2.6564 -1.1853
   84SAPS  C315 8000   3.664   4.398   8.887  0.3359 -0.2950 -0.7574
   84SAPS  H15X 8001   3.556   4.378   8.872  0.6908 -3.0059 -0.2291
   84SAPS  H15Y 8002   3.712   4.299   8.871 -0.0290 -0.5740 -0.1516
   84SAPS  C316 8003   3.692   4.492   8.763  0.1274  0.4289 -0.3896
   84SAPS  H16X 8004   3.795   4.534   8.772  0.3148 -0.4425  4.0943
   84SAPS  H16Y 8005   3.620   4.577   8.761 -0.0689  0.2558 -0.6459
   84SAPS  C317 8006   3.678   4.410   8.634 -0.1106 -0.7389  0.2391
   84SAPS  H17X 8007   3.744   4.323   8.655  1.8328  1.2052  2.7019
   84SAPS  H17Y 8008   3.713   4.476   8.552 -0.6327 -0.0060  0.5984
   84SAPS  C318 8009   3.537   4.374   8.599 -0.0096  0.2159 -0.2251
   84SAPS  H18X 8010   3.504   4.285   8.656 -1.9340  0.7091 -0.4910
   84SAPS  H18Y 8011   3.530   4.352   8.490 -1.1044 -1.0943  0.0864
   84SAPS  H18Z 8012   3.465   4.456   8.623 -0.1599 -0.6369  2.6110
   85SAPS     N 8013   1.783   0.209  11.360 -0.1008 -0.1176 -0.1882
   85SAPS   HN1 8014   1.749   0.222  11.457  1.7647  1.8732  0.2796
   85SAPS   HN2 8015   1.731   0.274  11.297  0.5352  1.8621  1.2190
   85SAPS   HN3 8016   1.764   0.111  11.331  1.9078 -0.4705 -0.4692
   85SAPS   C12 8017   1.930   0.243  11.353 -0.2295  1.0191 -0.7332
   85SAPS  H12A 8018   1.948   0.346  11.381 -0.3869  0.3311  2.2884
   85SAPS   C13 8019   2.000   0.168  11.465 -0.5997 -0.1794 -0.1886
   85SAPS  O13A 8020   1.946   0.109  11.561  0.3455  0.7405 -0.9107
   85SAPS  O13B 8021   2.126   0.157  11.450  0.2236 -0.4765  0.6422
   85SAPS   C11 8022   1.980   0.200  11.211  0.2181 -0.7191 -0.2666
   85SAPS  H11A 8023   2.087   0.228  11.209  0.6459 -2.2239  0.4939
   85SAPS  H11B 8024   1.932   0.268  11.137 -2.5893 -0.6840  1.4298
   85SAPS     P 8025   1.867   0.001  11.058  0.0549  0.2617 -0.2761
   85SAPS   O13 8026   1.847  -0.138  11.090  0.3965  0.8037 -0.0618
   85SAPS   O14 8027   1.745   0.077  11.033  0.2312 -0.2904  0.0509
   85SAPS   O12 8028   1.955   0.068  11.179  0.0328  0.5369  0.1254
   85SAPS   O11 8029   1.967   0.001  10.936 -0.2502  0.5690 -0.3253
   85SAPS    C1 8030   2.092   0.073  10.922  0.4168 -0.0476 -0.6930
   85SAPS    HA 8031   2.063   0.180  10.919 -1.5196 -0.5539 -2.4361
   85SAPS    HB 8032   2.145   0.073  11.020 -4.2692  2.2852  2.2016
   85SAPS    C2 8033   2.172   0.032  10.801 -0.3561  0.7363 -0.1373
   85SAPS    HS 8034   2.257   0.103  10.794  0.0182  0.2676 -0.3797
   85SAPS   O21 8035   2.090   0.035  10.685 -0.1554 -0.6000 -0.0447
   85SAPS   C21 8036   2.062   0.158  10.641 -0.2151  0.2047 -0.1073
   85SAPS   O22 8037   2.096   0.262  10.681 -0.6693  0.1829  0.0797
   85SAPS   C22 8038   1.994   0.134  10.500 -0.0276  0.0622 -0.4573
   85SAPS   H2R 8039   2.072   0.084  10.438  1.2246 -0.5796  1.5448
   85SAPS   H2S 8040   1.912   0.062  10.520  1.0927 -0.8187  1.1699
   85SAPS    C3 8041   2.228  -0.111  10.839  0.1539 -0.2950  0.3082
   85SAPS    HX 8042   2.144  -0.170  10.883  2.6052 -3.0059  1.6778
   85SAPS    HY 8043   2.291  -0.102  10.930 -0.7154 -1.0968  1.0144
   85SAPS   O31 8044   2.291  -0.175  10.732  0.5069  0.2213  0.0347
   85SAPS   C31 8045   2.225  -0.266  10.663  0.0178  0.9028  1.2715
   85SAPS   O32 8046   2.110  -0.302  10.678 -0.9537  0.9735 -0.3318
   85SAPS   C32 8047   2.308  -0.323  10.546 -0.6094  0.3616 -0.0827
   85SAPS   H2X 8048   2.262  -0.414  10.501  0.5073 -0.6618  0.8050
   85SAPS   H2Y 8049   2.412  -0.343  10.578 -0.4352  0.4811 -0.5718
   85SAPS   C23 8050   1.927   0.267  10.456 -0.7725  0.7784 -0.3893
   85SAPS   H3R 8051   2.009   0.341  10.444  0.8284 -0.6624  1.2054
   85SAPS   H3S 8052   1.857   0.298  10.536  1.3375 -1.5293  2.5813
   85SAPS   C24 8053   1.858   0.242  10.320  0.3896  0.3225  0.5044
   85SAPS   H4R 8054   1.943   0.206  10.258 -0.4459 -1.3418  0.2637
   85SAPS   H4S 8055   1.830   0.341  10.279  0.3412  0.5222  1.0182
   85SAPS   C25 8056   1.734   0.158  10.312  0.0654  0.5331 -0.3872
   85SAPS   H5R 8057   1.660   0.194  10.385  2.7230  0.3674  2.6667
   85SAPS   C26 8058   1.695   0.044  10.248  0.2789 -0.8842  0.5312
   85SAPS   H6R 8059   1.589   0.017  10.261 -0.3644  0.0052 -2.2692
   85SAPS   C27 8060   1.784  -0.040  10.160  0.7164  0.2895  1.1947
   85SAPS   H7R 8061   1.857   0.030  10.114  0.5789 -0.7337 -0.6404
   85SAPS   H7S 8062   1.724  -0.092  10.082  0.3777  1.2274  0.8153
   85SAPS   C28 8063   1.867  -0.148  10.227 -0.0268 -0.3960 -0.5222
   85SAPS   H8R 8064   1.868  -0.168  10.335 -0.3525 -2.7032 -0.8898
   85SAPS   C29 8065   1.949  -0.233  10.160  0.2499  0.3886 -0.0268
   85SAPS   H9R 8066   2.005  -0.307  10.219  0.1079 -0.9461 -1.5241
   85SAPS  C210 8067   1.970  -0.235  10.013  0.1725  0.4644  1.3682
   85SAPS  H10R 8068   2.058  -0.177   9.977  0.6975 -2.5567 -3.1681
   85SAPS  H10S 8069   1.890  -0.179   9.961  0.2573 -2.1686 -2.0378
   85SAPS  C211 8070   1.977  -0.368   9.945 -0.9360  0.1937  0.5971
   85SAPS  H11R 8071   2.028  -0.447  10.002  0.0657  1.0882  0.9805
   85SAPS  C212 8072   1.927  -0.402   9.824  0.2221  0.0777 -0.1046
   85SAPS  H12R 8073   1.935  -0.510   9.807 -0.8032 -0.5617  2.9467
   85SAPS  C213 8074   1.862  -0.313   9.725 -0.6561 -0.0895 -0.0034
   85SAPS  H13R 8075   1.799  -0.235   9.773  0.5281 -0.7570  2.8097
   85SAPS  H13S 8076   1.792  -0.389   9.683  0.2252 -0.6010 -0.5843
   85SAPS  C214 8077   1.950  -0.251   9.617  0.2069 -0.1334 -0.2629
   85SAPS  H14R 8078   2.052  -0.290   9.633  2.0539  3.8495 -1.2795
   85SAPS  C215 8079   1.930  -0.169   9.510  0.3041  0.9444  0.1071
   85SAPS  H15R 8080   2.011  -0.144   9.440  0.9354 -0.4780  0.2818
   85SAPS  C216 8081   1.804  -0.101   9.468  0.2850 -0.5150  0.0017
   85SAPS  H16R 8082   1.725  -0.129   9.541  0.5812 -0.9356  0.1669
   85SAPS  H16S 8083   1.771  -0.137   9.368 -0.0912 -1.6417  0.5093
   85SAPS  C217 8084   1.800   0.051   9.479 -0.9197 -0.7091  0.2331
   85SAPS  H17R 8085   1.714   0.089   9.419  0.2927  0.4652 -0.8156
   85SAPS  H17S 8086   1.894   0.087   9.432 -2.0068 -0.5811 -1.9817
   85SAPS  C218 8087   1.783   0.098   9.622  0.4135 -0.0625  0.0248
   85SAPS  H18R 8088   1.843   0.042   9.697  0.1914  0.5906  0.7059
   85SAPS  H18S 8089   1.677   0.088   9.653 -0.0330  1.5810 -0.8403
   85SAPS  C219 8090   1.826   0.244   9.616  0.6859  0.5828 -0.1254
   85SAPS  H19R 8091   1.752   0.303   9.558 -0.3333 -1.5359 -1.0839
   85SAPS  H19S 8092   1.925   0.245   9.565  1.9059 -1.2182  2.0482
   85SAPS  C220 8093   1.854   0.325   9.744  0.9805  0.0538 -0.4382
   85SAPS  H20R 8094   1.840   0.433   9.719 -1.6445 -0.4171 -1.3422
   85SAPS  H20S 8095   1.955   0.307   9.786  0.5951 -2.0273 -0.3125
   85SAPS  H20T 8096   1.787   0.303   9.830  0.1790  2.8802 -0.2429
   85SAPS   C33 8097   2.305  -0.221  10.431 -0.3452 -0.2846  0.5808
   85SAPS   H3X 8098   2.363  -0.129  10.453 -0.5844  0.1838 -0.6672
   85SAPS   H3Y 8099   2.202  -0.187  10.408  0.6672  2.5900 -0.1078
   85SAPS   C34 8100   2.364  -0.277  10.302 -0.0222  0.3416  0.2003
   85SAPS   H4X 8101   2.317  -0.376  10.287 -0.9639  0.7071  0.6477
   85SAPS   H4Y 8102   2.470  -0.298  10.324  0.0787  1.7255  1.1757
   85SAPS   C35 8103   2.348  -0.188  10.179 -0.7484 -0.3323 -0.9379
   85SAPS   H5X 8104   2.388  -0.089  10.208 -1.2378 -0.7252  1.2485
   85SAPS   H5Y 8105   2.239  -0.173  10.167 -1.1585  0.8488  3.0521
   85SAPS   C36 8106   2.404  -0.249  10.050 -0.1597 -0.1337 -0.0932
   85SAPS   H6X 8107   2.361  -0.351  10.041  0.1716 -0.4754  1.8490
   85SAPS   H6Y 8108   2.515  -0.255  10.052 -0.0513  1.4631 -0.1793
   85SAPS   C37 8109   2.374  -0.151   9.936  0.7710  0.7093  0.0578
   85SAPS   H7X 8110   2.453  -0.073   9.940  0.0850  1.4212 -0.0149
   85SAPS   H7Y 8111   2.275  -0.100   9.949  0.7197  1.0270 -1.4501
   85SAPS   C38 8112   2.385  -0.203   9.793  0.0049  0.2059  0.0115
   85SAPS   H8X 8113   2.360  -0.311   9.789  1.9111 -0.2694 -0.1239
   85SAPS   H8Y 8114   2.494  -0.211   9.771  0.1931  1.1306  0.5794
   85SAPS   C39 8115   2.333  -0.112   9.681  0.6773 -0.7461  0.1898
   85SAPS   H9X 8116   2.384  -0.014   9.676 -0.9885  0.3391  2.6388
   85SAPS   H9Y 8117   2.228  -0.082   9.699  0.1482 -1.4073 -1.6059
   85SAPS  C310 8118   2.344  -0.197   9.543 -0.1447  0.7619 -0.7614
   85SAPS  H10X 8119   2.257  -0.266   9.531 -1.8802  2.2802  1.9789
   85SAPS  H10Y 8120   2.439  -0.252   9.529  0.2662  1.3023 -0.1267
   85SAPS  C311 8121   2.335  -0.099   9.422 -0.5378  0.1951 -0.0004
   85SAPS  H11X 8122   2.424  -0.032   9.429 -1.1786  0.9572  1.4059
   85SAPS  H11Y 8123   2.248  -0.036   9.451  2.1658  3.2349  2.4319
   85SAPS  C312 8124   2.331  -0.175   9.294  0.1626 -0.5071  0.2687
   85SAPS  H12X 8125   2.256  -0.257   9.291  1.3226 -1.8043  3.1812
   85SAPS  H12Y 8126   2.430  -0.223   9.278  0.3501  0.4921 -1.9033
   85SAPS  C313 8127   2.285  -0.083   9.177 -0.7207 -0.3978 -1.2620
   85SAPS  H13X 8128   2.337   0.014   9.166 -1.1185  0.1057  0.9240
   85SAPS  H13Y 8129   2.181  -0.050   9.197 -1.4167 -2.0950 -1.8982
   85SAPS  C314 8130   2.288  -0.148   9.033 -0.1332 -0.9363 -0.7471
   85SAPS  H14X 8131   2.254  -0.253   9.032  0.2974 -1.0864 -0.1705
   85SAPS  H14Y 8132   2.388  -0.143   8.986  0.0497 -2.5418 -0.5647
   85SAPS  C315 8133   2.197  -0.064   8.940  0.4787  0.3507  0.0948
   85SAPS  H15X 8134   2.089  -0.062   8.965  0.6767  0.7709  0.9526
   85SAPS  H15Y 8135   2.208  -0.120   8.844  1.1392  1.1402 -0.3079
   85SAPS  C316 8136   2.234   0.089   8.914 -0.4231 -0.4364 -0.3073
   85SAPS  H16X 8137   2.340   0.117   8.932 -0.5096  0.0332 -0.4960
   85SAPS  H16Y 8138   2.179   0.143   8.995  0.9449 -1.9338  1.7300
   85SAPS  C317 8139   2.183   0.154   8.779 -0.1545  0.8325 -0.0266
   85SAPS  H17X 8140   2.075   0.137   8.759  0.3177 -1.1693 -1.1673
   85SAPS  H17Y 8141   2.239   0.097   8.701 -1.9535 -2.2778  0.7938
   85SAPS  C318 8142   2.221   0.310   8.770  0.0778  0.2176 -0.4422
   85SAPS  H18X 8143   2.331   0.322   8.762  0.2942 -1.5733 -0.5375
   85SAPS  H18Y 8144   2.185   0.343   8.870  0.4390  0.4869 -0.4003
   85SAPS  H18Z 8145   2.172   0.360   8.684  2.8739  0.2427 -2.1516
   86SAPS     N 8146   3.596   0.150  11.313  0.5257 -0.1431  0.0709
   86SAPS   HN1 8147   3.584   0.174  11.414 -1.1596 -3.8261  0.9151
   86SAPS   HN2 8148   3.508   0.175  11.263 -0.3855 -1.1746  1.0835
   86SAPS   HN3 8149   3.613   0.047  11.315  1.2038 -0.0280  0.6623
   86SAPS   C12 8150   3.717   0.214  11.249  0.0157 -0.1584 -0.5062
   86SAPS  H12A 8151   3.703   0.205  11.143 -1.5673  0.0561 -0.3369
   86SAPS   C13 8152   3.729   0.366  11.276 -0.3345 -0.1896 -0.2196
   86SAPS  O13A 8153   3.644   0.425  11.349 -0.2924  0.9206  0.3343
   86SAPS  O13B 8154   3.804   0.437  11.205 -0.1439 -0.6028  0.0207
   86SAPS   C11 8155   3.838   0.147  11.318  0.5356 -0.4035 -0.1814
   86SAPS  H11A 8156   3.818   0.155  11.427 -0.9597 -1.6311 -0.3280
   86SAPS  H11B 8157   3.927   0.210  11.296 -0.9135  2.0694  0.6666
   86SAPS     P 8158   3.954  -0.027  11.163 -0.0375 -0.2941  0.4465
   86SAPS   O13 8159   4.091   0.037  11.181 -0.1895  0.3051 -0.6293
   86SAPS   O14 8160   3.962  -0.176  11.151 -0.1523 -0.0428 -0.0724
   86SAPS   O12 8161   3.857   0.012  11.283  0.5282  0.3632  0.7244
   86SAPS   O11 8162   3.881   0.032  11.032 -0.8875  0.5103  0.3064
   86SAPS    C1 8163   3.771  -0.032  10.963 -0.5983 -1.1704 -0.6936
   86SAPS    HA 8164   3.794  -0.141  10.963  0.9314 -0.8732 -1.0236
   86SAPS    HB 8165   3.672  -0.015  11.010  0.0580 -1.2175  0.7458
   86SAPS    C2 8166   3.762   0.021  10.813  0.4081  0.2587 -0.4758
   86SAPS    HS 8167   3.656   0.009  10.783 -0.2639 -0.1079  1.8821
   86SAPS   O21 8168   3.844  -0.059  10.729 -0.2653 -0.2466  0.2767
   86SAPS   C21 8169   3.799  -0.178  10.703  0.6835 -0.3773  0.3360
   86SAPS   O22 8170   3.690  -0.214  10.739 -0.3618 -0.3204 -0.0326
   86SAPS   C22 8171   3.899  -0.272  10.627  0.5273  0.6039 -0.4244
   86SAPS   H2R 8172   3.994  -0.218  10.605  0.3662  0.6234 -1.0841
   86SAPS   H2S 8173   3.920  -0.348  10.705 -0.6461  1.1146  0.4177
   86SAPS    C3 8174   3.798   0.175  10.800  0.2791  0.6246 -0.1599
   86SAPS    HX 8175   3.907   0.176  10.824 -0.0751 -1.0049  1.8356
   86SAPS    HY 8176   3.732   0.230  10.871 -0.3447  1.1594 -1.1349
   86SAPS   O31 8177   3.772   0.224  10.663 -0.0473  0.1835 -0.6290
   86SAPS   C31 8178   3.879   0.207  10.588 -0.4092 -0.1010 -0.3653
   86SAPS   O32 8179   3.991   0.172  10.619 -0.3893  0.2244 -0.3495
   86SAPS   C32 8180   3.839   0.261  10.445  0.0395 -0.8403  0.7130
   86SAPS   H2X 8181   3.775   0.348  10.471 -0.7329 -1.5072  1.0822
   86SAPS   H2Y 8182   3.772   0.191  10.391  1.9755 -1.4086 -1.0582
   86SAPS   C23 8183   3.837  -0.354  10.508 -0.0370  0.1267  0.2726
   86SAPS   H3R 8184   3.740  -0.402  10.533 -0.0392  0.8874  1.8832
   86SAPS   H3S 8185   3.904  -0.441  10.495  0.0445  0.0614  1.0566
   86SAPS   C24 8186   3.840  -0.272  10.378  0.3026 -0.1342 -0.5836
   86SAPS   H4R 8187   3.948  -0.274  10.352  0.3542  0.0391 -0.3877
   86SAPS   H4S 8188   3.806  -0.167  10.396 -2.2985 -0.6438 -1.9964
   86SAPS   C25 8189   3.760  -0.329  10.267  0.4200  0.1325 -0.5863
   86SAPS   H5R 8190   3.656  -0.335  10.304 -0.1004 -2.1929 -2.2116
   86SAPS   C26 8191   3.798  -0.377  10.147  0.4237 -0.9773 -0.0560
   86SAPS   H6R 8192   3.722  -0.410  10.074  0.1569  1.4571 -0.9652
   86SAPS   C27 8193   3.946  -0.379  10.104 -0.4659  0.6154 -0.1693
   86SAPS   H7R 8194   4.002  -0.454  10.163 -1.7633 -0.9775 -0.8758
   86SAPS   H7S 8195   3.986  -0.275  10.106 -1.6946  1.1022  1.3565
   86SAPS   C28 8196   3.948  -0.447   9.967  0.1417  0.4242  0.1630
   86SAPS   H8R 8197   3.937  -0.556   9.976 -0.5173  0.4444 -0.3328
   86SAPS   C29 8198   3.948  -0.404   9.840  0.6866 -0.8087  0.3124
   86SAPS   H9R 8199   3.958  -0.473   9.755 -0.4810 -0.9160  0.2475
   86SAPS  C210 8200   3.939  -0.262   9.807  0.0789 -0.1398  0.0008
   86SAPS  H10R 8201   3.996  -0.243   9.713  1.8332  1.8179  1.3652
   86SAPS  H10S 8202   4.000  -0.209   9.883  1.3771 -1.4835 -0.0661
   86SAPS  C211 8203   3.794  -0.198   9.790  0.3011 -0.2281 -0.3657
   86SAPS  H11R 8204   3.760  -0.167   9.890  0.8894  0.7669 -0.4602
   86SAPS  C212 8205   3.710  -0.205   9.690 -0.9235 -0.2651  0.3128
   86SAPS  H12R 8206   3.610  -0.160   9.699 -0.5054  0.4996  1.3111
   86SAPS  C213 8207   3.732  -0.258   9.554 -1.0200 -0.8184 -0.2550
   86SAPS  H13R 8208   3.632  -0.279   9.510  0.0382 -1.2539 -2.6270
   86SAPS  H13S 8209   3.784  -0.356   9.563 -1.2114 -0.9228 -0.2799
   86SAPS  C214 8210   3.813  -0.168   9.461 -0.2742  0.3582 -0.0767
   86SAPS  H14R 8211   3.840  -0.068   9.497  1.6271 -0.4502  0.8711
   86SAPS  C215 8212   3.871  -0.212   9.347 -0.1357 -0.6485 -0.8400
   86SAPS  H15R 8213   3.953  -0.147   9.313  0.3333  0.5681  2.2616
   86SAPS  C216 8214   3.861  -0.351   9.286  0.1566 -0.4726  0.0180
   86SAPS  H16R 8215   3.786  -0.410   9.343  0.0861 -0.4169 -0.0172
   86SAPS  H16S 8216   3.962  -0.398   9.286  0.5855  0.2758 -2.6320
   86SAPS  C217 8217   3.804  -0.327   9.141 -0.3873  0.5415 -0.2956
   86SAPS  H17R 8218   3.789  -0.420   9.081 -1.9489  1.4732 -1.4354
   86SAPS  H17S 8219   3.878  -0.272   9.079 -0.2254  0.2150 -0.3956
   86SAPS  C218 8220   3.663  -0.269   9.145 -0.8904 -0.3420 -0.2405
   86SAPS  H18R 8221   3.648  -0.245   9.038  1.4152  1.7381 -0.1922
   86SAPS  H18S 8222   3.647  -0.180   9.210 -0.7259 -1.3364  1.2302
   86SAPS  C219 8223   3.554  -0.369   9.174  0.3966  0.2081 -0.0969
   86SAPS  H19R 8224   3.462  -0.307   9.184  0.0016 -0.2212 -0.9653
   86SAPS  H19S 8225   3.588  -0.421   9.267  2.8583  1.3351 -0.2935
   86SAPS  C220 8226   3.529  -0.470   9.061 -0.4892 -0.2225  0.0711
   86SAPS  H20R 8227   3.511  -0.425   8.961 -0.5417 -0.3796  0.0095
   86SAPS  H20S 8228   3.448  -0.543   9.084 -1.9529  0.3679 -2.7577
   86SAPS  H20T 8229   3.620  -0.531   9.040 -1.2857 -0.9282 -1.4679
   86SAPS   C33 8230   3.956   0.315  10.355  0.1841  0.2029  0.2289
   86SAPS   H3X 8231   3.934   0.298  10.248  0.0350 -0.7023  0.3931
   86SAPS   H3Y 8232   4.048   0.253  10.367  0.4270  0.6421  0.6616
   86SAPS   C34 8233   3.995   0.458  10.381 -0.0079 -0.3246 -0.0056
   86SAPS   H4X 8234   4.102   0.477  10.361 -0.1601  0.1170 -0.4233
   86SAPS   H4Y 8235   3.986   0.471  10.491 -0.8734  1.0558 -0.2117
   86SAPS   C35 8236   3.928   0.561  10.292 -0.4443  0.5242  0.0068
   86SAPS   H5X 8237   3.956   0.662  10.327 -0.3211  0.6474 -0.4316
   86SAPS   H5Y 8238   3.818   0.543  10.300 -0.7347  0.9675 -2.1114
   86SAPS   C36 8239   3.954   0.559  10.142 -0.0694  0.1598 -0.2874
   86SAPS   H6X 8240   3.925   0.460  10.099  0.4637 -1.5194  2.9178
   86SAPS   H6Y 8241   4.061   0.569  10.116 -0.0408  0.2092 -0.1500
   86SAPS   C37 8242   3.875   0.673  10.080 -0.0525  0.3560  0.1499
   86SAPS   H7X 8243   3.915   0.772  10.110  0.1728  0.8781 -1.7489
   86SAPS   H7Y 8244   3.766   0.657  10.096 -0.7360  4.9820  1.5625
   86SAPS   C38 8245   3.894   0.662   9.926 -0.4533 -0.1944 -0.2868
   86SAPS   H8X 8246   3.881   0.556   9.895 -2.3522 -0.2145  0.4225
   86SAPS   H8Y 8247   3.987   0.710   9.888  1.0431 -1.4929  1.5908
   86SAPS   C39 8248   3.786   0.742   9.843 -0.4672  0.2080  0.7333
   86SAPS   H9X 8249   3.774   0.850   9.864 -2.8778  0.0171  0.5757
   86SAPS   H9Y 8250   3.693   0.699   9.885  0.2277  0.3557  2.5265
   86SAPS  C310 8251   3.776   0.715   9.691  0.6295 -0.0747  0.7278
   86SAPS  H10X 8252   3.701   0.781   9.643  0.6261 -0.2631  0.4680
   86SAPS  H10Y 8253   3.731   0.613   9.688  0.8771 -0.2164 -2.5514
   86SAPS  C311 8254   3.902   0.709   9.607 -0.2669  0.8832  0.6780
   86SAPS  H11X 8255   3.961   0.620   9.638 -0.9169  1.0000  2.3514
   86SAPS  H11Y 8256   3.967   0.794   9.637 -1.3748  1.8503  0.3742
   86SAPS  C312 8257   3.872   0.691   9.454 -0.4980 -0.0301 -0.4056
   86SAPS  H12X 8258   3.820   0.785   9.428  1.3804  1.5098  1.0789
   86SAPS  H12Y 8259   3.799   0.612   9.429 -0.3347 -0.1616 -0.4741
   86SAPS  C313 8260   4.007   0.679   9.382  0.6764  0.4427 -0.1380
   86SAPS  H13X 8261   4.043   0.579   9.414 -0.0669  0.0562 -0.5051
   86SAPS  H13Y 8262   4.089   0.748   9.413 -0.1342  0.5794  1.8064
   86SAPS  C314 8263   3.994   0.659   9.229 -0.4820 -0.2795 -0.6333
   86SAPS  H14X 8264   4.085   0.643   9.168 -1.9098  0.2715 -3.0563
   86SAPS  H14Y 8265   3.970   0.763   9.200  1.0770  0.4157  0.3908
   86SAPS  C315 8266   3.875   0.567   9.179 -0.0473  0.4320  0.3271
   86SAPS  H15X 8267   3.783   0.609   9.225 -1.5561 -2.3094 -0.0038
   86SAPS  H15Y 8268   3.881   0.466   9.226 -1.9609  0.1593  0.0434
   86SAPS  C316 8269   3.877   0.557   9.028  0.4081 -0.5195  0.2657
   86SAPS  H16X 8270   3.968   0.504   8.993  0.1152 -1.4874  0.9366
   86SAPS  H16Y 8271   3.906   0.652   8.979  0.7640 -1.5392 -1.6159
   86SAPS  C317 8272   3.752   0.497   8.970 -0.7159 -0.2448  0.4329
   86SAPS  H17X 8273   3.658   0.552   8.992 -0.5882  0.2697 -0.2727
   86SAPS  H17Y 8274   3.738   0.401   9.025 -0.5731 -1.3231 -1.3263
   86SAPS  C318 8275   3.747   0.473   8.814 -0.0425  0.5755 -0.2640
   86SAPS  H18X 8276   3.657   0.415   8.784 -0.8367  2.4138 -1.7168
   86SAPS  H18Y 8277   3.846   0.434   8.784  0.2698 -0.4481  1.9326
   86SAPS  H18Z 8278   3.737   0.566   8.753 -0.4986  0.9093  0.3064
   87SAPS     N 8279   3.155   1.420  11.172 -0.3346 -0.3637  0.8915
   87SAPS   HN1 8280   3.109   1.411  11.079 -2.1539  2.1478  1.4360
   87SAPS   HN2 8281   3.233   1.352  11.180 -0.1110 -0.5703 -1.8999
   87SAPS   HN3 8282   3.084   1.406  11.246 -0.4676  0.1204  0.8621
   87SAPS   C12 8283   3.218   1.556  11.180  0.9350  0.3948  0.4642
   87SAPS  H12A 8284   3.134   1.622  11.197  0.3188 -0.5425  1.1499
   87SAPS   C13 8285   3.307   1.588  11.301  0.1013 -1.4522  0.0954
   87SAPS  O13A 8286   3.350   1.497  11.373 -0.1057  0.3353 -0.3488
   87SAPS  O13B 8287   3.330   1.710  11.325 -0.8790  0.1384  0.2923
   87SAPS   C11 8288   3.295   1.588  11.048 -0.5089  0.6959  0.6009
   87SAPS  H11A 8289   3.388   1.530  11.063  0.0111  1.6881  1.3413
   87SAPS  H11B 8290   3.321   1.696  11.051 -0.1623  0.5982  1.2633
   87SAPS     P 8291   3.138   1.655  10.859 -0.0913 -0.5085  0.3828
   87SAPS   O13 8292   3.094   1.592  10.729  0.5067 -0.0716 -0.3877
   87SAPS   O14 8293   3.032   1.710  10.948  0.5825  0.3799 -0.2684
   87SAPS   O12 8294   3.223   1.548  10.933 -0.3196 -0.0015  0.4598
   87SAPS   O11 8295   3.246   1.761  10.830 -0.6911  0.0294 -0.6085
   87SAPS    C1 8296   3.207   1.888  10.771 -0.5358 -0.6945  0.4306
   87SAPS    HA 8297   3.099   1.916  10.768  0.1184  2.4134  2.0120
   87SAPS    HB 8298   3.250   1.966  10.837  1.5965  0.1221 -1.7772
   87SAPS    C2 8299   3.272   1.911  10.625 -0.0966 -1.0020 -0.0811
   87SAPS    HS 8300   3.262   2.020  10.609 -3.1183 -1.3978 -1.7723
   87SAPS   O21 8301   3.200   1.835  10.523 -0.0522 -0.1652  0.5236
   87SAPS   C21 8302   3.097   1.906  10.469 -0.2012 -0.0045 -0.2465
   87SAPS   O22 8303   3.053   2.010  10.512  0.4467  0.1528  0.0127
   87SAPS   C22 8304   3.045   1.835  10.355  0.1052  0.1249  0.2032
   87SAPS   H2R 8305   3.119   1.758  10.325  0.3251  0.0869  0.8448
   87SAPS   H2S 8306   2.953   1.794  10.401 -0.2478  0.7499  0.0752
   87SAPS    C3 8307   3.423   1.884  10.624  0.4175  0.0383  0.0722
   87SAPS    HX 8308   3.442   1.783  10.667  1.5850  0.5070  0.6771
   87SAPS    HY 8309   3.464   1.953  10.700  0.2613  0.3921 -0.1586
   87SAPS   O31 8310   3.487   1.900  10.496  0.2932  0.1430  0.2569
   87SAPS   C31 8311   3.485   1.795  10.414  0.5479  0.3957 -0.3916
   87SAPS   O32 8312   3.452   1.685  10.446 -0.1132 -0.4920 -0.7168
   87SAPS   C32 8313   3.537   1.829  10.273 -0.6628 -0.4885 -0.6124
   87SAPS   H2X 8314   3.640   1.869  10.280 -1.4019  1.3508  0.5743
   87SAPS   H2Y 8315   3.474   1.912  10.233  0.5800  0.5564 -0.4590
   87SAPS   C23 8316   3.012   1.925  10.239  0.5770  0.3029  0.7486
   87SAPS   H3R 8317   2.947   2.007  10.276  1.4051  1.2999  0.0366
   87SAPS   H3S 8318   2.953   1.882  10.155 -0.1780  1.4594  0.6655
   87SAPS   C24 8319   3.144   1.979  10.177  0.5165 -0.4352 -0.2916
   87SAPS   H4R 8320   3.203   1.891  10.143  0.9951 -0.8491  1.4924
   87SAPS   H4S 8321   3.200   2.030  10.259  1.0271 -0.1409 -0.8145
   87SAPS   C25 8322   3.128   2.079  10.063 -0.1047 -0.0822 -0.0386
   87SAPS   H5R 8323   3.110   2.180  10.100  2.6525  0.5268 -0.1808
   87SAPS   C26 8324   3.168   2.060   9.939 -0.6583 -0.0307  0.6223
   87SAPS   H6R 8325   3.152   2.142   9.867 -0.3048 -0.1120  0.4492
   87SAPS   C27 8326   3.237   1.935   9.878 -0.6577 -0.1948 -0.3887
   87SAPS   H7R 8327   3.274   1.863   9.953 -0.4839  0.6854  0.3938
   87SAPS   H7S 8328   3.322   1.954   9.809  0.1097 -0.9108  0.3257
   87SAPS   C28 8329   3.133   1.844   9.817 -0.2305  0.6524  0.5232
   87SAPS   H8R 8330   3.072   1.811   9.902 -1.4688  0.1062 -0.5558
   87SAPS   C29 8331   3.107   1.801   9.693  0.0072 -0.3188  0.2677
   87SAPS   H9R 8332   3.024   1.732   9.675  1.5018 -1.4570 -2.8476
   87SAPS  C210 8333   3.185   1.842   9.577  0.0917 -0.5071 -0.7514
   87SAPS  H10R 8334   3.195   1.751   9.514  0.0091 -0.9035 -0.1962
   87SAPS  H10S 8335   3.288   1.879   9.596 -0.0184  1.1038 -2.9158
   87SAPS  C211 8336   3.110   1.956   9.512  0.1030  0.5945 -0.2028
   87SAPS  H11R 8337   3.112   2.053   9.564 -1.0083  0.9733 -0.8387
   87SAPS  C212 8338   3.061   1.971   9.390  0.5672 -0.2055 -0.4464
   87SAPS  H12R 8339   3.021   2.072   9.373 -0.6928 -0.6610 -0.3139
   87SAPS  C213 8340   3.055   1.868   9.281  0.3377 -0.1881 -0.5084
   87SAPS  H13R 8341   2.976   1.895   9.208  0.9214  0.0684 -1.0591
   87SAPS  H13S 8342   3.021   1.769   9.319  1.5864  0.9292  4.1366
   87SAPS  C214 8343   3.184   1.846   9.203  0.2320 -0.2520  0.8401
   87SAPS  H14R 8344   3.264   1.808   9.269  0.2964 -1.0748  0.3072
   87SAPS  C215 8345   3.214   1.883   9.069  0.0876  1.2870 -0.3420
   87SAPS  H15R 8346   3.312   1.878   9.021 -0.5899  2.7378 -1.9771
   87SAPS  C216 8347   3.117   1.942   8.972 -0.0436 -0.1143  0.3491
   87SAPS  H16R 8348   3.067   2.023   9.029 -0.1309 -1.5209  2.3921
   87SAPS  H16S 8349   3.043   1.865   8.939  2.3802 -1.7039 -1.8262
   87SAPS  C217 8350   3.190   1.991   8.842  0.2600  0.3938 -0.7780
   87SAPS  H17R 8351   3.294   2.023   8.863  0.4146  0.1403 -1.1440
   87SAPS  H17S 8352   3.136   2.085   8.818 -0.5724  0.4104  1.0240
   87SAPS  C218 8353   3.194   1.894   8.721  0.6412 -0.7907  0.0704
   87SAPS  H18R 8354   3.214   1.789   8.749  1.4313 -1.2397 -1.9576
   87SAPS  H18S 8355   3.267   1.947   8.655  1.3124  0.5498  1.8151
   87SAPS  C219 8356   3.052   1.886   8.660 -0.4494 -0.6005  0.4609
   87SAPS  H19R 8357   3.011   1.989   8.667 -2.9068 -1.5044  0.4277
   87SAPS  H19S 8358   2.998   1.816   8.727 -0.0676 -1.5233 -0.1858
   87SAPS  C220 8359   3.054   1.833   8.520 -0.5110 -0.5055 -0.3245
   87SAPS  H20R 8360   3.103   1.734   8.515 -1.1126 -0.8391  0.3112
   87SAPS  H20S 8361   3.101   1.906   8.450 -1.1113  0.0720 -0.1410
   87SAPS  H20T 8362   2.952   1.835   8.477 -0.1095  1.7549 -1.3368
   87SAPS   C33 8363   3.527   1.721  10.166 -0.9247  0.7074  0.3341
   87SAPS   H3X 8364   3.424   1.681  10.171 -1.0306  0.9671  0.2612
   87SAPS   H3Y 8365   3.600   1.637  10.167  1.1601  2.2623 -2.8714
   87SAPS   C34 8366   3.540   1.792  10.027  0.0485  0.1825 -0.8077
   87SAPS   H4X 8367   3.637   1.847  10.030  1.7289 -2.6320  0.1225
   87SAPS   H4Y 8368   3.460   1.869  10.022  0.2823  0.3300 -3.9178
   87SAPS   C35 8369   3.535   1.690   9.915  0.2552 -0.3675 -0.2212
   87SAPS   H5X 8370   3.430   1.656   9.904  0.0470 -0.1008  0.8005
   87SAPS   H5Y 8371   3.591   1.598   9.940  1.2934 -0.4879 -2.6671
   87SAPS   C36 8372   3.581   1.752   9.786 -0.3902  0.0216  0.4229
   87SAPS   H6X 8373   3.688   1.782   9.787 -0.5522  0.8515 -1.4581
   87SAPS   H6Y 8374   3.532   1.844   9.748 -0.5386  0.0052  0.5806
   87SAPS   C37 8375   3.555   1.660   9.662  0.9263 -0.3437  0.0052
   87SAPS   H7X 8376   3.450   1.624   9.661  1.1287 -0.9554  0.1618
   87SAPS   H7Y 8377   3.623   1.573   9.672 -1.3837 -2.2434 -0.1165
   87SAPS   C38 8378   3.571   1.733   9.520  0.1451 -0.6111 -0.2734
   87SAPS   H8X 8379   3.667   1.788   9.517 -0.1305 -0.1263 -0.2709
   87SAPS   H8Y 8380   3.489   1.804   9.497  0.8570 -0.2326 -1.7723
   87SAPS   C39 8381   3.574   1.620   9.409  0.0354 -0.4396  0.6586
   87SAPS   H9X 8382   3.482   1.560   9.427 -1.7653  1.6987 -0.8247
   87SAPS   H9Y 8383   3.659   1.551   9.429  2.7744  2.1468 -1.2442
   87SAPS  C310 8384   3.579   1.680   9.266 -0.4234 -0.0738 -0.4078
   87SAPS  H10X 8385   3.482   1.728   9.240 -0.3978  0.3243  0.2347
   87SAPS  H10Y 8386   3.587   1.600   9.189 -1.1413  0.3274 -0.9111
   87SAPS  C311 8387   3.690   1.785   9.234  0.3556 -0.5192 -0.2970
   87SAPS  H11X 8388   3.783   1.743   9.279 -0.4472  0.3834  2.3382
   87SAPS  H11Y 8389   3.666   1.881   9.286  0.7396  0.8034 -2.4265
   87SAPS  C312 8390   3.698   1.820   9.080 -0.0368 -0.2673 -0.6948
   87SAPS  H12X 8391   3.733   1.724   9.035 -0.1834  0.2753 -2.0193
   87SAPS  H12Y 8392   3.779   1.894   9.059 -0.3174  0.4116  0.5005
   87SAPS  C313 8393   3.562   1.855   9.014 -0.7617 -0.7552  0.0158
   87SAPS  H13X 8394   3.528   1.952   9.056  1.7497  0.3332 -0.2907
   87SAPS  H13Y 8395   3.485   1.779   9.039  0.1811 -1.9764 -0.6531
   87SAPS  C314 8396   3.579   1.879   8.863  0.1344 -0.5281  0.1716
   87SAPS  H14X 8397   3.640   1.964   8.824 -0.2252 -1.2667 -2.1518
   87SAPS  H14Y 8398   3.477   1.900   8.825 -0.2350 -0.4386  1.1842
   87SAPS  C315 8399   3.637   1.760   8.788  0.6319 -0.4297  0.7317
   87SAPS  H15X 8400   3.590   1.664   8.818 -1.6701  0.4429  0.0919
   87SAPS  H15Y 8401   3.746   1.778   8.803  0.5519  1.9396 -0.9727
   87SAPS  C316 8402   3.600   1.778   8.638  0.0879 -0.3104  0.4481
   87SAPS  H16X 8403   3.653   1.870   8.607 -2.5920  1.4708  0.8404
   87SAPS  H16Y 8404   3.492   1.798   8.621  0.4270  0.0197 -1.4967
   87SAPS  C317 8405   3.650   1.658   8.550  0.0091 -0.5708  0.2062
   87SAPS  H17X 8406   3.607   1.562   8.585 -0.2291 -0.8866 -0.9105
   87SAPS  H17Y 8407   3.760   1.659   8.564  0.0557 -1.5547 -0.0343
   87SAPS  C318 8408   3.625   1.678   8.401 -0.4812 -0.0520 -0.2988
   87SAPS  H18X 8409   3.661   1.777   8.367 -0.5095  0.1412  0.2264
   87SAPS  H18Y 8410   3.517   1.681   8.375 -0.7798  1.9821  0.9692
   87SAPS  H18Z 8411   3.670   1.591   8.350  1.3919 -0.5663  2.0324
   88SAPS     N 8412   6.280   5.775  10.925 -0.1324  0.0355 -0.6086
   88SAPS   HN1 8413   6.194   5.718  10.938 -0.1771  0.3084  0.4025
   88SAPS   HN2 8414   6.258   5.846  10.852  2.0771 -0.1952 -1.5779
   88SAPS   HN3 8415   6.342   5.697  10.896  2.0165 -0.5897  4.5162
   88SAPS   C12 8416   6.329   5.824  11.056  0.9679 -1.1504 -0.4734
   88SAPS  H12A 8417   6.363   5.926  11.045  0.7872 -1.2065 -1.8082
   88SAPS   C13 8418   6.237   5.811  11.175  0.4767 -0.1908 -0.3878
   88SAPS  O13A 8419   6.119   5.772  11.149 -0.3704  0.9628 -0.8696
   88SAPS  O13B 8420   6.276   5.877  11.279  0.7567  0.2757  0.5149
   88SAPS   C11 8421   6.452   5.737  11.098 -0.4313  1.1268  0.6138
   88SAPS  H11A 8422   6.420   5.631  11.089 -1.5602  1.4750  0.2429
   88SAPS  H11B 8423   6.466   5.767  11.204 -3.0151  1.1394  1.0169
   88SAPS     P 8424   6.707   5.732  11.073 -0.3422  0.2709  0.0382
   88SAPS   O13 8425   6.786   5.857  11.073  0.2784  0.4193  0.0564
   88SAPS   O14 8426   6.699   5.665  11.203  0.6718 -0.4972 -0.1164
   88SAPS   O12 8427   6.562   5.769  11.022 -0.7136  0.0395 -0.1268
   88SAPS   O11 8428   6.765   5.639  10.969 -0.2755 -0.1480 -0.1991
   88SAPS    C1 8429   6.729   5.504  10.949 -0.8308  0.1646  0.2636
   88SAPS    HA 8430   6.771   5.439  11.029 -1.0995 -0.9516 -0.4697
   88SAPS    HB 8431   6.619   5.499  10.965 -1.1513  1.6727 -1.1812
   88SAPS    C2 8432   6.757   5.464  10.804  0.0579 -0.2345 -0.3400
   88SAPS    HS 8433   6.866   5.459  10.786 -0.2485 -1.4066 -2.1824
   88SAPS   O21 8434   6.695   5.561  10.719 -0.7181  0.3299  0.5116
   88SAPS   C21 8435   6.776   5.657  10.680 -0.3514 -0.3278  0.7766
   88SAPS   O22 8436   6.892   5.678  10.715  0.0457 -0.0964 -0.1843
   88SAPS   C22 8437   6.712   5.739  10.566  1.1556  0.2710 -0.5170
   88SAPS   H2R 8438   6.602   5.726  10.565  1.4197 -2.6458  0.4153
   88SAPS   H2S 8439   6.729   5.844  10.599  0.7335 -0.4660  2.3125
   88SAPS    C3 8440   6.694   5.331  10.775 -0.6540  0.1329  0.1240
   88SAPS    HX 8441   6.584   5.338  10.775 -0.6272  1.0483 -1.6368
   88SAPS    HY 8442   6.721   5.251  10.847 -1.8889 -2.6941 -2.3339
   88SAPS   O31 8443   6.722   5.286  10.639 -0.3002  0.2720  0.2451
   88SAPS   C31 8444   6.843   5.239  10.627  0.2917  0.3819  1.3698
   88SAPS   O32 8445   6.925   5.221  10.716  0.5633 -0.2210 -0.0747
   88SAPS   C32 8446   6.869   5.203  10.479  0.3975 -0.1966  0.7862
   88SAPS   H2X 8447   6.790   5.134  10.443  0.4227 -0.4270  1.1670
   88SAPS   H2Y 8448   6.974   5.170  10.461 -0.0554 -0.8730 -0.7726
   88SAPS   C23 8449   6.787   5.711  10.430 -0.6011  0.1093  0.1359
   88SAPS   H3R 8450   6.738   5.630  10.372  0.7705  0.8693 -2.2094
   88SAPS   H3S 8451   6.891   5.677  10.448  0.1351  0.6434 -2.6633
   88SAPS   C24 8452   6.785   5.836  10.345  0.8833 -0.3691  0.1256
   88SAPS   H4R 8453   6.841   5.806  10.254  1.6004 -2.8831  1.3215
   88SAPS   H4S 8454   6.836   5.918  10.400 -0.9906 -0.6777  2.4742
   88SAPS   C25 8455   6.651   5.886  10.318 -0.2038  0.3042  0.0264
   88SAPS   H5R 8456   6.592   5.925  10.403  0.6443  3.0590 -0.5354
   88SAPS   C26 8457   6.593   5.887  10.196  0.2149 -0.6262 -1.1629
   88SAPS   H6R 8458   6.485   5.909  10.193  0.6704  2.4992  0.6884
   88SAPS   C27 8459   6.648   5.849  10.066 -0.0624  0.0628 -0.6338
   88SAPS   H7R 8460   6.596   5.756  10.032  0.2739 -0.3819  0.0457
   88SAPS   H7S 8461   6.757   5.828  10.060 -0.1291 -0.0923 -1.3790
   88SAPS   C28 8462   6.611   5.967   9.976 -0.6167  0.3890  0.6591
   88SAPS   H8R 8463   6.630   6.068  10.015  2.5681  0.3298 -0.4440
   88SAPS   C29 8464   6.557   5.964   9.855 -0.0440 -0.1652  0.5960
   88SAPS   H9R 8465   6.539   6.064   9.813  1.6041 -0.2459 -0.4085
   88SAPS  C210 8466   6.515   5.844   9.764 -0.4780 -0.4768 -0.1137
   88SAPS  H10R 8467   6.453   5.872   9.676 -1.6898 -0.0249  0.8615
   88SAPS  H10S 8468   6.443   5.784   9.823 -0.3713 -1.2035 -0.6965
   88SAPS  C211 8469   6.632   5.758   9.736 -0.5449  0.2811 -0.0349
   88SAPS  H11R 8470   6.663   5.706   9.827  1.7564  2.9160  0.8307
   88SAPS  C212 8471   6.691   5.744   9.617 -0.0628  0.6445 -0.8030
   88SAPS  H12R 8472   6.789   5.695   9.614 -0.7204 -0.6869 -1.1687
   88SAPS  C213 8473   6.658   5.821   9.490 -0.4182  0.6152  0.3090
   88SAPS  H13R 8474   6.592   5.910   9.503 -0.4660  0.5417  0.5535
   88SAPS  H13S 8475   6.588   5.747   9.445 -0.3525  1.6070 -1.5566
   88SAPS  C214 8476   6.774   5.858   9.404 -0.1140 -0.2693  0.0032
   88SAPS  H14R 8477   6.858   5.895   9.464  2.0914 -4.6950  0.0714
   88SAPS  C215 8478   6.781   5.864   9.273 -0.3201 -0.7794  0.0431
   88SAPS  H15R 8479   6.882   5.889   9.239 -0.3311  1.7763  1.5828
   88SAPS  C216 8480   6.669   5.846   9.171 -0.4163  0.0354 -0.1544
   88SAPS  H16R 8481   6.579   5.791   9.207 -0.8660 -0.9671 -2.6244
   88SAPS  H16S 8482   6.710   5.778   9.093 -2.1677 -1.3001  0.0336
   88SAPS  C217 8483   6.626   5.976   9.104  0.0321 -0.3929  0.8663
   88SAPS  H17R 8484   6.708   6.032   9.052 -2.1518  0.9280 -1.3488
   88SAPS  H17S 8485   6.567   6.038   9.174 -1.3312 -1.1997  0.4601
   88SAPS  C218 8486   6.529   5.943   8.986  0.2412 -0.0900  0.6717
   88SAPS  H18R 8487   6.466   6.034   8.990  0.9349  0.6867 -2.6628
   88SAPS  H18S 8488   6.460   5.859   9.009  1.7883 -1.6603 -0.0933
   88SAPS  C219 8489   6.586   5.923   8.845 -0.3583  0.5761 -0.6272
   88SAPS  H19R 8490   6.634   5.824   8.858 -3.0950 -0.9223 -1.1625
   88SAPS  H19S 8491   6.673   5.992   8.840  0.5250 -0.5021 -0.3574
   88SAPS  C220 8492   6.495   5.928   8.722 -0.2685  0.8384 -0.3855
   88SAPS  H20R 8493   6.559   5.897   8.637  0.9414  0.6047  0.5765
   88SAPS  H20S 8494   6.453   6.029   8.702 -3.1866 -0.2956 -0.4027
   88SAPS  H20T 8495   6.409   5.861   8.739 -0.6010  1.5446  0.8752
   88SAPS   C33 8496   6.860   5.334  10.381 -0.1035  0.2230 -0.3059
   88SAPS   H3X 8497   6.925   5.411  10.428 -0.4300  0.4954 -0.2999
   88SAPS   H3Y 8498   6.757   5.373  10.369 -0.4713 -1.2833 -2.6100
   88SAPS   C34 8499   6.907   5.304  10.239 -0.3911 -0.5849 -0.1850
   88SAPS   H4X 8500   6.861   5.213  10.195 -0.4918 -0.1917 -0.9252
   88SAPS   H4Y 8501   7.017   5.288  10.236 -0.0172  1.2043  1.6813
   88SAPS   C35 8502   6.867   5.416  10.131 -0.2085 -0.5762  0.4811
   88SAPS   H5X 8503   6.941   5.384  10.055  0.9619 -0.4803  1.5350
   88SAPS   H5Y 8504   6.907   5.511  10.172  0.3830 -0.3363 -0.6263
   88SAPS   C36 8505   6.718   5.413  10.091  0.5275 -0.9561  0.0399
   88SAPS   H6X 8506   6.699   5.513  10.046 -0.4636 -0.8364  0.6669
   88SAPS   H6Y 8507   6.651   5.412  10.180  0.2206 -2.1766 -0.1946
   88SAPS   C37 8508   6.682   5.306   9.992 -0.2839  0.1955  0.7765
   88SAPS   H7X 8509   6.573   5.309   9.969 -0.8475 -2.2568  2.7256
   88SAPS   H7Y 8510   6.702   5.205  10.033 -3.4326 -1.0365 -0.3793
   88SAPS   C38 8511   6.755   5.316   9.854  0.3455 -0.3691  0.5127
   88SAPS   H8X 8512   6.865   5.334   9.862  0.2420  3.1315 -2.7951
   88SAPS   H8Y 8513   6.724   5.413   9.810 -1.5772 -1.0524  0.2772
   88SAPS   C39 8514   6.722   5.200   9.759 -0.4024  0.6112 -0.3923
   88SAPS   H9X 8515   6.618   5.215   9.724 -0.7542  0.5740  0.5974
   88SAPS   H9Y 8516   6.729   5.107   9.819 -0.6312 -0.1596 -1.5450
   88SAPS  C310 8517   6.796   5.205   9.630 -0.3638  0.3996  0.1225
   88SAPS  H10X 8518   6.760   5.125   9.561  1.2863  0.2582 -0.6214
   88SAPS  H10Y 8519   6.904   5.184   9.645  0.1476  1.9791 -1.0474
   88SAPS  C311 8520   6.808   5.339   9.559  0.3472 -0.0227 -0.4022
   88SAPS  H11X 8521   6.867   5.413   9.618 -0.6734 -0.1611  0.8309
   88SAPS  H11Y 8522   6.713   5.381   9.521 -0.9326 -2.2754  0.1602
   88SAPS  C312 8523   6.889   5.319   9.431  0.1861 -0.0180 -0.3975
   88SAPS  H12X 8524   6.864   5.221   9.386 -0.6250 -1.8125  3.5558
   88SAPS  H12Y 8525   6.991   5.284   9.459 -0.4576 -0.3973  1.6127
   88SAPS  C313 8526   6.887   5.433   9.334 -0.6751  0.2866 -0.0800
   88SAPS  H13X 8527   6.970   5.504   9.356 -0.5006  0.4945 -1.3304
   88SAPS  H13Y 8528   6.790   5.486   9.350 -0.2571  0.9555  0.2858
   88SAPS  C314 8529   6.895   5.393   9.189  0.0015  0.1255 -0.0642
   88SAPS  H14X 8530   6.799   5.360   9.144 -0.6246  0.7278  0.7806
   88SAPS  H14Y 8531   6.967   5.312   9.169 -1.1782 -1.1757  0.7668
   88SAPS  C315 8532   6.946   5.515   9.106  0.8391 -0.0071 -0.5559
   88SAPS  H15X 8533   7.053   5.526   9.133  0.6945 -0.6108  0.3084
   88SAPS  H15Y 8534   6.900   5.610   9.140  0.4208 -0.8110  1.2217
   88SAPS  C316 8535   6.917   5.481   8.962  0.3702  0.4419 -0.8724
   88SAPS  H16X 8536   6.809   5.454   8.961  0.7643 -1.2393 -1.7984
   88SAPS  H16Y 8537   6.984   5.401   8.925  3.3095  2.6635 -0.7153
   88SAPS  C317 8538   6.923   5.593   8.856 -0.1637  0.2462 -0.0052
   88SAPS  H17X 8539   6.826   5.646   8.846 -1.0491 -1.2814  0.1469
   88SAPS  H17Y 8540   6.936   5.538   8.760 -1.6407 -1.0345  0.4724
   88SAPS  C318 8541   7.044   5.678   8.887  0.3993 -0.4963 -0.4162
   88SAPS  H18X 8542   7.127   5.609   8.911 -1.1767 -1.2646  3.6035
   88SAPS  H18Y 8543   7.027   5.732   8.982 -1.5235  0.4553 -1.2371
   88SAPS  H18Z 8544   7.076   5.760   8.819  0.3586  1.1877  1.4900
   89SAPS     N 8545   6.304   1.162  10.844  0.1386 -0.1915  0.3546
   89SAPS   HN1 8546   6.340   1.140  10.939 -0.9008 -0.4104  0.7098
   89SAPS   HN2 8547   6.201   1.169  10.856  0.0610 -2.0484  1.1004
   89SAPS   HN3 8548   6.318   1.092  10.769  1.8667  1.6003 -1.1141
   89SAPS   C12 8549   6.344   1.296  10.801 -0.1218  0.2353 -0.3168
   89SAPS  H12A 8550   6.264   1.362  10.831  1.0716  1.7373 -0.3361
   89SAPS   C13 8551   6.482   1.351  10.856  0.4758 -0.2193  0.5374
   89SAPS  O13A 8552   6.544   1.286  10.940  0.1438  0.1263 -0.0453
   89SAPS  O13B 8553   6.501   1.471  10.842 -0.1352 -0.5152 -0.6551
   89SAPS   C11 8554   6.336   1.292  10.643  0.5113 -0.2922 -0.0245
   89SAPS  H11A 8555   6.413   1.218  10.612  1.0657 -1.2235  3.2279
   89SAPS  H11B 8556   6.366   1.394  10.613  2.5774 -0.2040  2.0960
   89SAPS     P 8557   6.094   1.361  10.573  0.1032  0.0802  0.0315
   89SAPS   O13 8558   5.990   1.301  10.487 -0.6145 -0.0780  0.2403
   89SAPS   O14 8559   6.063   1.425  10.703  0.2759 -0.0165  0.0974
   89SAPS   O12 8560   6.198   1.247  10.599 -0.1974 -0.1073 -0.0619
   89SAPS   O11 8561   6.179   1.474  10.488  0.5590  0.6049 -0.2465
   89SAPS    C1 8562   6.250   1.430  10.370  0.6062  0.4310  0.6740
   89SAPS    HA 8563   6.341   1.494  10.366 -1.3213  3.5107  2.0253
   89SAPS    HB 8564   6.270   1.322  10.363  0.3515  0.2261  2.5415
   89SAPS    C2 8565   6.178   1.470  10.241 -0.0881  0.0993 -0.7936
   89SAPS    HS 8566   6.094   1.400  10.219  1.2535 -1.0328 -2.5823
   89SAPS   O21 8567   6.282   1.462  10.140  0.2251 -0.1582 -0.0802
   89SAPS   C21 8568   6.251   1.398  10.026 -0.5754 -0.1096 -0.1353
   89SAPS   O22 8569   6.147   1.342  10.008 -0.5352  0.5769  0.1494
   89SAPS   C22 8570   6.353   1.413   9.920  0.1901  0.5021 -0.5263
   89SAPS   H2R 8571   6.405   1.509   9.942  0.3001  0.1249  1.0082
   89SAPS   H2S 8572   6.425   1.329   9.921  1.2717  1.3765 -1.9042
   89SAPS    C3 8573   6.132   1.621  10.239 -0.0108 -0.0333 -0.0807
   89SAPS    HX 8574   6.216   1.690  10.262 -1.2076  1.4853 -0.1020
   89SAPS    HY 8575   6.055   1.638  10.317 -0.9405  1.4732 -1.2757
   89SAPS   O31 8576   6.088   1.661  10.111 -0.2712 -0.5379 -0.4114
   89SAPS   C31 8577   5.952   1.661  10.083  0.3259 -0.8890  0.6600
   89SAPS   O32 8578   5.867   1.633  10.162 -0.3043  0.3955  0.1531
   89SAPS   C32 8579   5.939   1.681   9.932  0.2045 -0.5600  0.2758
   89SAPS   H2X 8580   6.006   1.605   9.886  1.3706  0.0778  0.8947
   89SAPS   H2Y 8581   5.967   1.783   9.900 -0.2578 -1.3273 -2.9786
   89SAPS   C23 8582   6.279   1.418   9.790  0.8607 -0.0319  0.2752
   89SAPS   H3R 8583   6.222   1.512   9.774 -1.5765 -1.4579  0.0847
   89SAPS   H3S 8584   6.214   1.328   9.783 -1.4909  1.3404  2.5951
   89SAPS   C24 8585   6.377   1.412   9.669  0.6608  0.2910  0.0747
   89SAPS   H4R 8586   6.318   1.403   9.575  0.1957  0.6511  0.3252
   89SAPS   H4S 8587   6.421   1.311   9.675 -0.0567  0.0419  1.6283
   89SAPS   C25 8588   6.477   1.518   9.652  0.7409  0.0865 -0.4396
   89SAPS   H5R 8589   6.535   1.546   9.741 -0.4110 -1.5824  0.8958
   89SAPS   C26 8590   6.502   1.582   9.540  0.2367 -0.7011  0.3440
   89SAPS   H6R 8591   6.579   1.661   9.535 -1.1971  0.8128  1.1318
   89SAPS   C27 8592   6.433   1.555   9.405  0.5148 -0.5528 -0.5288
   89SAPS   H7R 8593   6.328   1.589   9.406  0.3979 -0.8373 -1.7355
   89SAPS   H7S 8594   6.419   1.444   9.403 -0.2551 -0.4940 -4.4931
   89SAPS   C28 8595   6.476   1.606   9.270 -0.3496 -0.1667 -0.3497
   89SAPS   H8R 8596   6.402   1.673   9.223  0.8183  1.7235  0.3926
   89SAPS   C29 8597   6.591   1.574   9.206  0.6417 -0.3786 -0.1952
   89SAPS   H9R 8598   6.604   1.611   9.103  0.6572 -3.6741 -1.4981
   89SAPS  C210 8599   6.696   1.483   9.258 -0.2307  0.3622  1.0729
   89SAPS  H10R 8600   6.649   1.416   9.333 -0.5643 -0.7393 -0.0856
   89SAPS  H10S 8601   6.776   1.540   9.309 -0.0280  0.4543  0.6540
   89SAPS  C211 8602   6.765   1.388   9.158 -0.9106  0.5077 -0.9448
   89SAPS  H11R 8603   6.731   1.287   9.182  1.0035 -0.1674 -0.8773
   89SAPS  C212 8604   6.863   1.403   9.068  0.0957 -0.5220 -0.6274
   89SAPS  H12R 8605   6.902   1.311   9.021 -1.7029 -2.6510  1.7872
   89SAPS  C213 8606   6.925   1.534   9.025  0.1734 -0.0996  0.4040
   89SAPS  H13R 8607   7.032   1.535   9.055 -0.1787 -1.1797  1.8009
   89SAPS  H13S 8608   6.882   1.616   9.088 -3.9769 -1.8512  0.1481
   89SAPS  C214 8609   6.897   1.552   8.875 -0.2180  0.1832 -0.4753
   89SAPS  H14R 8610   6.835   1.476   8.826 -0.1831 -0.1959  0.0646
   89SAPS  C215 8611   6.959   1.639   8.788  0.5893  0.3732 -0.0584
   89SAPS  H15R 8612   6.949   1.628   8.678  0.0685 -1.1906  0.1157
   89SAPS  C216 8613   7.063   1.744   8.810 -0.3709 -0.3366 -0.0119
   89SAPS  H16R 8614   7.071   1.782   8.914 -1.4649 -1.4154  0.4892
   89SAPS  H16S 8615   7.039   1.836   8.752  0.9058 -0.5343 -0.8716
   89SAPS  C217 8616   7.207   1.694   8.773 -0.3171 -0.2241  0.4678
   89SAPS  H17R 8617   7.240   1.634   8.860  1.1229 -2.0372 -1.2111
   89SAPS  H17S 8618   7.269   1.786   8.767 -0.5790 -0.0932 -0.4797
   89SAPS  C218 8619   7.216   1.620   8.640 -0.2362 -0.5135 -0.3336
   89SAPS  H18R 8620   7.182   1.682   8.554 -0.5749  1.9374  1.4634
   89SAPS  H18S 8621   7.153   1.529   8.649 -0.9962  0.0638  0.3304
   89SAPS  C219 8622   7.357   1.559   8.611  0.8857 -0.4282  0.1113
   89SAPS  H19R 8623   7.355   1.533   8.503  0.5327 -0.4649  0.1272
   89SAPS  H19S 8624   7.385   1.468   8.667 -1.5596 -1.1054  0.3246
   89SAPS  C220 8625   7.473   1.656   8.637 -0.4413  0.4703  0.5112
   89SAPS  H20R 8626   7.509   1.654   8.742 -1.0144  1.5000  0.7443
   89SAPS  H20S 8627   7.443   1.761   8.617 -1.3556  0.2675  0.7642
   89SAPS  H20T 8628   7.567   1.634   8.581 -2.9712 -3.0813 -2.8176
   89SAPS   C33 8629   5.798   1.662   9.880 -0.6041  0.0042 -0.2179
   89SAPS   H3X 8630   5.737   1.742   9.929 -0.6798 -1.5289  2.3301
   89SAPS   H3Y 8631   5.760   1.565   9.917  3.0373 -1.4458  0.1032
   89SAPS   C34 8632   5.796   1.664   9.725  0.3064 -1.2194 -0.2874
   89SAPS   H4X 8633   5.813   1.771   9.698  1.3142 -1.2045  0.3351
   89SAPS   H4Y 8634   5.693   1.639   9.693  0.8523 -2.7481 -0.9253
   89SAPS   C35 8635   5.893   1.571   9.657 -0.2706  0.2848  0.4656
   89SAPS   H5X 8636   5.897   1.463   9.682  1.0633  0.5337  1.4210
   89SAPS   H5Y 8637   5.999   1.597   9.679 -0.5219  1.8816 -0.0573
   89SAPS   C36 8638   5.872   1.578   9.503 -0.6132  0.0824  0.5493
   89SAPS   H6X 8639   5.862   1.682   9.466 -1.0942  0.2817  1.2267
   89SAPS   H6Y 8640   5.777   1.524   9.481  0.1188 -1.2603  0.5412
   89SAPS   C37 8641   5.986   1.516   9.424 -0.5414  0.1938  0.0630
   89SAPS   H7X 8642   5.963   1.407   9.422  0.3626 -0.0411  1.1370
   89SAPS   H7Y 8643   6.078   1.539   9.482 -1.3037 -2.1523  2.4123
   89SAPS   C38 8644   5.986   1.574   9.280  0.1325 -0.4690  0.5529
   89SAPS   H8X 8645   6.085   1.567   9.230  0.2202  0.5666  0.5590
   89SAPS   H8Y 8646   5.986   1.685   9.291 -1.4597  0.0833 -3.3532
   89SAPS   C39 8647   5.879   1.526   9.180 -0.0142  0.4321  0.0902
   89SAPS   H9X 8648   5.774   1.533   9.216 -1.1140 -2.5277 -2.1537
   89SAPS   H9Y 8649   5.877   1.415   9.171 -0.7750  0.4780 -0.3478
   89SAPS  C310 8650   5.884   1.611   9.054  0.7266  0.3494  0.4067
   89SAPS  H10X 8651   5.985   1.621   9.008  0.4817  0.0614 -0.2078
   89SAPS  H10Y 8652   5.852   1.713   9.084  0.1536 -0.4628  2.6917
   89SAPS  C311 8653   5.797   1.552   8.945  0.3008  0.0649  0.3844
   89SAPS  H11X 8654   5.691   1.552   8.978  0.2843  1.2797  0.3683
   89SAPS  H11Y 8655   5.832   1.454   8.908  0.4661  0.4120 -0.4071
   89SAPS  C312 8656   5.791   1.636   8.815  0.2736 -0.2748  0.6971
   89SAPS  H12X 8657   5.895   1.652   8.776  0.5591  0.8949  1.8574
   89SAPS  H12Y 8658   5.774   1.738   8.856  2.0121  0.6077 -0.5897
   89SAPS  C313 8659   5.684   1.621   8.706  0.3522  0.2427 -0.4142
   89SAPS  H13X 8660   5.615   1.540   8.738  2.3700 -1.3637  0.1121
   89SAPS  H13Y 8661   5.740   1.579   8.620  4.0121  1.7580  0.9874
   89SAPS  C314 8662   5.604   1.743   8.666 -0.1603  0.4086 -0.1776
   89SAPS  H14X 8663   5.668   1.806   8.601 -1.3837  1.7607 -0.1267
   89SAPS  H14Y 8664   5.567   1.791   8.760 -1.4933 -2.3609  0.8214
   89SAPS  C315 8665   5.483   1.708   8.583  0.3986  0.7643  0.0931
   89SAPS  H15X 8666   5.406   1.659   8.646  3.7205 -2.1306  2.2548
   89SAPS  H15Y 8667   5.501   1.622   8.516  0.3685 -0.9688  2.2183
   89SAPS  C316 8668   5.437   1.818   8.489  0.3758  0.2676  0.0223
   89SAPS  H16X 8669   5.525   1.876   8.454 -0.0578  0.6992 -0.3774
   89SAPS  H16Y 8670   5.384   1.878   8.566 -1.2080 -0.6579 -0.3060
   89SAPS  C317 8671   5.332   1.765   8.388  0.3302  0.4083  0.3878
   89SAPS  H17X 8672   5.271   1.680   8.427  0.9755 -0.1713  0.1561
   89SAPS  H17Y 8673   5.407   1.734   8.311 -0.0337  0.6199 -0.0599
   89SAPS  C318 8674   5.246   1.874   8.325  0.5051 -0.1385 -0.3711
   89SAPS  H18X 8675   5.308   1.964   8.304 -1.8487  1.2349 -1.8158
   89SAPS  H18Y 8676   5.166   1.905   8.394  1.0603 -0.4174  0.4118
   89SAPS  H18Z 8677   5.203   1.838   8.229  0.3506 -2.1483  0.3938
   90SAPS     N 8678   1.475   0.953  10.930  0.0126  0.0185 -0.2953
   90SAPS   HN1 8679   1.415   1.015  10.871 -0.0310  0.6330  0.3903
   90SAPS   HN2 8680   1.462   0.963  11.032 -0.2831 -1.5445 -0.1640
   90SAPS   HN3 8681   1.577   0.968  10.921 -0.2490  1.0453 -2.2978
   90SAPS   C12 8682   1.442   0.815  10.882  0.1258  0.0095  0.1128
   90SAPS  H12A 8683   1.524   0.753  10.915  0.8613  1.1877  0.5852
   90SAPS   C13 8684   1.309   0.747  10.933  0.4329  0.6629 -0.2839
   90SAPS  O13A 8685   1.224   0.812  11.001  0.1149  0.5082 -0.4111
   90SAPS  O13B 8686   1.292   0.623  10.909  0.3582 -0.1027 -0.7346
   90SAPS   C11 8687   1.443   0.821  10.728  0.9309  0.8119  0.7523
   90SAPS  H11A 8688   1.370   0.894  10.687  0.2658 -0.5640 -0.6203
   90SAPS  H11B 8689   1.419   0.721  10.686 -2.3202  1.5845  0.4609
   90SAPS     P 8690   1.621   0.855  10.540 -0.2001  0.0132 -0.1400
   90SAPS   O13 8691   1.762   0.810  10.545  0.2398 -0.1830  0.1640
   90SAPS   O14 8692   1.533   0.781  10.450  0.2436  0.0799  0.0776
   90SAPS   O12 8693   1.570   0.855  10.689 -0.2738  0.7759 -0.0223
   90SAPS   O11 8694   1.611   1.005  10.501 -0.1031 -0.5825  0.3987
   90SAPS    C1 8695   1.496   1.066  10.447  0.7736 -0.8386  0.1976
   90SAPS    HA 8696   1.407   1.002  10.466  0.6123 -0.6377  0.1208
   90SAPS    HB 8697   1.471   1.163  10.495 -0.6739 -1.6034  1.0764
   90SAPS    C2 8698   1.517   1.090  10.295  0.0251 -0.2818 -0.3398
   90SAPS    HS 8699   1.442   1.169  10.274 -0.4801  0.1468  2.6068
   90SAPS   O21 8700   1.502   0.963  10.224  0.3797 -0.5798 -0.4019
   90SAPS   C21 8701   1.463   0.976  10.106  0.0671  0.9334  0.4226
   90SAPS   O22 8702   1.424   1.079  10.050 -0.4083 -0.0641 -0.2133
   90SAPS   C22 8703   1.472   0.845  10.030 -0.2502 -0.1554 -0.0091
   90SAPS   H2R 8704   1.580   0.836  10.009 -0.2941 -0.3629 -0.1493
   90SAPS   H2S 8705   1.436   0.759  10.089  0.9032 -1.7724 -1.5411
   90SAPS    C3 8706   1.656   1.155  10.275 -0.4928  0.4678 -0.1947
   90SAPS    HX 8707   1.714   1.063  10.297 -0.5098  0.2043 -1.2095
   90SAPS    HY 8708   1.692   1.226  10.352  1.1293 -1.6416  1.0883
   90SAPS   O31 8709   1.683   1.195  10.147 -0.1731 -0.7189  0.1833
   90SAPS   C31 8710   1.607   1.299  10.112 -0.1706 -0.3613 -0.2655
   90SAPS   O32 8711   1.541   1.374  10.180 -0.1807  0.8172  0.0116
   90SAPS   C32 8712   1.645   1.327   9.964  0.3009 -0.2765 -1.1844
   90SAPS   H2X 8713   1.724   1.259   9.924  1.2214  0.4467 -0.6508
   90SAPS   H2Y 8714   1.676   1.433   9.960 -0.2602 -0.1544 -2.7635
   90SAPS   C23 8715   1.388   0.855   9.894 -0.3499  0.1360  0.7333
   90SAPS   H3R 8716   1.430   0.929   9.823 -1.4216  3.0106  2.9137
   90SAPS   H3S 8717   1.286   0.885   9.925 -1.6125 -2.4211 -0.5919
   90SAPS   C24 8718   1.382   0.718   9.811 -0.4232  0.5334  0.3352
   90SAPS   H4R 8719   1.344   0.644   9.886  2.3017  0.4505  1.7513
   90SAPS   H4S 8720   1.485   0.689   9.783 -0.8123  0.0113 -0.5803
   90SAPS   C25 8721   1.282   0.738   9.708 -0.7799 -0.1340 -0.4679
   90SAPS   H5R 8722   1.179   0.760   9.741 -1.0538 -0.2968 -1.2027
   90SAPS   C26 8723   1.307   0.737   9.574 -0.1333  0.7866  0.2113
   90SAPS   H6R 8724   1.222   0.744   9.505 -0.3953 -0.5665  0.3756
   90SAPS   C27 8725   1.446   0.712   9.514  0.4371  0.1684 -0.1391
   90SAPS   H7R 8726   1.522   0.754   9.583 -1.7751  2.6522  0.9347
   90SAPS   H7S 8727   1.456   0.763   9.416  1.7236  1.1317  0.4572
   90SAPS   C28 8728   1.480   0.566   9.499 -0.0169  1.1046 -0.4199
   90SAPS   H8R 8729   1.471   0.512   9.594  1.1902  2.0758  0.2654
   90SAPS   C29 8730   1.529   0.493   9.397 -0.5032  0.1791 -0.1493
   90SAPS   H9R 8731   1.537   0.384   9.403  3.7812  0.3323 -0.1237
   90SAPS  C210 8732   1.566   0.541   9.262  0.1588 -0.1667 -0.5567
   90SAPS  H10R 8733   1.483   0.599   9.217  2.0859  2.3122 -1.1180
   90SAPS  H10S 8734   1.584   0.457   9.192  0.3660  0.0783 -0.8013
   90SAPS  C211 8735   1.684   0.641   9.267 -0.2149 -0.0192  0.4356
   90SAPS  H11R 8736   1.715   0.672   9.368 -0.7113  2.5598 -0.1184
   90SAPS  C212 8737   1.742   0.706   9.162 -0.4282  0.1815  0.2909
   90SAPS  H12R 8738   1.838   0.759   9.170  0.1450  0.1017 -3.8491
   90SAPS  C213 8739   1.705   0.682   9.020  0.1078 -0.4349  0.1814
   90SAPS  H13R 8740   1.689   0.782   8.975  2.9905  1.3663  2.8110
   90SAPS  H13S 8741   1.610   0.624   9.018 -0.1583  0.0010 -0.3424
   90SAPS  C214 8742   1.829   0.627   8.945  0.8648  0.1295 -0.0198
   90SAPS  H14R 8743   1.926   0.654   8.988  0.4032  0.3308  0.9066
   90SAPS  C215 8744   1.840   0.550   8.840 -0.3599 -0.2497  0.3793
   90SAPS  H15R 8745   1.936   0.536   8.789 -1.2438  0.6287 -1.6677
   90SAPS  C216 8746   1.709   0.496   8.777  1.0830 -0.4169 -0.2052
   90SAPS  H16R 8747   1.657   0.572   8.715 -1.2369 -0.3307  1.7055
   90SAPS  H16S 8748   1.636   0.472   8.857  1.0049  1.5918  0.3810
   90SAPS  C217 8749   1.744   0.381   8.676  0.0578 -0.1491 -1.2295
   90SAPS  H17R 8750   1.804   0.414   8.588  1.2053  0.5852 -0.2012
   90SAPS  H17S 8751   1.644   0.345   8.642  0.4232 -1.1408 -1.2951
   90SAPS  C218 8752   1.809   0.252   8.741 -0.1007  0.2229  0.3026
   90SAPS  H18R 8753   1.850   0.276   8.841  0.1715 -0.4071  0.3482
   90SAPS  H18S 8754   1.886   0.225   8.665 -0.7632  1.1270 -0.7268
   90SAPS  C219 8755   1.713   0.133   8.757  0.0285  0.6428 -0.3052
   90SAPS  H19R 8756   1.781   0.045   8.753 -1.5755 -0.6802  0.2511
   90SAPS  H19S 8757   1.651   0.121   8.665 -0.0529  0.2270 -0.1987
   90SAPS  C220 8758   1.626   0.133   8.886  0.3353 -0.6054 -0.3038
   90SAPS  H20R 8759   1.557   0.220   8.881  1.5241  0.3062 -2.6791
   90SAPS  H20S 8760   1.698   0.138   8.970 -0.6939 -2.6786  0.7910
   90SAPS  H20T 8761   1.573   0.038   8.910 -2.9993  1.1799  0.0346
   90SAPS   C33 8762   1.521   1.311   9.872 -0.0112 -0.3388  0.1956
   90SAPS   H3X 8763   1.432   1.313   9.938  0.1372 -3.4315  0.6632
   90SAPS   H3Y 8764   1.518   1.207   9.832 -0.9382 -0.3002  0.1586
   90SAPS   C34 8765   1.520   1.395   9.747  0.0091  0.4876  0.1949
   90SAPS   H4X 8766   1.550   1.502   9.758 -0.4945  0.5529  1.0372
   90SAPS   H4Y 8767   1.417   1.395   9.705 -0.6009  1.1195  1.6045
   90SAPS   C35 8768   1.615   1.349   9.640 -0.0844  0.4692  0.0877
   90SAPS   H5X 8769   1.592   1.245   9.607 -0.5894  0.7742 -0.5470
   90SAPS   H5Y 8770   1.712   1.342   9.693 -0.8724 -0.1436  1.5406
   90SAPS   C36 8771   1.617   1.439   9.518 -0.4692  0.0019  0.4614
   90SAPS   H6X 8772   1.664   1.534   9.553  0.4362  0.3510 -1.5196
   90SAPS   H6Y 8773   1.512   1.453   9.485 -0.5391  0.2546  0.7899
   90SAPS   C37 8774   1.705   1.388   9.404 -0.3862  0.0383 -0.0900
   90SAPS   H7X 8775   1.804   1.350   9.437  0.8185  0.7016 -2.6972
   90SAPS   H7Y 8776   1.726   1.482   9.348  0.6309  0.0830  0.3586
   90SAPS   C38 8777   1.633   1.293   9.308 -0.0606  0.5043  0.1461
   90SAPS   H8X 8778   1.543   1.347   9.272 -0.6588 -0.9303 -0.5893
   90SAPS   H8Y 8779   1.598   1.202   9.361  0.5037 -0.7250 -1.5112
   90SAPS   C39 8780   1.741   1.256   9.197  0.6231  0.4779  0.4230
   90SAPS   H9X 8781   1.714   1.161   9.148  0.3019  0.8518 -0.1299
   90SAPS   H9Y 8782   1.842   1.248   9.243  0.8900  0.7559 -0.1060
   90SAPS  C310 8783   1.726   1.363   9.083 -0.8517  0.6237 -0.1533
   90SAPS  H10X 8784   1.722   1.460   9.136  0.0707  1.0824 -0.8994
   90SAPS  H10Y 8785   1.631   1.336   9.031 -1.1947  0.0347  0.7535
   90SAPS  C311 8786   1.846   1.369   8.986 -0.1900 -0.4612 -0.3600
   90SAPS  H11X 8787   1.847   1.273   8.931  0.1303 -0.1979 -0.8271
   90SAPS  H11Y 8788   1.934   1.373   9.055 -0.8836  2.1279  0.5046
   90SAPS  C312 8789   1.830   1.487   8.899  0.3345 -0.4030  0.3005
   90SAPS  H12X 8790   1.846   1.584   8.952 -2.0809 -0.6490  1.6232
   90SAPS  H12Y 8791   1.726   1.509   8.866  1.4825 -0.5098 -3.8674
   90SAPS  C313 8792   1.914   1.483   8.777  0.2524  0.0890 -0.2409
   90SAPS  H13X 8793   1.878   1.407   8.704  0.7968 -1.2850  0.8562
   90SAPS  H13Y 8794   2.019   1.460   8.806  0.5148  1.9557  0.4017
   90SAPS  C314 8795   1.918   1.609   8.691 -0.2281  0.8376  0.6754
   90SAPS  H14X 8796   1.983   1.683   8.744  1.4533 -0.7990  1.0378
   90SAPS  H14Y 8797   1.813   1.643   8.677 -0.1066  1.0257  0.2010
   90SAPS  C315 8798   1.967   1.580   8.549 -0.2126  0.3324  0.2783
   90SAPS  H15X 8799   1.930   1.661   8.481 -1.2855  0.4775  1.0046
   90SAPS  H15Y 8800   1.921   1.484   8.518  0.5008  0.2262 -0.4891
   90SAPS  C316 8801   2.115   1.579   8.531 -0.6018  0.0597 -0.2523
   90SAPS  H16X 8802   2.162   1.494   8.585  2.3432  2.4722  1.3302
   90SAPS  H16Y 8803   2.157   1.668   8.583 -0.1130 -1.3379  1.9017
   90SAPS  C317 8804   2.159   1.549   8.386  0.3832  0.2120 -0.6070
   90SAPS  H17X 8805   2.115   1.628   8.320  0.4002  0.4465 -0.3413
   90SAPS  H17Y 8806   2.109   1.453   8.364 -0.4398 -0.0356  2.0149
   90SAPS  C318 8807   2.306   1.555   8.357  0.8873  0.3094  0.1712
   90SAPS  H18X 8808   2.322   1.562   8.247 -3.1188 -1.2704 -0.7111
   90SAPS  H18Y 8809   2.353   1.466   8.404 -0.4641 -0.7402 -0.3849
   90SAPS  H18Z 8810   2.360   1.641   8.403  1.4484 -0.3370  0.7417
   91SAPS     N 8811   5.189   5.084   6.062  0.3321 -0.3936 -0.4234
   91SAPS   HN1 8812   5.251   5.100   6.144 -0.3288 -0.7614  0.1542
   91SAPS   HN2 8813   5.089   5.091   6.089  0.3173  2.7763 -0.8434
   91SAPS   HN3 8814   5.199   4.987   6.027 -1.3164 -1.7438  2.5129
   91SAPS   C12 8815   5.232   5.177   5.958 -0.0383  0.1142 -0.5733
   91SAPS  H12A 8816   5.340   5.170   5.958 -0.0428 -0.0104 -1.1066
   91SAPS   C13 8817   5.199   5.147   5.816  0.5175 -0.2990 -0.2200
   91SAPS  O13A 8818   5.107   5.071   5.787 -0.1252  0.0011 -0.0612
   91SAPS  O13B 8819   5.266   5.205   5.723  0.3148 -0.7273 -0.4592
   91SAPS   C11 8820   5.188   5.323   5.987  0.3025  0.2722 -0.1061
   91SAPS  H11A 8821   5.078   5.318   6.006  0.1128  1.1398 -0.8671
   91SAPS  H11B 8822   5.188   5.387   5.896 -2.1135  1.9892  0.9747
   91SAPS     P 8823   5.299   5.539   6.100 -0.0576  0.2453  0.2084
   91SAPS   O13 8824   5.432   5.574   6.045 -0.0286  0.0025 -0.3236
   91SAPS   O14 8825   5.193   5.608   6.029  0.4360  0.5899 -0.3353
   91SAPS   O12 8826   5.278   5.383   6.085  0.3373  0.3541 -0.0167
   91SAPS   O11 8827   5.286   5.560   6.255  0.4921  0.0316  0.4107
   91SAPS    C1 8828   5.356   5.683   6.297  0.0601  0.2720 -0.2828
   91SAPS    HA 8829   5.427   5.641   6.371 -0.3515  0.0092 -0.0312
   91SAPS    HB 8830   5.409   5.745   6.221  1.2674  0.3040  0.5563
   91SAPS    C2 8831   5.251   5.772   6.379 -0.0428  0.0278  0.0093
   91SAPS    HS 8832   5.295   5.866   6.419  3.1023 -1.9072  1.4934
   91SAPS   O21 8833   5.207   5.702   6.495 -0.1044 -0.0184  0.1609
   91SAPS   C21 8834   5.271   5.724   6.605 -0.4780  0.3299 -0.1775
   91SAPS   O22 8835   5.353   5.812   6.631  0.3229 -1.1281 -0.3578
   91SAPS   C22 8836   5.202   5.625   6.711 -0.2659 -0.5922 -0.1107
   91SAPS   H2R 8837   5.096   5.657   6.719  0.1106  0.4555  1.1485
   91SAPS   H2S 8838   5.214   5.529   6.657  0.7228 -0.4800 -0.1128
   91SAPS    C3 8839   5.123   5.803   6.288 -0.8156 -0.0342 -0.1256
   91SAPS    HX 8840   5.071   5.714   6.245  0.4906 -0.8553 -0.0445
   91SAPS    HY 8841   5.165   5.859   6.202 -0.8538 -0.0506 -0.1547
   91SAPS   O31 8842   5.039   5.893   6.356  0.5020 -0.3104 -0.1769
   91SAPS   C31 8843   5.092   6.013   6.393 -0.0243  0.3231 -0.5970
   91SAPS   O32 8844   5.199   6.064   6.361  0.0404 -0.1952  0.0016
   91SAPS   C32 8845   4.996   6.064   6.501 -0.1946  0.1996 -0.6104
   91SAPS   H2X 8846   4.897   6.013   6.496 -0.1298  0.1297 -1.2204
   91SAPS   H2Y 8847   4.986   6.173   6.484 -1.6088  0.3130  0.7351
   91SAPS   C23 8848   5.267   5.634   6.854  0.4103 -0.1165  1.0290
   91SAPS   H3R 8849   5.255   5.740   6.887  2.1356  0.7501 -0.9439
   91SAPS   H3S 8850   5.374   5.608   6.847  0.4311  0.2277 -0.1252
   91SAPS   C24 8851   5.201   5.535   6.955  0.3650 -0.2213 -0.3913
   91SAPS   H4R 8852   5.274   5.521   7.038  1.8647 -1.0410 -1.8082
   91SAPS   H4S 8853   5.201   5.431   6.916  0.4919 -0.5321  0.4160
   91SAPS   C25 8854   5.061   5.578   6.999 -0.1297  0.0604  0.6173
   91SAPS   H5R 8855   4.978   5.559   6.930 -0.8807  1.2064  1.1678
   91SAPS   C26 8856   5.030   5.652   7.108 -0.0408  0.1388  0.5986
   91SAPS   H6R 8857   4.924   5.663   7.137  0.2830  0.6997  1.6288
   91SAPS   C27 8858   5.132   5.720   7.208  0.1443  0.5601 -0.2247
   91SAPS   H7R 8859   5.079   5.814   7.234 -1.8056 -0.4238 -0.4763
   91SAPS   H7S 8860   5.230   5.741   7.160  0.5095 -2.7128 -1.1609
   91SAPS   C28 8861   5.165   5.635   7.319 -0.0223 -0.5757 -0.1419
   91SAPS   H8R 8862   5.242   5.558   7.301 -0.5615 -1.9790  2.8952
   91SAPS   C29 8863   5.111   5.646   7.444 -0.5934 -0.1273 -0.6130
   91SAPS   H9R 8864   5.157   5.587   7.524  0.2612  0.8736 -0.3400
   91SAPS  C210 8865   5.013   5.745   7.493 -0.6464 -0.6034 -0.2056
   91SAPS  H10R 8866   4.922   5.691   7.526  0.4479 -1.8746  0.8143
   91SAPS  H10S 8867   4.965   5.799   7.408 -2.7924 -3.5308 -1.0060
   91SAPS  C211 8868   5.079   5.842   7.589  0.2908 -0.1484 -0.4273
   91SAPS  H11R 8869   5.121   5.935   7.548 -1.0435  1.6995  2.1204
   91SAPS  C212 8870   5.087   5.824   7.726 -0.4163 -0.2706 -0.1681
   91SAPS  H12R 8871   5.127   5.909   7.782  0.6318  1.3313 -3.1214
   91SAPS  C213 8872   5.035   5.704   7.803  0.4580 -0.0266 -0.1838
   91SAPS  H13R 8873   5.126   5.657   7.843  0.5366  1.2461  1.2081
   91SAPS  H13S 8874   4.989   5.626   7.738 -2.9751  0.5478  1.3212
   91SAPS  C214 8875   4.923   5.730   7.898  0.5774  0.1267 -0.2646
   91SAPS  H14R 8876   4.822   5.719   7.855 -0.2444  1.0778  1.3328
   91SAPS  C215 8877   4.934   5.769   8.027 -0.6457  0.2358  0.0079
   91SAPS  H15R 8878   4.843   5.791   8.084 -1.8356 -0.2819 -1.6362
   91SAPS  C216 8879   5.070   5.786   8.090 -0.7861 -0.5739  0.5913
   91SAPS  H16R 8880   5.146   5.796   8.010 -1.8083  0.5229 -0.2886
   91SAPS  H16S 8881   5.108   5.700   8.149 -0.1332  1.7634  3.8819
   91SAPS  C217 8882   5.059   5.910   8.185 -0.7022  0.1161  0.0520
   91SAPS  H17R 8883   5.023   5.987   8.113 -3.1867 -2.1571 -1.3621
   91SAPS  H17S 8884   5.162   5.932   8.219  0.1419 -2.6410 -0.4621
   91SAPS  C218 8885   4.987   5.892   8.315  0.4754  0.5653  0.6070
   91SAPS  H18R 8886   5.056   5.867   8.398 -0.0706 -1.8454  0.3910
   91SAPS  H18S 8887   4.915   5.808   8.305  2.5907 -1.2997  0.1673
   91SAPS  C219 8888   4.924   6.021   8.349 -0.6520  0.1036  0.3008
   91SAPS  H19R 8889   4.867   6.055   8.260 -0.0622 -1.3527 -0.6786
   91SAPS  H19S 8890   5.003   6.097   8.370 -1.3585  0.1088  3.2991
   91SAPS  C220 8891   4.831   6.012   8.471 -0.1765  0.3478 -0.2958
   91SAPS  H20R 8892   4.756   5.931   8.466 -0.5761  0.7830 -3.1061
   91SAPS  H20S 8893   4.780   6.110   8.485 -0.7922  0.0635 -0.5273
   91SAPS  H20T 8894   4.887   6.001   8.567 -3.1205 -3.3629  1.2377
   91SAPS   C33 8895   5.056   6.046   6.639  0.2609  0.1628 -0.1195
   91SAPS   H3X 8896   5.167   6.061   6.637  0.2639  0.0708 -0.6306
   91SAPS   H3Y 8897   5.035   5.946   6.683 -1.7911  0.4829 -0.2749
   91SAPS   C34 8898   4.997   6.147   6.743 -0.4228  0.0141 -0.1025
   91SAPS   H4X 8899   4.886   6.135   6.744 -0.4440  0.0928 -0.9175
   91SAPS   H4Y 8900   5.012   6.252   6.708 -0.2369  0.5674  1.5683
   91SAPS   C35 8901   5.060   6.126   6.878  0.3172 -0.2448  0.1343
   91SAPS   H5X 8902   5.171   6.133   6.889  0.2958 -0.4513  0.5197
   91SAPS   H5Y 8903   5.035   6.023   6.912 -1.4296 -0.5723 -1.9733
   91SAPS   C36 8904   4.992   6.214   6.986 -0.2152  0.8684  0.0916
   91SAPS   H6X 8905   4.888   6.176   6.997 -0.4677  1.0266 -1.4995
   91SAPS   H6Y 8906   4.987   6.320   6.954 -0.7084  1.2931  1.5189
   91SAPS   C37 8907   5.062   6.204   7.123 -0.1614  0.0626  0.3055
   91SAPS   H7X 8908   5.171   6.200   7.103 -0.3056 -1.4855 -0.3155
   91SAPS   H7Y 8909   5.043   6.103   7.167 -3.9894  0.5953  0.2071
   91SAPS   C38 8910   5.017   6.308   7.219  0.0271  0.0143  0.3019
   91SAPS   H8X 8911   4.907   6.300   7.210  0.0000  0.7262 -0.1388
   91SAPS   H8Y 8912   5.065   6.405   7.193 -0.5134  0.3385  0.5066
   91SAPS   C39 8913   5.071   6.270   7.362 -0.2563 -0.0526 -0.8045
   91SAPS   H9X 8914   5.182   6.261   7.362 -0.0263  1.0464 -4.4019
   91SAPS   H9Y 8915   5.015   6.180   7.394  0.4363 -1.1697 -2.5554
   91SAPS  C310 8916   5.032   6.385   7.461  0.3345  0.8078  0.3531
   91SAPS  H10X 8917   4.922   6.393   7.449  0.2530 -0.2887  0.2819
   91SAPS  H10Y 8918   5.092   6.473   7.429  0.8534  0.0313 -0.8796
   91SAPS  C311 8919   5.061   6.360   7.608  0.7177 -0.3625 -0.6383
   91SAPS  H11X 8920   5.168   6.365   7.637  0.1433 -0.0688  1.6702
   91SAPS  H11Y 8921   5.018   6.259   7.624  0.8212 -0.4031 -0.6134
   91SAPS  C312 8922   4.990   6.457   7.694  0.1811 -0.1729  0.4905
   91SAPS  H12X 8923   4.905   6.503   7.638  0.8213  0.2019 -0.1938
   91SAPS  H12Y 8924   5.064   6.533   7.725 -0.5787  0.5853  0.4766
   91SAPS  C313 8925   4.937   6.412   7.824 -0.5934  0.6888 -0.0315
   91SAPS  H13X 8926   5.014   6.347   7.872  2.1859  3.2857 -0.6530
   91SAPS  H13Y 8927   4.864   6.335   7.791  1.5665 -2.2301  1.4266
   91SAPS  C314 8928   4.898   6.527   7.917  0.1501  0.4748 -0.0131
   91SAPS  H14X 8929   4.833   6.603   7.867 -0.5291 -0.5923 -0.8050
   91SAPS  H14Y 8930   4.989   6.589   7.932  0.0583  0.6156 -0.0292
   91SAPS  C315 8931   4.829   6.480   8.043  0.0955 -0.2226 -0.3978
   91SAPS  H15X 8932   4.905   6.413   8.088 -1.4553 -1.1951  0.8794
   91SAPS  H15Y 8933   4.734   6.424   8.027 -0.9427  1.1315  0.6934
   91SAPS  C316 8934   4.786   6.595   8.141  0.7055 -0.6334  0.8492
   91SAPS  H16X 8935   4.715   6.655   8.080  0.6125  2.2878  3.5668
   91SAPS  H16Y 8936   4.882   6.648   8.161  1.2597 -1.9585  1.9129
   91SAPS  C317 8937   4.722   6.542   8.267 -0.8818  0.3207  0.1891
   91SAPS  H17X 8938   4.784   6.464   8.315  0.1060  0.7096 -0.4410
   91SAPS  H17Y 8939   4.626   6.496   8.234  0.1604 -1.2848 -0.7418
   91SAPS  C318 8940   4.686   6.640   8.376 -0.7844  0.5744 -0.8021
   91SAPS  H18X 8941   4.639   6.736   8.347  0.5212  0.7159 -2.6292
   91SAPS  H18Y 8942   4.779   6.671   8.429  0.4825 -1.2768 -1.8139
   91SAPS  H18Z 8943   4.608   6.592   8.440 -0.5857  0.1982 -0.8393
   92SAPS     N 8944   4.349   3.685   6.412  0.2718 -0.3316  0.0095
   92SAPS   HN1 8945   4.367   3.730   6.504 -0.0906  1.7937 -0.8936
   92SAPS   HN2 8946   4.295   3.748   6.350 -0.0528 -0.2860  0.3319
   92SAPS   HN3 8947   4.286   3.604   6.426 -0.3370  0.2603  0.7946
   92SAPS   C12 8948   4.474   3.631   6.350  0.2532  0.3600 -0.8273
   92SAPS  H12A 8949   4.498   3.537   6.397 -1.0016 -0.0226 -0.9253
   92SAPS   C13 8950   4.465   3.607   6.192 -0.5981 -0.0163 -0.4405
   92SAPS  O13A 8951   4.352   3.607   6.136 -0.0868 -0.1214 -0.0287
   92SAPS  O13B 8952   4.574   3.572   6.140  0.4060 -0.5454 -0.0761
   92SAPS   C11 8953   4.582   3.738   6.373 -0.5458 -0.6311 -0.6639
   92SAPS  H11A 8954   4.549   3.817   6.302 -0.0613  0.1954  0.0188
   92SAPS  H11B 8955   4.687   3.707   6.352  1.2302  0.9631  4.3693
   92SAPS     P 8956   4.684   3.884   6.568 -0.3338  0.1959 -0.2293
   92SAPS   O13 8957   4.687   4.003   6.476 -0.5449 -0.6669 -0.6453
   92SAPS   O14 8958   4.656   3.922   6.709 -0.0506  0.1044  0.0410
   92SAPS   O12 8959   4.569   3.789   6.510 -0.0362  0.0608 -0.1725
   92SAPS   O11 8960   4.816   3.795   6.554  0.4693  0.4643  0.4707
   92SAPS    C1 8961   4.829   3.655   6.591  0.1768 -0.5928 -0.7962
   92SAPS    HA 8962   4.734   3.606   6.620 -0.7062  2.3318  1.8334
   92SAPS    HB 8963   4.877   3.598   6.509  1.1749 -0.4874 -0.3070
   92SAPS    C2 8964   4.930   3.644   6.713  0.8945 -0.2584  0.6605
   92SAPS    HS 8965   4.941   3.535   6.734 -0.3202 -0.6818 -0.6987
   92SAPS   O21 8966   4.871   3.712   6.821  0.2064  0.0248 -0.2662
   92SAPS   C21 8967   4.828   3.639   6.915  0.3189 -0.2898 -0.3393
   92SAPS   O22 8968   4.817   3.515   6.915  0.5645  0.3682  0.3498
   92SAPS   C22 8969   4.785   3.722   7.039 -0.1099  0.2634  0.6343
   92SAPS   H2R 8970   4.836   3.820   7.027  0.0035  0.4336  2.3209
   92SAPS   H2S 8971   4.676   3.737   7.030 -0.1382 -0.0264  0.4972
   92SAPS    C3 8972   5.066   3.712   6.696  0.1210 -0.3827  0.4181
   92SAPS    HX 8973   5.055   3.822   6.687  0.0780 -0.5537 -2.6992
   92SAPS    HY 8974   5.106   3.680   6.598 -0.9563 -0.3317 -0.0454
   92SAPS   O31 8975   5.154   3.677   6.799  0.4119 -0.2732  0.0899
   92SAPS   C31 8976   5.276   3.720   6.799 -0.0919  0.3050 -0.1315
   92SAPS   O32 8977   5.325   3.775   6.703  0.6877 -0.1122 -0.1252
   92SAPS   C32 8978   5.345   3.696   6.931  0.0269 -0.0652  0.3079
   92SAPS   H2X 8979   5.453   3.710   6.908  0.2781  3.1375  2.7476
   92SAPS   H2Y 8980   5.327   3.589   6.953  2.1736 -1.4951 -3.8107
   92SAPS   C23 8981   4.825   3.665   7.176  0.2631  0.3921 -0.2640
   92SAPS   H3R 8982   4.936   3.668   7.185  0.2140  0.7858  0.2855
   92SAPS   H3S 8983   4.804   3.556   7.177 -3.3651  0.9489  1.1030
   92SAPS   C24 8984   4.764   3.730   7.299  0.2233 -0.2101 -0.3923
   92SAPS   H4R 8985   4.795   3.660   7.379 -1.5868 -2.5263 -1.6078
   92SAPS   H4S 8986   4.654   3.730   7.283 -0.0982  0.1783  1.5131
   92SAPS   C25 8987   4.804   3.870   7.334  0.0193 -0.3993  0.1539
   92SAPS   H5R 8988   4.805   3.937   7.247 -3.7287 -1.0340 -0.5499
   92SAPS   C26 8989   4.832   3.926   7.456 -0.4310  0.1498 -0.5185
   92SAPS   H6R 8990   4.865   4.030   7.461 -0.2524  0.0661  0.1171
   92SAPS   C27 8991   4.825   3.862   7.593  0.8403  0.0719  0.6266
   92SAPS   H7R 8992   4.845   3.935   7.674  0.7659 -1.1495  1.7733
   92SAPS   H7S 8993   4.913   3.795   7.602  2.4241  2.0486  0.6647
   92SAPS   C28 8994   4.688   3.806   7.630  0.3325  0.3767 -0.0665
   92SAPS   H8R 8995   4.601   3.847   7.577  1.7774  0.4184 -2.5712
   92SAPS   C29 8996   4.671   3.718   7.732 -0.5713  0.5045 -0.1096
   92SAPS   H9R 8997   4.572   3.684   7.764 -0.4305 -1.6300 -1.6854
   92SAPS  C210 8998   4.786   3.648   7.804 -0.3801  0.7181  0.2875
   92SAPS  H10R 8999   4.878   3.709   7.801 -0.3467  0.6540 -0.0639
   92SAPS  H10S 9000   4.806   3.547   7.761 -1.3624  0.3878  0.5733
   92SAPS  C211 9001   4.753   3.647   7.952 -0.7066  0.0150  0.1892
   92SAPS  H11R 9002   4.690   3.562   7.985 -1.8991  1.3951  1.6323
   92SAPS  C212 9003   4.777   3.742   8.041  0.2620 -0.0184  0.0028
   92SAPS  H12R 9004   4.740   3.726   8.144  0.0671  1.7588  0.2409
   92SAPS  C213 9005   4.829   3.881   8.006 -0.2114 -0.2236  0.0741
   92SAPS  H13R 9006   4.751   3.949   8.046 -0.5444  1.0081 -2.5061
   92SAPS  H13S 9007   4.818   3.900   7.897 -2.6732 -0.7762  0.1742
   92SAPS  C214 9008   4.959   3.930   8.058 -0.3235  0.1224  0.7310
   92SAPS  H14R 9009   5.031   3.973   7.986 -0.8388  1.0998  0.7869
   92SAPS  C215 9010   4.994   3.929   8.190  0.1857 -0.3384  0.4339
   92SAPS  H15R 9011   5.096   3.960   8.218 -0.2849  0.8138  0.9281
   92SAPS  C216 9012   4.908   3.884   8.306  0.2811  0.3276 -0.3176
   92SAPS  H16R 9013   4.799   3.882   8.286  0.2551  2.0639 -0.4900
   92SAPS  H16S 9014   4.920   3.956   8.390 -2.1131  3.0743 -2.1707
   92SAPS  C217 9015   4.944   3.734   8.339  0.8677  0.7859 -0.9481
   92SAPS  H17R 9016   5.052   3.719   8.355  0.5931  0.8928  1.3171
   92SAPS  H17S 9017   4.914   3.672   8.252  0.8923  1.9263 -1.8055
   92SAPS  C218 9018   4.874   3.695   8.473  0.6059 -0.0125  0.1461
   92SAPS  H18R 9019   4.914   3.766   8.549  2.2425 -0.1460 -0.5559
   92SAPS  H18S 9020   4.897   3.591   8.505  1.3886  0.2981  0.6263
   92SAPS  C219 9021   4.717   3.709   8.476  0.2679 -1.0636 -0.3089
   92SAPS  H19R 9022   4.683   3.633   8.402  0.0217 -1.4162  0.1597
   92SAPS  H19S 9023   4.687   3.811   8.443 -2.8439 -2.1060 -1.1158
   92SAPS  C220 9024   4.645   3.687   8.608 -0.5490  0.2881  0.2581
   92SAPS  H20R 9025   4.539   3.715   8.591 -0.4012 -0.3429 -2.1690
   92SAPS  H20S 9026   4.701   3.743   8.685  1.5952 -2.0410  0.5044
   92SAPS  H20T 9027   4.647   3.580   8.636 -0.6924 -0.3911 -2.0895
   92SAPS   C33 9028   5.288   3.774   7.046  0.2409  0.3158 -0.3753
   92SAPS   H3X 9029   5.178   3.777   7.032  0.2722 -0.9400 -0.9884
   92SAPS   H3Y 9030   5.329   3.878   7.040  3.8341 -1.0230 -1.8189
   92SAPS   C34 9031   5.325   3.707   7.177 -0.4979 -0.1769 -0.5095
   92SAPS   H4X 9032   5.431   3.674   7.168 -0.1028  1.0092 -0.4197
   92SAPS   H4Y 9033   5.263   3.615   7.173 -2.2817  1.0178 -2.0215
   92SAPS   C35 9034   5.300   3.795   7.299 -0.1348  0.2312  0.6943
   92SAPS   H5X 9035   5.193   3.807   7.327 -0.2170  0.2725  0.3644
   92SAPS   H5Y 9036   5.348   3.892   7.275 -1.3895  0.4066 -1.4097
   92SAPS   C36 9037   5.369   3.729   7.418  0.3820  0.3977 -0.4229
   92SAPS   H6X 9038   5.406   3.812   7.483 -1.0078 -0.1130  1.0614
   92SAPS   H6Y 9039   5.455   3.670   7.379  1.2561  1.7899 -0.7010
   92SAPS   C37 9040   5.262   3.645   7.497  0.5879 -0.9705 -0.4336
   92SAPS   H7X 9041   5.253   3.546   7.448 -1.3300 -2.4770  2.6719
   92SAPS   H7Y 9042   5.160   3.688   7.497 -0.9472 -3.9201  4.1987
   92SAPS   C38 9043   5.292   3.621   7.647  0.1538  0.0092  0.1517
   92SAPS   H8X 9044   5.325   3.716   7.693 -0.7868  0.4082  0.0347
   92SAPS   H8Y 9045   5.368   3.542   7.664 -1.3890 -1.4138  0.8461
   92SAPS   C39 9046   5.165   3.581   7.724  0.7479 -0.2028  0.6606
   92SAPS   H9X 9047   5.115   3.502   7.665  0.0217  2.2713 -2.2740
   92SAPS   H9Y 9048   5.100   3.671   7.727  0.9925  0.0010  0.0005
   92SAPS  C310 9049   5.206   3.529   7.864 -0.7815 -0.2526  0.1208
   92SAPS  H10X 9050   5.267   3.437   7.874 -1.1964 -0.4323  1.0833
   92SAPS  H10Y 9051   5.114   3.510   7.922 -0.9290  2.1136  0.7848
   92SAPS  C311 9052   5.277   3.641   7.953 -0.2078 -0.1261  0.0902
   92SAPS  H11X 9053   5.224   3.733   7.921  0.5398  0.5705  0.8022
   92SAPS  H11Y 9054   5.385   3.652   7.930 -0.2832  0.6736  0.0931
   92SAPS  C312 9055   5.256   3.621   8.106  0.6544  0.4401  0.7293
   92SAPS  H12X 9056   5.147   3.602   8.109 -0.0420  3.0415 -2.5510
   92SAPS  H12Y 9057   5.282   3.709   8.169 -0.9192  2.6445 -1.5111
   92SAPS  C313 9058   5.347   3.509   8.156 -0.6016  0.5769 -0.3322
   92SAPS  H13X 9059   5.453   3.518   8.126 -0.4646 -0.7009 -0.2879
   92SAPS  H13Y 9060   5.307   3.420   8.103  1.7115  0.2664 -1.6819
   92SAPS  C314 9061   5.350   3.492   8.304  0.0649  0.4674 -0.7336
   92SAPS  H14X 9062   5.392   3.394   8.336 -1.7885 -0.0211  0.3485
   92SAPS  H14Y 9063   5.246   3.491   8.342  0.5038  1.2322  0.5553
   92SAPS  C315 9064   5.434   3.598   8.386  0.3376  0.0616  0.1917
   92SAPS  H15X 9065   5.371   3.690   8.381 -1.8764 -1.4389 -0.9402
   92SAPS  H15Y 9066   5.530   3.615   8.332 -0.4791  0.2423 -1.2491
   92SAPS  C316 9067   5.465   3.572   8.537 -0.4265  0.2496  0.3140
   92SAPS  H16X 9068   5.533   3.484   8.536 -1.7092 -0.8077 -1.6907
   92SAPS  H16Y 9069   5.372   3.562   8.597 -0.3875 -2.1785  0.0845
   92SAPS  C317 9070   5.558   3.683   8.598  0.2954  0.4032 -0.0592
   92SAPS  H17X 9071   5.572   3.652   8.703 -2.7802 -2.9665 -0.4530
   92SAPS  H17Y 9072   5.511   3.784   8.598 -3.3628 -1.1557  0.7448
   92SAPS  C318 9073   5.693   3.692   8.515  0.6691  0.3865 -0.5815
   92SAPS  H18X 9074   5.731   3.589   8.494 -0.5642 -0.2074 -0.0196
   92SAPS  H18Y 9075   5.776   3.754   8.555  0.4492  0.3916 -0.1198
   92SAPS  H18Z 9076   5.655   3.735   8.420 -0.8325  1.8820  0.6207
   93SAPS     N 9077   5.585   3.687   6.412 -0.2870 -0.7891  0.4040
   93SAPS   HN1 9078   5.491   3.660   6.377  0.4869 -1.7315 -1.0477
   93SAPS   HN2 9079   5.586   3.686   6.516  1.1860 -0.5271  0.4151
   93SAPS   HN3 9080   5.599   3.787   6.385 -2.3368 -0.4180  0.5450
   93SAPS   C12 9081   5.681   3.589   6.354 -0.9357  0.3409 -0.1857
   93SAPS  H12A 9082   5.650   3.486   6.367  5.1505 -1.8466  0.3735
   93SAPS   C13 9083   5.689   3.603   6.209  0.0279 -0.2140 -0.1062
   93SAPS  O13A 9084   5.602   3.665   6.138 -0.8432  0.7043 -0.7311
   93SAPS  O13B 9085   5.768   3.516   6.159 -0.0979 -0.5328  0.5415
   93SAPS   C11 9086   5.818   3.622   6.426 -0.3056 -0.9643 -0.2535
   93SAPS  H11A 9087   5.899   3.554   6.390 -0.0580 -0.5951 -0.3992
   93SAPS  H11B 9088   5.799   3.600   6.533  1.4542 -1.6185 -0.0336
   93SAPS     P 9089   5.983   3.823   6.476  0.2732  0.2503  0.3384
   93SAPS   O13 9090   6.096   3.723   6.460 -0.2813 -0.3675  0.0595
   93SAPS   O14 9091   5.999   3.962   6.430  0.0333 -0.3779  0.3116
   93SAPS   O12 9092   5.853   3.763   6.406 -0.1584  0.3649  0.2876
   93SAPS   O11 9093   5.953   3.829   6.623 -0.2819 -0.4959  0.4798
   93SAPS    C1 9094   5.847   3.914   6.672 -0.3110 -0.1419  0.1910
   93SAPS    HA 9095   5.860   4.022   6.652  0.5556  0.1615  2.1314
   93SAPS    HB 9096   5.748   3.884   6.631 -1.5351  1.9438  1.4407
   93SAPS    C2 9097   5.843   3.905   6.830 -0.0293 -0.4711 -0.2129
   93SAPS    HS 9098   5.774   3.984   6.867 -0.0689 -0.3500 -0.5397
   93SAPS   O21 9099   5.973   3.937   6.889  0.0893 -0.1614  0.7305
   93SAPS   C21 9100   6.004   4.064   6.885 -0.3219 -0.5758 -0.5758
   93SAPS   O22 9101   5.931   4.159   6.856 -0.4460  0.3624  0.1954
   93SAPS   C22 9102   6.150   4.083   6.926 -0.5585  0.5981 -0.6472
   93SAPS   H2R 9103   6.189   3.990   6.972 -0.7160  1.9921  2.6049
   93SAPS   H2S 9104   6.202   4.118   6.835  0.2538  0.4882 -0.2322
   93SAPS    C3 9105   5.780   3.764   6.872 -0.8249  0.1290  0.3476
   93SAPS    HX 9106   5.848   3.686   6.832  3.8868  3.3625  1.2620
   93SAPS    HY 9107   5.680   3.761   6.824 -0.3412 -0.9802 -0.6313
   93SAPS   O31 9108   5.757   3.749   7.012  0.3709 -0.0132  0.3203
   93SAPS   C31 9109   5.870   3.714   7.079  0.5370 -0.3317 -0.1833
   93SAPS   O32 9110   5.980   3.701   7.030  0.1884 -0.3498 -0.2662
   93SAPS   C32 9111   5.825   3.696   7.224  0.1543  0.0414 -0.0755
   93SAPS   H2X 9112   5.743   3.620   7.226  1.5075 -1.7290 -3.4364
   93SAPS   H2Y 9113   5.779   3.794   7.249 -1.6872 -0.6597 -0.5638
   93SAPS   C23 9114   6.167   4.181   7.047 -0.0990 -0.4952  0.5766
   93SAPS   H3R 9115   6.100   4.268   7.030 -1.4086 -1.4664  0.5333
   93SAPS   H3S 9116   6.274   4.206   7.058  0.9082 -3.9473 -0.1377
   93SAPS   C24 9117   6.120   4.122   7.185 -0.1749 -0.0986 -0.1672
   93SAPS   H4R 9118   6.178   4.031   7.211 -0.0341  0.3535  1.1948
   93SAPS   H4S 9119   6.015   4.089   7.174 -0.9157  1.7239  0.9913
   93SAPS   C25 9120   6.142   4.223   7.295 -0.0329 -0.0580  0.0153
   93SAPS   H5R 9121   6.184   4.318   7.257 -0.6656  0.8097  1.4098
   93SAPS   C26 9122   6.139   4.205   7.426  0.5747  0.0734  0.2180
   93SAPS   H6R 9123   6.173   4.284   7.495 -1.2159 -0.0561  1.3064
   93SAPS   C27 9124   6.110   4.074   7.491 -0.2301  0.8076  0.4412
   93SAPS   H7R 9125   6.204   4.043   7.542  0.6069 -0.6974 -1.8568
   93SAPS   H7S 9126   6.089   3.991   7.421  0.5909  0.3954  0.6768
   93SAPS   C28 9127   5.988   4.085   7.580  0.6672  0.0452 -0.4244
   93SAPS   H8R 9128   5.894   4.076   7.523 -0.0757 -1.9148  0.9889
   93SAPS   C29 9129   5.982   4.098   7.713  0.0490 -0.7561  0.5011
   93SAPS   H9R 9130   5.885   4.087   7.763  0.4797 -0.9882  1.2961
   93SAPS  C210 9131   6.098   4.100   7.813  0.4098 -0.2527 -0.2829
   93SAPS  H10R 9132   6.091   4.197   7.867  1.8462  0.5401 -1.4610
   93SAPS  H10S 9133   6.194   4.110   7.758 -0.4301 -0.8381 -1.9027
   93SAPS  C211 9134   6.094   3.971   7.901  0.4519  0.0226  0.1312
   93SAPS  H11R 9135   6.108   3.872   7.856 -0.1639 -0.3014  0.6397
   93SAPS  C212 9136   6.074   3.963   8.033 -0.0708 -0.5243 -0.2730
   93SAPS  H12R 9137   6.092   3.869   8.087  0.3600  0.4114  1.2715
   93SAPS  C213 9138   6.045   4.080   8.123  0.2804  1.0924 -0.2062
   93SAPS  H13R 9139   5.957   4.040   8.177 -0.1916 -0.5573 -2.0808
   93SAPS  H13S 9140   6.012   4.173   8.072 -0.8407  0.7509 -0.1308
   93SAPS  C214 9141   6.172   4.101   8.203  0.3554 -0.6617 -0.1787
   93SAPS  H14R 9142   6.250   4.128   8.130  0.6457  1.2809  0.7980
   93SAPS  C215 9143   6.189   4.103   8.339  0.4213  0.0230  0.7972
   93SAPS  H15R 9144   6.285   4.117   8.391 -0.8259  0.8247  3.0035
   93SAPS  C216 9145   6.073   4.091   8.437 -0.1469  0.6193  0.4140
   93SAPS  H16R 9146   5.970   4.088   8.396 -0.8549 -1.5432  2.1549
   93SAPS  H16S 9147   6.064   4.176   8.508 -1.1147  0.5123  0.4346
   93SAPS  C217 9148   6.098   3.973   8.536  0.0933  0.6283  0.1582
   93SAPS  H17R 9149   6.017   3.962   8.611 -1.3418  2.7174 -1.0000
   93SAPS  H17S 9150   6.184   3.985   8.606  0.8209  0.3856 -0.6743
   93SAPS  C218 9151   6.123   3.834   8.469  0.6821 -0.3736  0.0895
   93SAPS  H18R 9152   6.213   3.847   8.405 -0.1918  2.9984 -0.6448
   93SAPS  H18S 9153   6.036   3.806   8.406 -0.0881  1.8681  0.0455
   93SAPS  C219 9154   6.139   3.727   8.580 -0.0277 -0.1814 -0.3683
   93SAPS  H19R 9155   6.043   3.722   8.635 -0.3327 -0.0084 -0.8710
   93SAPS  H19S 9156   6.214   3.758   8.656 -0.6854  0.1872  0.1308
   93SAPS  C220 9157   6.176   3.591   8.522 -0.2422 -0.1046 -0.1075
   93SAPS  H20R 9158   6.264   3.609   8.456  0.1781  2.5224  1.0836
   93SAPS  H20S 9159   6.087   3.567   8.460 -1.2278  2.4982  0.1739
   93SAPS  H20T 9160   6.196   3.509   8.594  0.3364  0.5449  0.4891
   93SAPS   C33 9161   5.938   3.657   7.328  0.0873 -0.2018 -0.2519
   93SAPS   H3X 9162   6.019   3.732   7.335  1.0381 -1.3303  1.9984
   93SAPS   H3Y 9163   5.979   3.558   7.298  0.3912  0.2088 -1.2217
   93SAPS   C34 9164   5.880   3.657   7.473 -0.2504  0.4747 -0.0802
   93SAPS   H4X 9165   5.784   3.603   7.484 -1.0295  1.6971 -0.7125
   93SAPS   H4Y 9166   5.862   3.764   7.496  2.8111  1.1501 -0.2872
   93SAPS   C35 9167   5.973   3.606   7.576 -0.0276  0.1067 -0.8667
   93SAPS   H5X 9168   6.065   3.668   7.586  0.3993 -0.5532 -0.6498
   93SAPS   H5Y 9169   5.998   3.501   7.552  2.5320  1.0480 -2.7900
   93SAPS   C36 9170   5.897   3.618   7.712  0.0350  0.1351  0.2349
   93SAPS   H6X 9171   5.802   3.561   7.711 -0.3922  0.7894  1.2202
   93SAPS   H6Y 9172   5.878   3.724   7.740 -1.7616 -0.8078  3.0487
   93SAPS   C37 9173   5.983   3.553   7.823  0.2797  0.4431  0.6673
   93SAPS   H7X 9174   6.088   3.587   7.813  1.0049 -2.1853 -2.1609
   93SAPS   H7Y 9175   5.993   3.444   7.803 -1.9103 -0.0916  2.1593
   93SAPS   C38 9176   5.941   3.575   7.963  0.9343  0.1842 -0.3566
   93SAPS   H8X 9177   5.892   3.672   7.984  0.0632 -0.1639 -0.7112
   93SAPS   H8Y 9178   6.033   3.591   8.023  1.9471  1.0791 -2.0571
   93SAPS   C39 9179   5.869   3.455   8.019  0.7651  1.0292 -0.1960
   93SAPS   H9X 9180   5.940   3.370   8.023  1.3145  1.5172  0.5247
   93SAPS   H9Y 9181   5.796   3.417   7.944  0.0503  0.2880  0.8496
   93SAPS  C310 9182   5.822   3.489   8.161  1.1844  0.7028 -0.4333
   93SAPS  H10X 9183   5.758   3.580   8.166 -2.0780 -1.5103  2.4294
   93SAPS  H10Y 9184   5.908   3.506   8.230  0.4475 -1.4533  1.1319
   93SAPS  C311 9185   5.717   3.389   8.227 -0.0694  0.5859  0.1145
   93SAPS  H11X 9186   5.635   3.373   8.154 -0.7711 -1.6899  1.3160
   93SAPS  H11Y 9187   5.680   3.431   8.323  0.3798  1.0484  0.0938
   93SAPS  C312 9188   5.783   3.254   8.254 -0.2086 -0.8308  0.1340
   93SAPS  H12X 9189   5.840   3.229   8.162 -0.2962  0.6248 -0.3370
   93SAPS  H12Y 9190   5.707   3.177   8.279  1.6513 -1.8136  3.3321
   93SAPS  C313 9191   5.884   3.252   8.366  0.1913 -0.2259  0.6115
   93SAPS  H13X 9192   5.831   3.279   8.460  0.6380  0.4768  0.6672
   93SAPS  H13Y 9193   5.970   3.313   8.329  0.6148 -1.4750 -0.5466
   93SAPS  C314 9194   5.941   3.113   8.395  0.4952 -0.5608 -0.0983
   93SAPS  H14X 9195   6.018   3.080   8.322  0.7454 -0.8981  0.3140
   93SAPS  H14Y 9196   5.863   3.034   8.402 -1.7358  1.5344  0.1363
   93SAPS  C315 9197   6.001   3.124   8.531  0.2360 -0.2429  0.0977
   93SAPS  H15X 9198   5.911   3.131   8.596  1.2557 -1.8730  1.7614
   93SAPS  H15Y 9199   6.069   3.211   8.542  1.0697 -0.7582 -0.8303
   93SAPS  C316 9200   6.072   3.004   8.578  0.2873 -0.2980  0.2022
   93SAPS  H16X 9201   6.161   3.006   8.511 -1.4161  1.7484 -2.1903
   93SAPS  H16Y 9202   6.012   2.915   8.551 -1.7482  1.6951 -2.4235
   93SAPS  C317 9203   6.107   2.998   8.729  0.2202  0.3885 -0.1987
   93SAPS  H17X 9204   6.016   3.003   8.792  0.9249 -0.0605  0.8768
   93SAPS  H17Y 9205   6.168   3.086   8.757  1.5947 -0.5047 -0.2918
   93SAPS  C318 9206   6.185   2.869   8.763 -0.0420  0.1139  0.5413
   93SAPS  H18X 9207   6.193   2.833   8.868 -0.7151 -0.2964  0.4605
   93SAPS  H18Y 9208   6.286   2.882   8.720 -0.0301 -0.7872  0.2590
   93SAPS  H18Z 9209   6.138   2.783   8.709  2.1530  0.9196 -3.0227
   94SAPS     N 9210   6.692   6.741   5.911 -0.0148 -0.0783 -0.0723
   94SAPS   HN1 9211   6.742   6.650   5.904 -1.6258 -1.0916  1.0304
   94SAPS   HN2 9212   6.704   6.789   6.002 -0.8662  1.3085 -0.6665
   94SAPS   HN3 9213   6.593   6.712   5.902  0.0712 -0.8193  1.0903
   94SAPS   C12 9214   6.731   6.822   5.791  0.0296 -0.2885  0.8786
   94SAPS  H12A 9215   6.815   6.885   5.814 -2.6149  4.1623 -0.3425
   94SAPS   C13 9216   6.753   6.740   5.656 -0.8179  0.8757  0.0800
   94SAPS  O13A 9217   6.747   6.615   5.660 -0.3240  0.3625  0.0959
   94SAPS  O13B 9218   6.760   6.796   5.545 -0.3111  0.7694  0.3193
   94SAPS   C11 9219   6.615   6.927   5.770 -0.3565  0.0201 -0.2726
   94SAPS  H11A 9220   6.520   6.883   5.732 -0.1424  0.8221 -1.7871
   94SAPS  H11B 9221   6.647   6.997   5.691  3.0171  0.5160  1.3422
   94SAPS     P 9222   6.520   7.136   5.880 -0.6034 -0.1743  0.1281
   94SAPS   O13 9223   6.580   7.237   5.961  0.1106 -0.6279 -0.0874
   94SAPS   O14 9224   6.501   7.170   5.737  0.2094  0.2176 -0.1119
   94SAPS   O12 9225   6.610   7.010   5.892  0.2190  0.1728  0.6678
   94SAPS   O11 9226   6.382   7.087   5.936 -0.4372  0.1368 -0.0067
   94SAPS    C1 9227   6.379   6.973   6.026 -0.3613 -0.0557  0.9534
   94SAPS    HA 9228   6.303   6.907   5.981  1.1550 -0.8158 -0.6192
   94SAPS    HB 9229   6.479   6.925   6.032 -0.1635 -0.1073 -1.7635
   94SAPS    C2 9230   6.337   7.005   6.164  0.2313  0.1076 -0.0888
   94SAPS    HS 9231   6.242   7.063   6.159  1.2624  2.4927  3.8047
   94SAPS   O21 9232   6.441   7.085   6.224  0.2001 -0.0509  0.4109
   94SAPS   C21 9233   6.411   7.215   6.217 -0.0630  0.0569 -0.2105
   94SAPS   O22 9234   6.335   7.271   6.143 -0.2751  0.3709  0.6224
   94SAPS   C22 9235   6.502   7.289   6.312 -0.0824 -0.0625 -0.6991
   94SAPS   H2R 9236   6.601   7.238   6.316  0.1734  0.4709  0.4014
   94SAPS   H2S 9237   6.522   7.390   6.271  2.1320 -0.1427  0.0354
   94SAPS    C3 9238   6.314   6.876   6.247  0.6813  0.0933  0.6046
   94SAPS    HX 9239   6.407   6.831   6.288  1.7291  1.3983 -0.2631
   94SAPS    HY 9240   6.268   6.799   6.182  1.9353 -0.6042  0.5348
   94SAPS   O31 9241   6.219   6.910   6.352  0.3603  0.1883  0.2222
   94SAPS   C31 9242   6.271   6.935   6.476  0.2850 -0.1612  0.8235
   94SAPS   O32 9243   6.391   6.942   6.502  0.4121 -0.3353 -0.2902
   94SAPS   C32 9244   6.153   6.955   6.570 -0.5127  0.1014  0.0221
   94SAPS   H2X 9245   6.102   6.858   6.586  0.5904 -0.4562  0.2656
   94SAPS   H2Y 9246   6.087   7.035   6.530  1.8320  1.6772 -0.9156
   94SAPS   C23 9247   6.463   7.300   6.458  1.2154 -0.1487  0.0240
   94SAPS   H3R 9248   6.449   7.199   6.502 -0.5553  0.3552  0.7308
   94SAPS   H3S 9249   6.357   7.334   6.464  1.5832  1.1418 -0.3672
   94SAPS   C24 9250   6.549   7.381   6.560  0.5010  0.3634  0.0126
   94SAPS   H4R 9251   6.477   7.394   6.644  2.5704 -0.3440  1.9854
   94SAPS   H4S 9252   6.575   7.479   6.514  1.8529  0.4038  0.8288
   94SAPS   C25 9253   6.671   7.300   6.592 -0.2250 -0.2519  0.5551
   94SAPS   H5R 9254   6.739   7.289   6.506 -0.1568 -2.9857  0.8525
   94SAPS   C26 9255   6.698   7.224   6.694 -0.3323  0.5578  0.2845
   94SAPS   H6R 9256   6.801   7.189   6.710 -0.8395 -0.7783  0.7535
   94SAPS   C27 9257   6.613   7.204   6.814  0.3210  0.2475  0.2579
   94SAPS   H7R 9258   6.635   7.102   6.852 -1.5469 -0.3936 -0.2583
   94SAPS   H7S 9259   6.504   7.209   6.794  0.5860  0.6341 -1.2114
   94SAPS   C28 9260   6.622   7.302   6.928  0.3142  0.5872  0.7089
   94SAPS   H8R 9261   6.657   7.403   6.902  0.0088  0.5987  0.3177
   94SAPS   C29 9262   6.598   7.276   7.056  0.4969 -0.4006 -0.1566
   94SAPS   H9R 9263   6.613   7.365   7.119 -3.4974 -0.7939  1.6599
   94SAPS  C210 9264   6.554   7.151   7.126  0.2518  0.2837  0.4893
   94SAPS  H10R 9265   6.642   7.083   7.138  1.5332  2.2105  2.9321
   94SAPS  H10S 9266   6.487   7.097   7.057  1.5747  0.7850 -1.2580
   94SAPS  C211 9267   6.475   7.171   7.258 -0.0847  0.4142  0.3088
   94SAPS  H11R 9268   6.420   7.267   7.252  0.7220  0.8077 -2.6631
   94SAPS  C212 9269   6.472   7.091   7.366 -0.5320  0.8591  0.5475
   94SAPS  H12R 9270   6.411   7.117   7.454 -4.1761 -1.1313 -1.1965
   94SAPS  C213 9271   6.540   6.955   7.388 -0.1053 -0.5544 -0.1619
   94SAPS  H13R 9272   6.621   6.985   7.457  0.5150  0.8986 -1.4695
   94SAPS  H13S 9273   6.597   6.924   7.298 -2.6183 -0.6043 -1.8507
   94SAPS  C214 9274   6.457   6.841   7.448  0.3795 -0.4141 -0.3231
   94SAPS  H14R 9275   6.464   6.821   7.556 -1.5563  0.4410  0.0104
   94SAPS  C215 9276   6.371   6.769   7.377  0.0880 -0.4080 -0.6293
   94SAPS  H15R 9277   6.319   6.691   7.434  0.8983  0.5689  1.5693
   94SAPS  C216 9278   6.341   6.774   7.231 -0.1429  0.0652  0.5791
   94SAPS  H16R 9279   6.381   6.867   7.187 -1.0307  0.0959 -0.1876
   94SAPS  H16S 9280   6.232   6.784   7.213  0.0896  0.5260 -0.6508
   94SAPS  C217 9281   6.398   6.647   7.160 -0.4066 -0.5044  0.2301
   94SAPS  H17R 9282   6.335   6.556   7.161  2.0219 -2.3889 -2.0020
   94SAPS  H17S 9283   6.490   6.616   7.213 -1.2076 -0.7339  1.5312
   94SAPS  C218 9284   6.412   6.686   7.013  0.4312  0.6154 -0.2860
   94SAPS  H18R 9285   6.486   6.767   6.994  0.0332  1.3185  1.0338
   94SAPS  H18S 9286   6.312   6.711   6.974  0.5510 -0.2514 -1.1842
   94SAPS  C219 9287   6.454   6.569   6.925 -0.7956 -0.3210  0.3995
   94SAPS  H19R 9288   6.382   6.486   6.940  0.9482 -1.7437  1.2410
   94SAPS  H19S 9289   6.554   6.530   6.955 -0.9161  1.2284  3.1083
   94SAPS  C220 9290   6.461   6.597   6.775  0.2167  0.3338 -0.0588
   94SAPS  H20R 9291   6.480   6.500   6.724  0.7084 -0.5900  1.7895
   94SAPS  H20S 9292   6.542   6.668   6.750  1.1266 -0.4311  0.6274
   94SAPS  H20T 9293   6.373   6.641   6.723  0.9422  1.1353 -0.6391
   94SAPS   C33 9294   6.206   6.993   6.711 -0.4021 -0.1325 -0.4899
   94SAPS   H3X 9295   6.258   7.091   6.705 -1.1946  0.2361 -2.2335
   94SAPS   H3Y 9296   6.268   6.909   6.748 -1.3146 -0.5150  0.1970
   94SAPS   C34 9297   6.100   7.000   6.831 -0.5964  0.3600 -0.0134
   94SAPS   H4X 9298   6.061   6.899   6.857  0.1044  0.3573  1.0723
   94SAPS   H4Y 9299   6.009   7.056   6.803 -0.0658  1.6478  0.7756
   94SAPS   C35 9300   6.159   7.062   6.960  0.2352 -0.1319  0.0981
   94SAPS   H5X 9301   6.204   7.161   6.936  0.6311 -0.3438 -0.0464
   94SAPS   H5Y 9302   6.248   7.002   6.987  2.3247  1.5902 -2.4176
   94SAPS   C36 9303   6.061   7.063   7.078 -0.3862  0.1292  0.2532
   94SAPS   H6X 9304   6.018   6.962   7.093  0.5091 -0.1152  1.3203
   94SAPS   H6Y 9305   5.975   7.130   7.059  1.0064  2.2729  1.0681
   94SAPS   C37 9306   6.130   7.107   7.212 -0.7114 -0.1056 -0.2647
   94SAPS   H7X 9307   6.195   7.192   7.183  0.7729 -1.5712 -1.4043
   94SAPS   H7Y 9308   6.194   7.020   7.237 -2.2608 -1.5696 -1.1148
   94SAPS   C38 9309   6.038   7.121   7.330 -0.8857 -0.6667 -0.2025
   94SAPS   H8X 9310   5.937   7.125   7.283 -1.2138 -0.3156  0.5206
   94SAPS   H8Y 9311   6.051   7.223   7.372 -1.3768 -0.1008 -1.3590
   94SAPS   C39 9312   6.050   7.016   7.434 -0.8247  0.4356 -0.1350
   94SAPS   H9X 9313   6.156   7.016   7.468 -0.1627 -0.6521 -2.0558
   94SAPS   H9Y 9314   6.041   6.914   7.391  0.7661  0.6547 -1.0731
   94SAPS  C310 9315   5.959   7.031   7.561 -0.6725 -0.9711  0.4442
   94SAPS  H10X 9316   5.854   7.018   7.527 -0.8616 -1.9405  1.3307
   94SAPS  H10Y 9317   5.969   7.137   7.594 -0.6644 -0.5132 -0.9787
   94SAPS  C311 9318   6.000   6.929   7.670 -0.0416  0.7725 -0.0038
   94SAPS  H11X 9319   6.100   6.949   7.713 -0.7712  0.5849  1.8589
   94SAPS  H11Y 9320   5.996   6.830   7.621 -0.0265  1.4364 -1.4098
   94SAPS  C312 9321   5.907   6.918   7.793 -0.2922  0.4039  0.2382
   94SAPS  H12X 9322   5.923   6.821   7.845  1.2626  0.7184  0.3833
   94SAPS  H12Y 9323   5.805   6.906   7.751  0.0779 -2.4424 -0.0142
   94SAPS  C313 9324   5.901   7.038   7.888  0.0600 -0.4689 -0.6308
   94SAPS  H13X 9325   5.819   7.027   7.962 -1.2268 -0.9194 -2.0728
   94SAPS  H13Y 9326   5.885   7.135   7.837  1.4455  0.2613  0.2487
   94SAPS  C314 9327   6.031   7.063   7.970 -0.0762 -0.3028 -1.0143
   94SAPS  H14X 9328   6.119   7.045   7.904 -0.4736 -1.5350 -1.2214
   94SAPS  H14Y 9329   6.024   6.993   8.056  1.4309 -2.0062 -2.1867
   94SAPS  C315 9330   6.048   7.209   8.021  0.9797 -0.0345  0.0828
   94SAPS  H15X 9331   6.043   7.269   7.928 -0.3165 -1.2375 -0.6557
   94SAPS  H15Y 9332   6.144   7.212   8.078 -0.0183  1.9723  1.7868
   94SAPS  C316 9333   5.938   7.242   8.118  0.3771 -0.4201 -0.6537
   94SAPS  H16X 9334   5.921   7.157   8.187  1.4921  0.4611  0.7760
   94SAPS  H16Y 9335   5.846   7.258   8.059  0.8154  0.3292 -1.1543
   94SAPS  C317 9336   5.964   7.369   8.192  0.4117 -0.7939 -0.3140
   94SAPS  H17X 9337   5.969   7.454   8.121 -4.1933  0.0155  0.0452
   94SAPS  H17Y 9338   6.065   7.362   8.238  0.5755  0.4313 -0.4579
   94SAPS  C318 9339   5.868   7.385   8.311  0.8335 -0.0806 -0.0273
   94SAPS  H18X 9340   5.846   7.289   8.364  2.7297  0.4411  1.8348
   94SAPS  H18Y 9341   5.771   7.432   8.283  1.0693  1.4820  1.5988
   94SAPS  H18Z 9342   5.909   7.450   8.390  0.3164  1.2558 -0.8313
   95SAPS     N 9343   2.588   3.713   6.419  0.2844  0.0206  0.2165
   95SAPS   HN1 9344   2.625   3.625   6.459 -0.3057 -0.2886  0.0978
   95SAPS   HN2 9345   2.559   3.779   6.494 -0.2518 -0.1656  0.1808
   95SAPS   HN3 9346   2.514   3.683   6.352 -0.4958 -2.7860  2.1208
   95SAPS   C12 9347   2.693   3.779   6.327  0.7059  0.1408 -0.1797
   95SAPS  H12A 9348   2.725   3.700   6.260 -0.2412 -1.8391  1.5809
   95SAPS   C13 9349   2.649   3.900   6.242 -1.5714  0.2183  0.2424
   95SAPS  O13A 9350   2.531   3.940   6.263 -0.4996  0.3954 -0.1802
   95SAPS  O13B 9351   2.707   3.921   6.135 -0.4846 -0.0194 -0.1539
   95SAPS   C11 9352   2.809   3.828   6.422  0.0702  0.0234 -0.1495
   95SAPS  H11A 9353   2.836   3.748   6.494  0.9391 -1.5437 -2.1185
   95SAPS  H11B 9354   2.776   3.917   6.480 -1.9299  0.0055 -1.1683
   95SAPS     P 9355   3.036   3.778   6.313  0.0536  0.3848 -0.2629
   95SAPS   O13 9356   2.982   3.671   6.229  0.1794  0.1248 -0.1173
   95SAPS   O14 9357   3.152   3.855   6.255  0.3530 -0.0892  0.4698
   95SAPS   O12 9358   2.925   3.872   6.360  0.4500  0.2245 -0.0874
   95SAPS   O11 9359   3.075   3.709   6.455  0.4886 -0.3345  0.0992
   95SAPS    C1 9360   3.158   3.786   6.549  0.1099  0.3331 -0.7399
   95SAPS    HA 9361   3.264   3.755   6.539  0.1148  0.5178 -1.3130
   95SAPS    HB 9362   3.164   3.896   6.533 -1.5532  0.4702 -0.6621
   95SAPS    C2 9363   3.112   3.752   6.705 -0.7641 -0.2821  0.3308
   95SAPS    HS 9364   3.057   3.655   6.711 -1.4686 -0.0227 -1.2754
   95SAPS   O21 9365   3.028   3.858   6.743 -0.1888 -0.6502 -0.5554
   95SAPS   C21 9366   2.912   3.824   6.791  0.0465 -0.3102  0.1707
   95SAPS   O22 9367   2.871   3.714   6.815 -0.2567 -0.0501  0.0763
   95SAPS   C22 9368   2.828   3.953   6.817  0.3388  1.0568  0.0938
   95SAPS   H2R 9369   2.800   4.008   6.725 -1.6629  0.7457  0.4807
   95SAPS   H2S 9370   2.732   3.911   6.852  1.4687 -0.6251  1.3857
   95SAPS    C3 9371   3.226   3.750   6.809  0.3257  0.1672  0.0339
   95SAPS    HX 9372   3.297   3.835   6.796 -1.2960  1.6422  0.5159
   95SAPS    HY 9373   3.292   3.660   6.809  0.0614 -0.0399 -0.7478
   95SAPS   O31 9374   3.173   3.750   6.945  0.4270  0.1377 -0.5626
   95SAPS   C31 9375   3.123   3.636   6.990 -0.5057 -0.5009 -0.8604
   95SAPS   O32 9376   3.149   3.524   6.950 -0.0241 -0.1087  0.0388
   95SAPS   C32 9377   3.042   3.671   7.111  0.6528 -0.8006 -0.3817
   95SAPS   H2X 9378   2.940   3.691   7.071  0.2605 -0.9791  0.5118
   95SAPS   H2Y 9379   3.081   3.767   7.152 -1.2215  0.5479 -1.5517
   95SAPS   C23 9380   2.877   4.045   6.925  0.1845 -0.5563  0.0788
   95SAPS   H3R 9381   2.962   4.111   6.897 -1.2988  1.4868  0.2265
   95SAPS   H3S 9382   2.907   3.984   7.013 -0.3439  0.6198  1.1090
   95SAPS   C24 9383   2.761   4.139   6.966 -0.6725 -0.6211 -0.3056
   95SAPS   H4R 9384   2.731   4.179   6.867  2.6395  2.3362 -0.2928
   95SAPS   H4S 9385   2.800   4.216   7.036 -1.7212 -0.7546  0.4497
   95SAPS   C25 9386   2.648   4.065   7.031 -0.2521 -0.4395  0.3613
   95SAPS   H5R 9387   2.575   4.025   6.960 -0.3568 -1.0466  0.8026
   95SAPS   C26 9388   2.636   4.049   7.161 -1.1494  0.2046  0.3946
   95SAPS   H6R 9389   2.550   3.991   7.198  0.4638 -1.6409  1.4712
   95SAPS   C27 9390   2.727   4.083   7.274 -0.5347  0.5442 -0.2745
   95SAPS   H7R 9391   2.682   4.161   7.339  0.9925 -0.0029  1.5434
   95SAPS   H7S 9392   2.825   4.121   7.238 -0.5107  0.1662 -0.6157
   95SAPS   C28 9393   2.752   3.965   7.363  0.5202  0.0716 -0.1112
   95SAPS   H8R 9394   2.770   3.874   7.303  0.4411 -0.8581  1.2377
   95SAPS   C29 9395   2.731   3.951   7.498 -0.4951 -0.7264  0.3575
   95SAPS   H9R 9396   2.746   3.861   7.559  1.0872  0.5549  1.9489
   95SAPS  C210 9397   2.679   4.065   7.585  0.3963 -0.0747  0.3206
   95SAPS  H10R 9398   2.606   4.019   7.655  1.6478 -0.1495  1.6054
   95SAPS  H10S 9399   2.617   4.142   7.534 -1.5476  0.8086  3.6882
   95SAPS  C211 9400   2.778   4.145   7.670  0.2401  0.1049  0.6793
   95SAPS  H11R 9401   2.854   4.194   7.608 -0.2670  1.2184  0.9144
   95SAPS  C212 9402   2.781   4.155   7.802 -0.1977  0.3045  0.3272
   95SAPS  H12R 9403   2.872   4.196   7.847  0.2065  0.6787 -0.7944
   95SAPS  C213 9404   2.684   4.088   7.897  0.1810 -1.5272  0.5203
   95SAPS  H13R 9405   2.578   4.107   7.872  1.0452  1.1221 -1.5557
   95SAPS  H13S 9406   2.700   4.135   7.996 -0.4895 -1.4198  0.5821
   95SAPS  C214 9407   2.705   3.936   7.918 -0.4411 -0.1612  0.5461
   95SAPS  H14R 9408   2.761   3.882   7.841  2.2909  2.0840  0.7945
   95SAPS  C215 9409   2.667   3.880   8.032  0.0713 -0.4168  0.3932
   95SAPS  H15R 9410   2.670   3.771   8.042 -0.1228 -0.4480  0.1219
   95SAPS  C216 9411   2.601   3.951   8.148 -0.1214 -0.0970 -0.2479
   95SAPS  H16R 9412   2.494   3.973   8.127 -1.3607 -2.0660  3.1422
   95SAPS  H16S 9413   2.651   4.047   8.173 -0.2669  0.2713 -1.3489
   95SAPS  C217 9414   2.602   3.853   8.272 -0.9466  0.0914  0.3116
   95SAPS  H17R 9415   2.537   3.765   8.254 -0.5542  0.3115 -2.6746
   95SAPS  H17S 9416   2.563   3.903   8.364 -0.2982  2.3478 -0.5775
   95SAPS  C218 9417   2.736   3.814   8.326 -0.5867 -0.2816 -0.2394
   95SAPS  H18R 9418   2.789   3.906   8.359 -0.9959 -0.7828  1.9888
   95SAPS  H18S 9419   2.803   3.769   8.250  0.4929 -2.5378  1.8958
   95SAPS  C219 9420   2.730   3.720   8.445 -0.1827 -0.7862  0.5924
   95SAPS  H19R 9421   2.726   3.615   8.409  0.1294 -0.9486  1.0165
   95SAPS  H19S 9422   2.635   3.738   8.500 -1.5173 -1.3503 -1.4120
   95SAPS  C220 9423   2.856   3.734   8.537  0.3259 -0.6345  0.6922
   95SAPS  H20R 9424   2.855   3.655   8.616 -0.2789 -0.6364  0.6883
   95SAPS  H20S 9425   2.862   3.835   8.582  2.7453 -0.0498 -0.7389
   95SAPS  H20T 9426   2.942   3.712   8.471  0.6162 -0.0407  0.8625
   95SAPS   C33 9427   3.020   3.560   7.218  0.2056  0.0384  0.5827
   95SAPS   H3X 9428   3.040   3.459   7.175 -1.0099 -0.2034  0.5545
   95SAPS   H3Y 9429   2.912   3.564   7.243  0.1363  2.0380  0.0771
   95SAPS   C34 9430   3.106   3.568   7.341 -0.2726  0.2300 -0.4281
   95SAPS   H4X 9431   3.215   3.582   7.321  0.6845 -2.0562  2.5294
   95SAPS   H4Y 9432   3.116   3.470   7.391 -0.9705  0.2365 -0.2658
   95SAPS   C35 9433   3.063   3.685   7.436  0.2516 -0.0731  0.2423
   95SAPS   H5X 9434   2.955   3.679   7.464 -0.1090 -0.6322 -1.1443
   95SAPS   H5Y 9435   3.078   3.782   7.383  0.3943 -0.0455  0.3360
   95SAPS   C36 9436   3.142   3.681   7.562  0.0222  0.1111 -0.2307
   95SAPS   H6X 9437   3.249   3.674   7.535  0.9253 -1.0632  3.1389
   95SAPS   H6Y 9438   3.100   3.593   7.616  0.8794 -0.9633 -1.2552
   95SAPS   C37 9439   3.110   3.817   7.642  0.1564  0.6003  0.1933
   95SAPS   H7X 9440   3.003   3.846   7.643  0.9861  4.0466  0.6971
   95SAPS   H7Y 9441   3.158   3.892   7.575  1.6715 -0.5315 -0.0402
   95SAPS   C38 9442   3.169   3.829   7.785  0.0521  0.4625 -0.1772
   95SAPS   H8X 9443   3.279   3.843   7.784  0.1716 -0.3517  0.6225
   95SAPS   H8Y 9444   3.144   3.741   7.847  1.6572 -0.1609 -0.3753
   95SAPS   C39 9445   3.105   3.953   7.844  0.2975 -0.4614 -0.4528
   95SAPS   H9X 9446   2.995   3.943   7.844  0.1234  0.6943  1.7844
   95SAPS   H9Y 9447   3.136   4.047   7.793  0.7114 -0.2475  0.1751
   95SAPS  C310 9448   3.145   3.959   7.991  0.1228  0.2154 -0.8039
   95SAPS  H10X 9449   3.157   3.860   8.041 -1.0307  0.5107  0.1040
   95SAPS  H10Y 9450   3.069   4.016   8.048  1.6862  0.0419  1.6366
   95SAPS  C311 9451   3.268   4.047   8.017 -0.1016  0.0041  0.8104
   95SAPS  H11X 9452   3.245   4.146   7.971  0.7852  0.4600  1.3133
   95SAPS  H11Y 9453   3.360   4.007   7.969 -0.0606  0.4394  0.5262
   95SAPS  C312 9454   3.273   4.069   8.170  0.2343  0.0136 -0.3617
   95SAPS  H12X 9455   3.282   3.972   8.223  0.7846  0.2470 -0.0181
   95SAPS  H12Y 9456   3.174   4.105   8.204  0.3917 -0.3543  0.5066
   95SAPS  C313 9457   3.380   4.173   8.220 -0.4397 -0.1874  0.1325
   95SAPS  H13X 9458   3.359   4.210   8.323 -1.3986 -1.8085  0.5529
   95SAPS  H13Y 9459   3.385   4.261   8.152  0.2118  1.3584  2.0547
   95SAPS  C314 9460   3.518   4.107   8.230 -1.0831 -0.4767 -0.7046
   95SAPS  H14X 9461   3.519   4.012   8.173  2.0709 -1.5112  0.7977
   95SAPS  H14Y 9462   3.537   4.077   8.336  2.2089 -2.5589 -1.7340
   95SAPS  C315 9463   3.643   4.206   8.214  0.3486 -0.3619 -0.2622
   95SAPS  H15X 9464   3.619   4.311   8.241  0.3477 -1.2081  3.7315
   95SAPS  H15Y 9465   3.687   4.193   8.113  2.1944  0.2413  0.4132
   95SAPS  C316 9466   3.758   4.187   8.317 -0.2441  0.1321  0.5768
   95SAPS  H16X 9467   3.716   4.183   8.420 -0.6274 -1.2314  0.3926
   95SAPS  H16Y 9468   3.835   4.264   8.296  0.2067 -0.8311 -1.5309
   95SAPS  C317 9469   3.831   4.063   8.291 -0.4361 -0.3149 -0.7787
   95SAPS  H17X 9470   3.875   4.063   8.189 -1.2991  0.8104 -1.1778
   95SAPS  H17Y 9471   3.754   3.985   8.303  0.1274 -0.6584  0.7528
   95SAPS  C318 9472   3.941   4.044   8.397 -0.7341 -0.9783 -0.7869
   95SAPS  H18X 9473   3.993   3.946   8.386  1.1580 -0.0753 -0.2632
   95SAPS  H18Y 9474   3.898   4.042   8.499  1.3639  0.9389  0.2065
   95SAPS  H18Z 9475   4.006   4.134   8.397  0.3405 -1.6388  2.2835
   96SAPS     N 9476   3.490   6.155   6.414 -0.2543  0.0052 -0.5465
   96SAPS   HN1 9477   3.401   6.207   6.425  0.1289  0.5508  0.1049
   96SAPS   HN2 9478   3.531   6.173   6.508 -0.2796 -0.1506 -0.5057
   96SAPS   HN3 9479   3.552   6.195   6.341 -1.8879  0.6454 -1.6305
   96SAPS   C12 9480   3.467   6.006   6.388 -0.3674 -0.2926  0.6353
   96SAPS  H12A 9481   3.420   5.969   6.478 -0.9927 -1.3571 -0.1206
   96SAPS   C13 9482   3.380   5.967   6.270 -0.2800  0.8495  0.1952
   96SAPS  O13A 9483   3.316   6.057   6.209 -0.2873  0.4118  0.4806
   96SAPS  O13B 9484   3.369   5.846   6.243 -0.1264 -0.2381  0.4791
   96SAPS   C11 9485   3.609   5.935   6.372 -0.2869  0.4476 -0.5345
   96SAPS  H11A 9486   3.652   5.943   6.271  2.0496 -2.3444  0.0968
   96SAPS  H11B 9487   3.583   5.827   6.376  0.2678  0.3309  2.7305
   96SAPS     P 9488   3.793   5.850   6.531 -0.0099  0.5209 -0.1908
   96SAPS   O13 9489   3.865   5.788   6.417  0.1225  0.2804  0.2808
   96SAPS   O14 9490   3.875   5.895   6.644  0.3011  0.2750  0.1618
   96SAPS   O12 9491   3.702   5.968   6.478 -0.3466 -0.0674 -0.5091
   96SAPS   O11 9492   3.680   5.747   6.580  0.3917 -0.4355  0.2473
   96SAPS    C1 9493   3.624   5.761   6.707 -0.1005 -0.1799 -0.2020
   96SAPS    HA 9494   3.681   5.707   6.785  0.1039 -0.8146 -0.7844
   96SAPS    HB 9495   3.624   5.867   6.741 -1.5552  0.4266 -1.9102
   96SAPS    C2 9496   3.482   5.721   6.711 -0.1147  0.8109  0.4262
   96SAPS    HS 9497   3.418   5.772   6.637 -0.2668 -1.4194 -1.0827
   96SAPS   O21 9498   3.434   5.743   6.847  0.3218 -0.3906 -0.0119
   96SAPS   C21 9499   3.306   5.730   6.865  0.0238  0.2696 -0.0174
   96SAPS   O22 9500   3.225   5.689   6.782 -0.0585  0.2199 -0.2268
   96SAPS   C22 9501   3.265   5.768   7.007  0.2013  0.2818  0.3577
   96SAPS   H2R 9502   3.350   5.739   7.073 -1.5617 -0.7479  2.3193
   96SAPS   H2S 9503   3.262   5.878   7.017  0.0430  0.3161 -0.0550
   96SAPS    C3 9504   3.465   5.565   6.680  0.3724  0.4460 -0.3256
   96SAPS    HX 9505   3.486   5.556   6.571 -1.0069 -1.3101 -0.4930
   96SAPS    HY 9506   3.357   5.541   6.686  0.6280 -0.4377  1.3702
   96SAPS   O31 9507   3.545   5.482   6.766 -0.0413 -0.5767 -0.0166
   96SAPS   C31 9508   3.492   5.374   6.836  0.2400 -0.2765  0.2709
   96SAPS   O32 9509   3.375   5.348   6.834  0.3946 -0.4094 -0.2688
   96SAPS   C32 9510   3.607   5.291   6.909 -0.3297 -0.7472  0.4690
   96SAPS   H2X 9511   3.703   5.344   6.895  0.2332 -1.5867  1.0760
   96SAPS   H2Y 9512   3.624   5.188   6.871  0.7648 -1.0617  1.7334
   96SAPS   C23 9513   3.137   5.691   7.075  0.6369 -0.0848  0.1278
   96SAPS   H3R 9514   3.145   5.674   7.184 -1.7462 -1.2431  0.1811
   96SAPS   H3S 9515   3.136   5.586   7.036 -0.8523  0.1612 -0.5752
   96SAPS   C24 9516   3.001   5.766   7.056 -0.3649  0.1454  0.7350
   96SAPS   H4R 9517   2.997   5.806   6.952  1.1104  1.0835  1.0126
   96SAPS   H4S 9518   3.003   5.858   7.117  1.4614  0.6724 -0.0798
   96SAPS   C25 9519   2.883   5.678   7.076 -0.5249  0.4846 -0.1672
   96SAPS   H5R 9520   2.871   5.596   7.004  0.9055  0.5118 -0.4607
   96SAPS   C26 9521   2.796   5.692   7.175  0.5894 -0.2471 -0.6178
   96SAPS   H6R 9522   2.703   5.633   7.171  0.4298 -0.1079  0.5198
   96SAPS   C27 9523   2.798   5.795   7.285  0.0020 -0.0217 -0.8595
   96SAPS   H7R 9524   2.695   5.821   7.318 -0.0314  0.4493 -1.3323
   96SAPS   H7S 9525   2.844   5.886   7.242 -1.2624 -0.0490 -2.3415
   96SAPS   C28 9526   2.882   5.757   7.402 -0.3118  0.2130 -0.3128
   96SAPS   H8R 9527   2.948   5.672   7.381 -1.0885  0.0658 -2.4071
   96SAPS   C29 9528   2.857   5.784   7.534 -0.9945 -1.5080 -0.4191
   96SAPS   H9R 9529   2.933   5.747   7.605 -0.1284  3.3031  1.5588
   96SAPS  C210 9530   2.752   5.877   7.600 -0.3001  1.1709  0.5040
   96SAPS  H10R 9531   2.656   5.872   7.546  0.1178  1.2625 -0.2574
   96SAPS  H10S 9532   2.779   5.984   7.588 -1.8135  1.5563  0.4370
   96SAPS  C211 9533   2.708   5.823   7.728  0.3759 -0.1169 -0.0772
   96SAPS  H11R 9534   2.664   5.722   7.728  0.4609 -0.1567 -0.9684
   96SAPS  C212 9535   2.711   5.889   7.846  0.5676 -0.5250  0.0617
   96SAPS  H12R 9536   2.668   5.840   7.934 -0.0980 -1.6092 -0.8298
   96SAPS  C213 9537   2.770   6.028   7.862  0.1155 -0.1175  0.9230
   96SAPS  H13R 9538   2.768   6.080   7.764  1.9786 -0.4873  0.6550
   96SAPS  H13S 9539   2.880   6.018   7.877  0.8734  5.1081  0.4857
   96SAPS  C214 9540   2.707   6.126   7.960  0.0456  0.2675 -0.0183
   96SAPS  H14R 9541   2.660   6.212   7.910  0.4546 -0.7869 -2.3566
   96SAPS  C215 9542   2.703   6.125   8.098 -0.1585  0.3624  0.1912
   96SAPS  H15R 9543   2.644   6.203   8.148  1.0024  2.8130 -2.0359
   96SAPS  C216 9544   2.757   6.007   8.178 -0.0462  0.0409 -0.3231
   96SAPS  H16R 9545   2.808   5.927   8.120  1.7896  1.7454 -1.2067
   96SAPS  H16S 9546   2.663   5.959   8.211 -0.2147 -0.1224 -1.0279
   96SAPS  C217 9547   2.842   6.037   8.302 -0.1515  0.0317 -0.4065
   96SAPS  H17R 9548   2.791   6.094   8.383 -0.6056  1.2794 -1.5331
   96SAPS  H17S 9549   2.928   6.102   8.277  0.3751  0.2552  1.8244
   96SAPS  C218 9550   2.898   5.907   8.345 -0.0836  0.5827 -0.1799
   96SAPS  H18R 9551   2.982   5.907   8.417  3.9217 -0.9834 -4.3594
   96SAPS  H18S 9552   2.959   5.865   8.262  1.0280  1.0359  0.3903
   96SAPS  C219 9553   2.806   5.791   8.394  0.0839 -0.4347  0.4200
   96SAPS  H19R 9554   2.719   5.790   8.325 -0.5790  0.2090  1.2113
   96SAPS  H19S 9555   2.762   5.811   8.494  1.1908 -0.2174  0.8687
   96SAPS  C220 9556   2.870   5.651   8.398  0.6375 -0.2685 -0.0171
   96SAPS  H20R 9557   2.941   5.646   8.483 -0.1589 -1.8800  0.5912
   96SAPS  H20S 9558   2.928   5.635   8.305 -0.1916  2.4272 -1.0998
   96SAPS  H20T 9559   2.805   5.564   8.420  0.7404  0.0065  1.4738
   96SAPS   C33 9560   3.583   5.268   7.060  0.2100 -0.1804  0.0440
   96SAPS   H3X 9561   3.660   5.206   7.112 -0.8511 -2.9732 -1.4908
   96SAPS   H3Y 9562   3.484   5.222   7.076 -0.1570  0.1649 -1.1514
   96SAPS   C34 9563   3.564   5.405   7.127 -0.3369  0.1427  0.3349
   96SAPS   H4X 9564   3.465   5.445   7.097 -0.6860 -2.0248 -1.6394
   96SAPS   H4Y 9565   3.642   5.476   7.090 -2.7822  3.1343  0.4915
   96SAPS   C35 9566   3.581   5.402   7.278  0.1453  0.0589 -0.0400
   96SAPS   H5X 9567   3.681   5.360   7.302  0.6797  0.3484 -1.6317
   96SAPS   H5Y 9568   3.498   5.336   7.314  0.4945 -0.6304 -0.4700
   96SAPS   C36 9569   3.558   5.540   7.347 -0.1137  0.6120 -0.3117
   96SAPS   H6X 9570   3.524   5.617   7.274 -0.8141 -1.5200 -2.3520
   96SAPS   H6Y 9571   3.655   5.575   7.389 -0.1438 -1.7708  2.0276
   96SAPS   C37 9572   3.457   5.561   7.464  1.0047  1.0015  0.0558
   96SAPS   H7X 9573   3.482   5.655   7.519 -0.7462  0.7962  1.3172
   96SAPS   H7Y 9574   3.451   5.473   7.532 -1.1496 -0.9597 -2.4611
   96SAPS   C38 9575   3.312   5.568   7.412 -0.6561  0.0073 -0.2165
   96SAPS   H8X 9576   3.290   5.471   7.363 -0.9934 -1.0725  1.9471
   96SAPS   H8Y 9577   3.300   5.654   7.342 -0.2304 -1.4025 -2.1211
   96SAPS   C39 9578   3.208   5.586   7.522  0.2654  0.0094 -0.3961
   96SAPS   H9X 9579   3.113   5.580   7.465  1.3647 -1.5513 -2.1829
   96SAPS   H9Y 9580   3.205   5.691   7.558 -0.8665 -0.2180  0.2286
   96SAPS  C310 9581   3.194   5.481   7.631 -1.0616  0.6887  0.1101
   96SAPS  H10X 9582   3.291   5.484   7.685 -0.5026  0.2060 -0.8367
   96SAPS  H10Y 9583   3.173   5.380   7.589  2.5235 -0.5307  0.9413
   96SAPS  C311 9584   3.081   5.516   7.729  0.1997 -0.2755 -0.6936
   96SAPS  H11X 9585   2.987   5.537   7.673  0.1270 -1.9038 -1.2214
   96SAPS  H11Y 9586   3.097   5.597   7.804  0.5961 -1.2802  0.3384
   96SAPS  C312 9587   3.025   5.397   7.814  0.2687  1.4716 -0.8803
   96SAPS  H12X 9588   3.118   5.352   7.856 -0.1047 -0.1951 -1.7794
   96SAPS  H12Y 9589   2.991   5.321   7.741 -1.1414 -0.3558  1.5551
   96SAPS  C313 9590   2.916   5.443   7.917 -0.1954 -0.2301 -0.1302
   96SAPS  H13X 9591   2.827   5.475   7.859 -0.3810  0.5406  0.5730
   96SAPS  H13Y 9592   2.968   5.530   7.962  3.6187 -1.5548 -1.5111
   96SAPS  C314 9593   2.881   5.321   8.012 -0.0515  0.0778 -0.5339
   96SAPS  H14X 9594   2.848   5.234   7.951 -1.0439 -1.9236  2.6136
   96SAPS  H14Y 9595   2.805   5.362   8.082  1.8012 -0.0460  1.6637
   96SAPS  C315 9596   3.000   5.276   8.099  0.3301  0.0355 -0.4084
   96SAPS  H15X 9597   3.051   5.366   8.139  0.0979  0.1944 -0.4679
   96SAPS  H15Y 9598   3.077   5.217   8.045  1.3644 -0.2706  1.3233
   96SAPS  C316 9599   2.955   5.189   8.215 -0.0005 -0.3489  0.3372
   96SAPS  H16X 9600   2.921   5.088   8.184  1.5349 -2.1153  3.8470
   96SAPS  H16Y 9601   2.870   5.230   8.273 -0.4880 -1.2275  0.2732
   96SAPS  C317 9602   3.074   5.165   8.312 -0.4397 -0.2083  0.8560
   96SAPS  H17X 9603   3.112   5.255   8.364  2.0412 -0.8635  0.2793
   96SAPS  H17Y 9604   3.150   5.113   8.250 -1.5221  0.6976 -1.3698
   96SAPS  C318 9605   3.028   5.075   8.427  0.1699 -0.1814  0.3259
   96SAPS  H18X 9606   3.109   5.010   8.467 -1.6722 -2.6146  0.3653
   96SAPS  H18Y 9607   2.962   4.997   8.382 -2.1322 -0.2362  3.5146
   96SAPS  H18Z 9608   2.973   5.133   8.504 -0.5938 -0.8555  0.3002
   97SAPS     N 9609   3.823   4.224   6.384  0.0573  0.0529  0.4266
   97SAPS   HN1 9610   3.747   4.284   6.423 -0.2754 -0.4178  0.5090
   97SAPS   HN2 9611   3.793   4.190   6.291 -1.9182 -2.1353  1.7539
   97SAPS   HN3 9612   3.845   4.139   6.440  1.9863  0.2370  0.0001
   97SAPS   C12 9613   3.941   4.313   6.364 -0.1968  0.7468 -0.3120
   97SAPS  H12A 9614   4.017   4.252   6.317 -1.3501 -0.7356 -0.3419
   97SAPS   C13 9615   3.923   4.442   6.277 -0.5069  0.1397 -0.0785
   97SAPS  O13A 9616   3.823   4.462   6.200 -0.5099  0.2267 -0.6637
   97SAPS  O13B 9617   4.015   4.529   6.286  0.4059  0.3032  0.6634
   97SAPS   C11 9618   4.005   4.355   6.504 -0.9337 -0.5124  0.1812
   97SAPS  H11A 9619   3.926   4.421   6.547 -1.8501 -1.0090 -0.7105
   97SAPS  H11B 9620   4.095   4.418   6.484 -0.4403 -1.0125  0.7829
   97SAPS     P 9621   4.171   4.165   6.582 -0.2283  0.2186 -0.1532
   97SAPS   O13 9622   4.178   4.054   6.677 -0.6833 -0.1778  0.5101
   97SAPS   O14 9623   4.204   4.130   6.439 -0.6354 -0.1611 -0.1524
   97SAPS   O12 9624   4.032   4.240   6.585  0.0387 -0.4506 -0.0062
   97SAPS   O11 9625   4.256   4.291   6.631  0.5268 -0.3752  0.5896
   97SAPS    C1 9626   4.270   4.320   6.769  0.3014  0.2201 -0.0285
   97SAPS    HA 9627   4.272   4.429   6.788 -1.1134 -0.2644  3.6847
   97SAPS    HB 9628   4.180   4.296   6.830  0.3522 -1.6628 -0.6085
   97SAPS    C2 9629   4.389   4.245   6.839 -0.2445  0.0276 -0.2801
   97SAPS    HS 9630   4.362   4.138   6.849 -0.2162  0.1940  1.9755
   97SAPS   O21 9631   4.409   4.301   6.971  0.3168  0.4205  0.3301
   97SAPS   C21 9632   4.482   4.231   7.061  0.1584  0.2679 -0.4127
   97SAPS   O22 9633   4.536   4.122   7.037  0.1909 -0.5734 -0.1971
   97SAPS   C22 9634   4.496   4.319   7.178  0.0832 -0.2287 -0.3162
   97SAPS   H2R 9635   4.528   4.419   7.142  1.1250  0.0187  1.2206
   97SAPS   H2S 9636   4.397   4.329   7.227 -2.1152 -0.9513 -4.1787
   97SAPS    C3 9637   4.522   4.263   6.758 -0.2939  0.2263  0.2954
   97SAPS    HX 9638   4.509   4.194   6.672  1.7120 -0.8697  0.8202
   97SAPS    HY 9639   4.604   4.222   6.821  0.3525  0.5802 -0.2977
   97SAPS   O31 9640   4.527   4.404   6.722 -0.1307  0.3241  0.1092
   97SAPS   C31 9641   4.612   4.476   6.789  0.5414  0.0150  0.3023
   97SAPS   O32 9642   4.707   4.437   6.853  0.1778 -0.4945  0.0137
   97SAPS   C32 9643   4.583   4.624   6.776  0.2147  0.0257 -0.4612
   97SAPS   H2X 9644   4.500   4.654   6.709 -1.2637 -1.7082  0.5186
   97SAPS   H2Y 9645   4.671   4.670   6.725 -0.4270 -0.3703 -1.9485
   97SAPS   C23 9646   4.608   4.266   7.277  0.6051  0.2159  0.7129
   97SAPS   H3R 9647   4.705   4.257   7.224 -0.5572  0.8835 -1.6686
   97SAPS   H3S 9648   4.585   4.158   7.284  1.8975 -0.1731 -0.6926
   97SAPS   C24 9649   4.632   4.350   7.404 -0.0978  0.1052  0.4932
   97SAPS   H4R 9650   4.536   4.362   7.460  0.5776 -0.5498  1.8451
   97SAPS   H4S 9651   4.656   4.449   7.361 -1.1884  0.4395  0.6065
   97SAPS   C25 9652   4.733   4.287   7.497 -0.1413 -0.5573 -0.3139
   97SAPS   H5R 9653   4.828   4.248   7.458  0.6904  0.9682  0.1283
   97SAPS   C26 9654   4.721   4.296   7.628  0.2405 -0.4248 -0.1233
   97SAPS   H6R 9655   4.800   4.245   7.684  0.7801  1.2110  0.6908
   97SAPS   C27 9656   4.616   4.377   7.705 -0.3061  0.1033  0.7495
   97SAPS   H7R 9657   4.511   4.370   7.668 -0.3347 -1.2144  1.0635
   97SAPS   H7S 9658   4.655   4.481   7.697  2.3900 -0.8648  0.3478
   97SAPS   C28 9659   4.616   4.322   7.844 -0.6950 -0.4723  0.8787
   97SAPS   H8R 9660   4.573   4.221   7.853  0.4339 -1.3422 -2.1808
   97SAPS   C29 9661   4.652   4.390   7.949  0.0558 -0.6967  0.2832
   97SAPS   H9R 9662   4.655   4.338   8.046 -1.6352 -1.9692 -0.2999
   97SAPS  C210 9663   4.708   4.529   7.957  0.0936  0.1802  0.5120
   97SAPS  H10R 9664   4.737   4.575   7.859 -1.5277 -0.5838 -0.3601
   97SAPS  H10S 9665   4.802   4.530   8.016  2.1918  0.3711 -2.5514
   97SAPS  C211 9666   4.601   4.620   8.013  0.4911  0.4516  0.7346
   97SAPS  H11R 9667   4.510   4.628   7.952  0.9618  1.1854  0.1063
   97SAPS  C212 9668   4.601   4.682   8.134 -0.2155  0.4912  0.4224
   97SAPS  H12R 9669   4.512   4.741   8.159 -0.3636  1.0403 -1.2439
   97SAPS  C213 9670   4.715   4.676   8.245  0.5387 -0.1822 -1.1757
   97SAPS  H13R 9671   4.739   4.771   8.296  2.2492 -0.5152 -1.3037
   97SAPS  H13S 9672   4.819   4.667   8.207  1.0844 -1.3354  0.4795
   97SAPS  C214 9673   4.676   4.562   8.336  0.0175  0.3885 -0.1235
   97SAPS  H14R 9674   4.622   4.481   8.285 -2.9406  0.7125  2.1756
   97SAPS  C215 9675   4.661   4.564   8.464  0.3358  0.0934 -0.2226
   97SAPS  H15R 9676   4.636   4.474   8.523 -3.5919 -0.0963 -1.9372
   97SAPS  C216 9677   4.682   4.682   8.549 -0.7936  0.1909 -0.9995
   97SAPS  H16R 9678   4.585   4.715   8.592 -0.1900 -0.5052  1.0171
   97SAPS  H16S 9679   4.715   4.774   8.497 -2.9494  0.5485 -1.8599
   97SAPS  C217 9680   4.789   4.640   8.667 -0.0956  0.0066 -0.0355
   97SAPS  H17R 9681   4.859   4.557   8.643 -0.6926 -0.4164 -0.3456
   97SAPS  H17S 9682   4.726   4.604   8.752  1.5723 -0.9943  0.8243
   97SAPS  C218 9683   4.868   4.766   8.723 -0.8908 -0.1021 -0.0775
   97SAPS  H18R 9684   4.906   4.739   8.824  0.5072 -4.0897 -1.4792
   97SAPS  H18S 9685   4.807   4.858   8.736  1.9281  1.8443  0.2903
   97SAPS  C219 9686   4.992   4.794   8.640 -0.4882  0.4033 -0.5493
   97SAPS  H19R 9687   4.953   4.828   8.542 -1.0402  0.1896 -0.4060
   97SAPS  H19S 9688   5.042   4.695   8.633 -0.2095  0.2545  2.3791
   97SAPS  C220 9689   5.097   4.902   8.693 -0.5192 -0.0642 -0.3945
   97SAPS  H20R 9690   5.054   5.005   8.686 -0.3985  0.1161  1.2002
   97SAPS  H20S 9691   5.190   4.903   8.633 -0.6416 -0.8649 -0.6020
   97SAPS  H20T 9692   5.124   4.881   8.798 -2.3078 -1.3835 -0.1533
   97SAPS   C33 9693   4.589   4.700   6.912 -0.3805  0.3457  0.3629
   97SAPS   H3X 9694   4.621   4.804   6.887  0.8507 -0.1460 -0.1848
   97SAPS   H3Y 9695   4.669   4.660   6.978 -0.2290  0.6864  0.3872
   97SAPS   C34 9696   4.455   4.691   6.979  1.0170 -0.5180 -0.3466
   97SAPS   H4X 9697   4.440   4.585   7.006  1.6906 -0.9970 -1.7472
   97SAPS   H4Y 9698   4.376   4.716   6.905 -0.3302 -3.4073 -0.0174
   97SAPS   C35 9699   4.436   4.773   7.113  0.2226 -0.2446  0.6217
   97SAPS   H5X 9700   4.326   4.785   7.129 -0.1262 -0.5347 -1.2868
   97SAPS   H5Y 9701   4.469   4.878   7.097 -1.5115 -0.0369 -2.4463
   97SAPS   C36 9702   4.488   4.697   7.238 -0.1935 -0.5738 -0.4155
   97SAPS   H6X 9703   4.597   4.685   7.224 -0.2246 -1.3916  0.0023
   97SAPS   H6Y 9704   4.435   4.601   7.254 -0.5114 -0.0269  2.4864
   97SAPS   C37 9705   4.483   4.784   7.369 -0.3986  1.0975  0.3383
   97SAPS   H7X 9706   4.374   4.801   7.382 -1.1744 -2.7715  0.0416
   97SAPS   H7Y 9707   4.537   4.880   7.360  0.7926  0.6120  1.7860
   97SAPS   C38 9708   4.537   4.716   7.494  0.0904 -0.2921  0.3304
   97SAPS   H8X 9709   4.635   4.678   7.459  1.2372  1.6272  1.3098
   97SAPS   H8Y 9710   4.478   4.625   7.517  0.2285 -1.0461 -2.0566
   97SAPS   C39 9711   4.565   4.800   7.620 -0.6462  0.1938 -0.5544
   97SAPS   H9X 9712   4.630   4.885   7.588 -0.3500 -0.1499 -0.8828
   97SAPS   H9Y 9713   4.611   4.736   7.698 -1.0571  0.9448  0.3240
   97SAPS  C310 9714   4.447   4.873   7.679  0.0568  0.8368  0.5871
   97SAPS  H10X 9715   4.361   4.804   7.695 -0.3358  1.2054  0.1073
   97SAPS  H10Y 9716   4.410   4.947   7.606 -0.0152 -0.5511 -0.8418
   97SAPS  C311 9717   4.474   4.936   7.817  0.1327 -0.4144 -0.8971
   97SAPS  H11X 9718   4.556   5.009   7.801  2.3132 -2.3384  0.7813
   97SAPS  H11Y 9719   4.505   4.856   7.888 -1.9379  0.0566  0.6380
   97SAPS  C312 9720   4.347   5.001   7.881 -0.5598  0.8507  0.4301
   97SAPS  H12X 9721   4.280   4.926   7.929  0.8457 -1.3184 -0.7923
   97SAPS  H12Y 9722   4.292   5.027   7.788  1.0911  2.7176 -0.0705
   97SAPS  C313 9723   4.375   5.113   7.974 -0.3575 -0.6463 -0.5967
   97SAPS  H13X 9724   4.305   5.196   7.953 -0.1887 -0.4176 -0.2736
   97SAPS  H13Y 9725   4.475   5.157   7.955 -0.1069 -1.2662 -0.7392
   97SAPS  C314 9726   4.368   5.083   8.125  0.1789  0.5574  0.3973
   97SAPS  H14X 9727   4.435   4.996   8.143  2.1030  1.7288 -0.6842
   97SAPS  H14Y 9728   4.260   5.057   8.134  0.1539 -0.1414 -1.4780
   97SAPS  C315 9729   4.402   5.191   8.226 -0.8122 -0.6460 -0.8292
   97SAPS  H15X 9730   4.324   5.269   8.235 -1.1257 -1.1684  1.4108
   97SAPS  H15Y 9731   4.500   5.242   8.215 -0.4934 -0.8622  0.7897
   97SAPS  C316 9732   4.414   5.123   8.360 -0.3987  0.3004  0.4393
   97SAPS  H16X 9733   4.512   5.072   8.356  0.8197  2.4479  1.2638
   97SAPS  H16Y 9734   4.331   5.054   8.388 -1.8349  0.8883 -2.0364
   97SAPS  C317 9735   4.447   5.222   8.471  0.6548 -0.5211  0.0645
   97SAPS  H17X 9736   4.371   5.303   8.477  0.2210 -0.7405 -1.8425
   97SAPS  H17Y 9737   4.546   5.262   8.441 -0.5952  1.6474 -1.4876
   97SAPS  C318 9738   4.442   5.149   8.601 -0.1165 -0.7384  0.1202
   97SAPS  H18X 9739   4.348   5.099   8.633  0.9568 -3.6779 -0.9690
   97SAPS  H18Y 9740   4.471   5.209   8.690  1.6883 -0.7633 -0.4168
   97SAPS  H18Z 9741   4.515   5.065   8.597 -1.1278 -1.6042 -2.2291
   98SAPS     N 9742   2.432   3.933   5.987  0.0641  0.6524 -0.0401
   98SAPS   HN1 9743   2.503   3.931   6.063 -0.5627 -1.0289  0.5501
   98SAPS   HN2 9744   2.406   3.833   5.974 -1.5684  0.6593  2.5375
   98SAPS   HN3 9745   2.478   3.977   5.905  0.1800 -0.0122 -0.3426
   98SAPS   C12 9746   2.296   3.991   6.026  0.1942  0.2287  0.4104
   98SAPS  H12A 9747   2.306   4.092   6.064  1.0096 -0.1829  1.3165
   98SAPS   C13 9748   2.198   3.999   5.903 -0.0811 -0.5630  0.4644
   98SAPS  O13A 9749   2.221   3.955   5.788  0.0277  0.1375 -0.1852
   98SAPS  O13B 9750   2.082   4.038   5.938 -0.5186 -0.0055 -0.0294
   98SAPS   C11 9751   2.237   3.899   6.140  0.0111  1.0535  0.0881
   98SAPS  H11A 9752   2.147   3.953   6.176 -0.2036  2.3902 -2.2966
   98SAPS  H11B 9753   2.301   3.893   6.231 -1.1464  0.0849  0.8769
   98SAPS     P 9754   2.311   3.647   6.128 -0.2519  0.0936 -0.0134
   98SAPS   O13 9755   2.230   3.523   6.113 -0.0189 -0.0046 -0.0668
   98SAPS   O14 9756   2.432   3.672   6.046  0.1984  0.3537 -0.1944
   98SAPS   O12 9757   2.213   3.761   6.100 -0.1362 -0.1659 -0.1285
   98SAPS   O11 9758   2.367   3.663   6.279  0.3150  0.2622 -0.7274
   98SAPS    C1 9759   2.268   3.653   6.383 -0.6240 -0.6068 -0.0339
   98SAPS    HA 9760   2.303   3.713   6.470 -0.3679 -1.3108  0.3545
   98SAPS    HB 9761   2.175   3.702   6.347 -0.1149  1.8009  1.6665
   98SAPS    C2 9762   2.239   3.511   6.433 -1.1389  0.4372 -0.2357
   98SAPS    HS 9763   2.202   3.446   6.351 -1.8168  0.8996 -0.3118
   98SAPS   O21 9764   2.150   3.507   6.543  0.4310 -0.1240 -0.1779
   98SAPS   C21 9765   2.018   3.534   6.516  0.2665  0.4015  0.0948
   98SAPS   O22 9766   1.978   3.572   6.407  0.2902 -0.0220  0.4453
   98SAPS   C22 9767   1.930   3.512   6.640  0.3678  0.0845 -0.7447
   98SAPS   H2R 9768   1.919   3.402   6.645  1.2897 -0.0075 -0.5954
   98SAPS   H2S 9769   1.990   3.556   6.722 -1.8074  0.6082  0.6591
   98SAPS    C3 9770   2.372   3.445   6.486 -0.0917 -0.0631  0.3473
   98SAPS    HX 9771   2.459   3.455   6.417  0.3768 -1.6498  0.6814
   98SAPS    HY 9772   2.362   3.335   6.497 -0.9349  0.0862  1.2374
   98SAPS   O31 9773   2.434   3.507   6.603  0.8454  0.0768 -0.3304
   98SAPS   C31 9774   2.391   3.460   6.723  0.2955 -0.9861  0.1670
   98SAPS   O32 9775   2.307   3.368   6.741 -0.0959  0.0809  0.2701
   98SAPS   C32 9776   2.452   3.539   6.838 -0.1691  0.5555  0.6331
   98SAPS   H2X 9777   2.434   3.646   6.814 -0.7827  0.9420  2.6687
   98SAPS   H2Y 9778   2.563   3.538   6.839 -0.1318  0.8903 -0.9324
   98SAPS   C23 9779   1.791   3.580   6.628 -0.5526  0.4335 -0.2091
   98SAPS   H3R 9780   1.733   3.535   6.544  1.8717  0.0767 -1.8154
   98SAPS   H3S 9781   1.810   3.685   6.599  1.8384 -0.1086 -0.8937
   98SAPS   C24 9782   1.699   3.582   6.755 -0.2034 -0.1206  0.0699
   98SAPS   H4R 9783   1.597   3.615   6.727 -0.1967 -0.4581 -0.3625
   98SAPS   H4S 9784   1.732   3.660   6.827  2.2407 -1.4564  0.4949
   98SAPS   C25 9785   1.692   3.443   6.803  0.2954  0.0172 -0.5289
   98SAPS   H5R 9786   1.653   3.375   6.726 -1.2080 -0.5643  0.7002
   98SAPS   C26 9787   1.738   3.404   6.928  0.2798 -0.1434 -0.0333
   98SAPS   H6R 9788   1.731   3.296   6.949 -1.6168  0.0012  0.3137
   98SAPS   C27 9789   1.794   3.492   7.039  0.3369 -0.5183  0.9548
   98SAPS   H7R 9790   1.739   3.484   7.136 -0.7024 -0.1338  0.4181
   98SAPS   H7S 9791   1.798   3.600   7.014 -1.8295 -1.1238 -2.8020
   98SAPS   C28 9792   1.937   3.440   7.068  0.3163 -0.4810 -0.1369
   98SAPS   H8R 9793   2.000   3.438   6.978 -1.3292 -0.2533 -1.3284
   98SAPS   C29 9794   2.002   3.403   7.178 -0.5662 -0.3279 -1.2791
   98SAPS   H9R 9795   2.106   3.368   7.177 -1.4629 -3.9612  2.6220
   98SAPS  C210 9796   1.944   3.410   7.319 -0.5044 -0.3590  0.1014
   98SAPS  H10R 9797   1.897   3.510   7.335  0.2066 -0.0199  0.1500
   98SAPS  H10S 9798   2.031   3.406   7.388  0.1757  0.7284 -0.6482
   98SAPS  C211 9799   1.854   3.285   7.354 -0.1173  0.2980  0.2764
   98SAPS  H11R 9800   1.804   3.229   7.274 -2.0519  1.4454  0.6075
   98SAPS  C212 9801   1.825   3.256   7.481 -0.1026 -0.5408  0.1716
   98SAPS  H12R 9802   1.768   3.164   7.502 -0.6747 -0.0914  0.6273
   98SAPS  C213 9803   1.875   3.331   7.610  0.0160  0.5248  0.2802
   98SAPS  H13R 9804   1.980   3.366   7.596  0.1660  0.0980  0.2963
   98SAPS  H13S 9805   1.890   3.248   7.683 -2.3654  0.2303  0.4994
   98SAPS  C214 9806   1.784   3.436   7.667  0.4694 -0.4798 -0.2951
   98SAPS  H14R 9807   1.708   3.484   7.603  2.1187 -0.6911 -2.5429
   98SAPS  C215 9808   1.800   3.502   7.784 -1.2211  0.5998 -0.0736
   98SAPS  H15R 9809   1.726   3.581   7.802 -0.9621  0.5485  1.3047
   98SAPS  C216 9810   1.916   3.486   7.889 -0.2093  0.4567  0.5931
   98SAPS  H16R 9811   1.928   3.588   7.934 -3.1461  0.8116  0.7631
   98SAPS  H16S 9812   2.014   3.465   7.840 -0.6477  3.1359 -1.7186
   98SAPS  C217 9813   1.897   3.370   7.996  0.0695 -0.0415 -0.3133
   98SAPS  H17R 9814   1.970   3.380   8.079 -0.0457 -0.0003 -0.2171
   98SAPS  H17S 9815   1.899   3.271   7.945 -0.0151 -0.2616  0.1092
   98SAPS  C218 9816   1.750   3.378   8.062  0.3196  0.4810  0.5233
   98SAPS  H18R 9817   1.723   3.287   8.120 -0.2719  2.6452  3.9287
   98SAPS  H18S 9818   1.677   3.379   7.978  1.8009 -0.6040 -0.8367
   98SAPS  C219 9819   1.724   3.498   8.151 -0.2321 -0.2871  0.3203
   98SAPS  H19R 9820   1.761   3.584   8.091 -0.4011 -0.4284  0.0143
   98SAPS  H19S 9821   1.782   3.500   8.246  0.4045  0.9329 -0.0672
   98SAPS  C220 9822   1.574   3.519   8.178 -0.6936 -0.7227  0.3318
   98SAPS  H20R 9823   1.532   3.429   8.228 -0.2343 -2.0522 -1.5542
   98SAPS  H20S 9824   1.518   3.518   8.082 -0.9482  0.6400  0.4574
   98SAPS  H20T 9825   1.535   3.608   8.231  0.5041 -0.3748  0.6697
   98SAPS   C33 9826   2.408   3.510   6.986 -0.5441 -0.3169  0.0452
   98SAPS   H3X 9827   2.426   3.402   7.002 -1.0214 -0.5817 -1.0981
   98SAPS   H3Y 9828   2.302   3.536   7.002 -0.3673  2.3761 -2.2553
   98SAPS   C34 9829   2.508   3.567   7.084 -0.1111 -0.6453 -0.2611
   98SAPS   H4X 9830   2.504   3.678   7.087  0.0356 -0.6228 -0.8155
   98SAPS   H4Y 9831   2.611   3.537   7.055  0.4365 -0.0827  1.0176
   98SAPS   C35 9832   2.478   3.523   7.225 -0.4015  0.5877  0.1434
   98SAPS   H5X 9833   2.489   3.413   7.218  2.7822  0.9509 -2.7341
   98SAPS   H5Y 9834   2.376   3.546   7.263 -0.3288  0.3334  0.5046
   98SAPS   C36 9835   2.578   3.576   7.328 -0.7435  0.1238  0.4894
   98SAPS   H6X 9836   2.531   3.668   7.368 -2.4602 -0.1908 -0.6833
   98SAPS   H6Y 9837   2.673   3.614   7.283 -2.7261  2.4566 -2.0779
   98SAPS   C37 9838   2.598   3.486   7.446 -0.4068 -0.1511  0.2343
   98SAPS   H7X 9839   2.675   3.407   7.430 -1.6678 -1.4448  0.4223
   98SAPS   H7Y 9840   2.502   3.437   7.472 -0.7901  0.3486 -0.2179
   98SAPS   C38 9841   2.631   3.554   7.576 -0.4004 -0.3448 -1.1239
   98SAPS   H8X 9842   2.562   3.641   7.590 -0.8385 -0.8875  0.3717
   98SAPS   H8Y 9843   2.738   3.584   7.579 -0.6978  0.7191  0.5261
   98SAPS   C39 9844   2.619   3.458   7.694  0.0840  0.2180 -0.8359
   98SAPS   H9X 9845   2.656   3.356   7.667  0.5589  0.2202 -0.2175
   98SAPS   H9Y 9846   2.509   3.449   7.708 -0.6702  1.2577 -4.8431
   98SAPS  C310 9847   2.679   3.511   7.816  0.1037 -0.0613  0.8549
   98SAPS  H10X 9848   2.635   3.458   7.904 -2.7423 -1.2787 -1.1613
   98SAPS  H10Y 9849   2.651   3.618   7.826  1.0671  0.3398 -0.4596
   98SAPS  C311 9850   2.835   3.473   7.815  0.1964  0.6161  0.0503
   98SAPS  H11X 9851   2.882   3.466   7.715 -1.3577 -0.9357 -0.6098
   98SAPS  H11Y 9852   2.841   3.372   7.860  0.0525  0.3846 -0.4493
   98SAPS  C312 9853   2.925   3.567   7.902  0.1177  0.1878  0.7794
   98SAPS  H12X 9854   2.906   3.673   7.874  1.0981 -0.5177 -3.2290
   98SAPS  H12Y 9855   3.031   3.541   7.880  0.4795  2.3044 -0.2353
   98SAPS  C313 9856   2.917   3.558   8.052 -0.5196  0.1491  0.1330
   98SAPS  H13X 9857   2.810   3.545   8.078 -1.0981 -0.3587 -2.2387
   98SAPS  H13Y 9858   2.971   3.644   8.098  3.2430 -1.7097 -0.4366
   98SAPS  C314 9859   2.987   3.437   8.121 -0.0313  0.7098  0.7477
   98SAPS  H14X 9860   3.083   3.415   8.068 -0.8620  0.0973 -0.5388
   98SAPS  H14Y 9861   2.916   3.356   8.096 -0.1617  1.2291 -0.6123
   98SAPS  C315 9862   3.013   3.467   8.269  0.3252  0.6190  0.5618
   98SAPS  H15X 9863   2.915   3.492   8.316  0.1262  0.8665  0.0237
   98SAPS  H15Y 9864   3.092   3.542   8.287 -0.1252  0.9363  1.2497
   98SAPS  C316 9865   3.060   3.337   8.339  0.4719  0.8678  0.6501
   98SAPS  H16X 9866   3.152   3.296   8.291 -0.5808 -1.5289  0.5219
   98SAPS  H16Y 9867   2.985   3.255   8.330  0.7413  0.6162  0.6933
   98SAPS  C317 9868   3.105   3.358   8.481  0.2737 -0.4816 -0.4093
   98SAPS  H17X 9869   3.016   3.385   8.542 -0.8000 -3.1995 -0.6231
   98SAPS  H17Y 9870   3.179   3.439   8.494 -0.1930 -0.2937  1.3178
   98SAPS  C318 9871   3.165   3.224   8.540 -0.9557 -0.2277  0.5631
   98SAPS  H18X 9872   3.239   3.177   8.472 -0.4443 -0.9432  1.6003
   98SAPS  H18Y 9873   3.090   3.145   8.558  0.6743 -2.0924 -0.4490
   98SAPS  H18Z 9874   3.216   3.249   8.635  0.1598  0.2558 -0.1292
   99SAPS     N 9875   0.445   1.169   5.891 -0.1255 -0.0929  0.2000
   99SAPS   HN1 9876   0.407   1.249   5.945 -0.5129  0.0383 -0.2554
   99SAPS   HN2 9877   0.547   1.158   5.906  0.1904 -1.3445 -2.2843
   99SAPS   HN3 9878   0.419   1.176   5.790  1.1914 -0.6938 -0.2025
   99SAPS   C12 9879   0.377   1.041   5.933  0.5848 -0.1140  0.6592
   99SAPS  H12A 9880   0.285   1.071   5.981 -0.8771 -2.9248 -0.1716
   99SAPS   C13 9881   0.335   0.944   5.817 -0.7811 -0.0218 -0.6326
   99SAPS  O13A 9882   0.351   0.974   5.696  0.2489  1.1269  0.3478
   99SAPS  O13B 9883   0.304   0.827   5.846  0.5542  0.1004  0.1319
   99SAPS   C11 9884   0.465   0.968   6.043  0.3914  0.3919 -0.2129
   99SAPS  H11A 9885   0.564   0.940   6.002 -0.5601 -0.1277 -2.2708
   99SAPS  H11B 9886   0.420   0.872   6.076 -1.6706  0.6633 -1.9680
   99SAPS     P 9887   0.588   1.021   6.265 -0.2775 -0.4144 -0.8931
   99SAPS   O13 9888   0.681   0.920   6.219  0.2734  0.3132 -0.1884
   99SAPS   O14 9889   0.645   1.152   6.305  0.2199 -0.0274 -0.0764
   99SAPS   O12 9890   0.486   1.063   6.152 -0.0202 -0.2392 -0.0142
   99SAPS   O11 9891   0.493   0.960   6.370 -0.0154 -0.3456 -0.4513
   99SAPS    C1 9892   0.476   0.823   6.398  0.6811 -0.3249  0.8285
   99SAPS    HA 9893   0.378   0.784   6.363  2.0034 -2.1257 -1.1191
   99SAPS    HB 9894   0.551   0.767   6.338  1.8728  2.4143 -0.3952
   99SAPS    C2 9895   0.501   0.796   6.556  0.5609  0.5708  0.8046
   99SAPS    HS 9896   0.514   0.686   6.572 -1.3626  0.1826 -0.0088
   99SAPS   O21 9897   0.387   0.852   6.626  0.0422 -0.0150  0.3135
   99SAPS   C21 9898   0.281   0.779   6.657 -0.0561  0.1435  0.1045
   99SAPS   O22 9899   0.275   0.660   6.618  0.3936 -0.1315 -0.2083
   99SAPS   C22 9900   0.181   0.864   6.733 -0.2289  0.6436  0.1111
   99SAPS   H2R 9901   0.215   0.967   6.756  1.5174 -0.2142  1.6256
   99SAPS   H2S 9902   0.102   0.877   6.656  0.8204 -1.0093 -1.3203
   99SAPS    C3 9903   0.630   0.870   6.604  0.3037 -0.6506 -0.2924
   99SAPS    HX 9904   0.603   0.978   6.600 -2.1019 -1.2046 -0.7842
   99SAPS    HY 9905   0.716   0.845   6.538  0.8498 -0.2891  0.2660
   99SAPS   O31 9906   0.660   0.836   6.742 -0.4047  0.9291  0.0706
   99SAPS   C31 9907   0.787   0.844   6.770  0.1166 -0.6288 -0.2514
   99SAPS   O32 9908   0.870   0.866   6.685 -0.4648  0.2552  0.4492
   99SAPS   C32 9909   0.806   0.819   6.920  0.3910  0.4661 -0.0276
   99SAPS   H2X 9910   0.793   0.914   6.976  0.0414  1.5015 -1.7939
   99SAPS   H2Y 9911   0.908   0.782   6.942  0.4075 -0.7920 -1.9905
   99SAPS   C23 9912   0.151   0.788   6.864 -0.4420 -0.0755 -0.1104
   99SAPS   H3R 9913   0.122   0.685   6.834 -1.2001  0.6175 -1.8828
   99SAPS   H3S 9914   0.065   0.838   6.914  0.1837  0.2397  0.6783
   99SAPS   C24 9915   0.270   0.765   6.965 -0.1393  0.4589 -0.3518
   99SAPS   H4R 9916   0.357   0.709   6.926 -0.4023  0.6794 -1.3075
   99SAPS   H4S 9917   0.236   0.704   7.051  1.4545  0.5504  0.3796
   99SAPS   C25 9918   0.326   0.895   7.025 -0.4981 -0.0001 -0.0635
   99SAPS   H5R 9919   0.394   0.946   6.955 -2.0724 -1.5436 -2.9336
   99SAPS   C26 9920   0.282   0.967   7.130  0.0274  1.0342  0.3348
   99SAPS   H6R 9921   0.324   1.068   7.142  0.0185  0.8070  2.6863
   99SAPS   C27 9922   0.157   0.935   7.210  0.2020 -0.2908 -0.0129
   99SAPS   H7R 9923   0.069   0.901   7.152 -1.4943 -0.8609  2.7064
   99SAPS   H7S 9924   0.119   1.021   7.270  1.5661  1.0045 -0.9232
   99SAPS   C28 9925   0.175   0.818   7.303  0.1618 -0.0263 -0.3620
   99SAPS   H8R 9926   0.281   0.788   7.310 -0.6277 -2.8949  0.7630
   99SAPS   C29 9927   0.084   0.763   7.387  0.3581 -0.5192  0.6952
   99SAPS   H9R 9928   0.113   0.678   7.450  2.0792 -1.7136 -1.5556
   99SAPS  C210 9929  -0.057   0.821   7.398 -0.2225 -0.0274  0.4638
   99SAPS  H10R 9930  -0.134   0.758   7.348 -0.5939  2.1828 -1.9755
   99SAPS  H10S 9931  -0.061   0.915   7.339  2.1809 -1.1786 -1.7645
   99SAPS  C211 9932  -0.093   0.839   7.542 -0.0191  0.2479  0.0557
   99SAPS  H11R 9933  -0.030   0.917   7.588  1.5585 -0.2321 -1.2186
   99SAPS  C212 9934  -0.177   0.765   7.618  0.5214 -0.2452 -0.2932
   99SAPS  H12R 9935  -0.202   0.814   7.713  1.5629  1.0275 -0.6471
   99SAPS  C213 9936  -0.259   0.649   7.568  0.5426 -0.1993  0.3210
   99SAPS  H13R 9937  -0.213   0.558   7.611 -0.6714 -1.9104 -1.7964
   99SAPS  H13S 9938  -0.256   0.635   7.458 -0.2357 -2.8712  0.5618
   99SAPS  C214 9939  -0.400   0.673   7.610  0.0748  0.0852  0.0696
   99SAPS  H14R 9940  -0.456   0.736   7.540 -0.0850 -0.6729 -0.5003
   99SAPS  C215 9941  -0.466   0.617   7.715 -0.8880 -0.7776 -0.1547
   99SAPS  H15R 9942  -0.568   0.644   7.746 -0.3799  0.2043  0.7538
   99SAPS  C216 9943  -0.405   0.527   7.822  0.6105  0.3840  0.4401
   99SAPS  H16R 9944  -0.464   0.539   7.916 -0.4950 -0.0538 -0.1839
   99SAPS  H16S 9945  -0.300   0.554   7.847  1.0920 -0.0685 -0.9766
   99SAPS  C217 9946  -0.399   0.374   7.781  0.3744  0.1307 -1.2621
   99SAPS  H17R 9947  -0.327   0.364   7.697  0.2887 -0.2386 -1.2920
   99SAPS  H17S 9948  -0.497   0.339   7.743 -0.0755 -0.2703  0.2056
   99SAPS  C218 9949  -0.354   0.271   7.889 -0.6666 -0.0037  0.0142
   99SAPS  H18R 9950  -0.446   0.217   7.921 -1.8374  2.9547  2.1135
   99SAPS  H18S 9951  -0.305   0.319   7.976 -1.5787  0.3745  0.3331
   99SAPS  C219 9952  -0.239   0.180   7.832  0.2297 -0.1585 -0.4172
   99SAPS  H19R 9953  -0.176   0.250   7.773  0.5994 -0.2543 -0.1420
   99SAPS  H19S 9954  -0.297   0.108   7.771  1.5245 -2.4322  0.9060
   99SAPS  C220 9955  -0.155   0.112   7.945  0.0902  1.2196  0.1871
   99SAPS  H20R 9956  -0.202   0.017   7.978  0.7495  1.4161  1.7961
   99SAPS  H20S 9957  -0.147   0.186   8.027  2.0354  1.0097  0.2323
   99SAPS  H20T 9958  -0.060   0.096   7.888  0.0844  0.4211  0.3838
   99SAPS   C33 9959   0.701   0.723   6.972  0.5707  0.2092  0.0760
   99SAPS   H3X 9960   0.709   0.626   6.919  2.3890 -0.8467  2.1415
   99SAPS   H3Y 9961   0.601   0.769   6.956  0.6689 -0.0130 -1.3086
   99SAPS   C34 9962   0.727   0.710   7.126  0.5252  0.3756  0.3182
   99SAPS   H4X 9963   0.752   0.811   7.163  0.1663  0.2631  0.8862
   99SAPS   H4Y 9964   0.816   0.646   7.143  0.9907  1.5505  2.6822
   99SAPS   C35 9965   0.601   0.655   7.198  0.3645 -0.0156  0.1833
   99SAPS   H5X 9966   0.574   0.556   7.157  1.2638 -0.9725  1.8101
   99SAPS   H5Y 9967   0.513   0.723   7.192  1.4324  1.7007  2.3874
   99SAPS   C36 9968   0.616   0.631   7.348  0.1389  0.0364 -0.8088
   99SAPS   H6X 9969   0.691   0.550   7.359 -1.8879 -1.9785 -1.0667
   99SAPS   H6Y 9970   0.518   0.592   7.382  1.7560 -2.6518  1.1293
   99SAPS   C37 9971   0.643   0.760   7.429 -1.2768  0.2513  0.3145
   99SAPS   H7X 9972   0.553   0.820   7.403 -2.5833 -2.3012 -1.4249
   99SAPS   H7Y 9973   0.732   0.807   7.384 -0.8301 -1.2982 -0.4831
   99SAPS   C38 9974   0.639   0.743   7.580 -0.5752 -0.1215  0.1780
   99SAPS   H8X 9975   0.700   0.827   7.619  1.0278 -0.8975 -0.5743
   99SAPS   H8Y 9976   0.696   0.655   7.617  0.6884  0.7027  0.2691
   99SAPS   C39 9977   0.494   0.745   7.634  0.1800  0.1437  0.6378
   99SAPS   H9X 9978   0.426   0.684   7.571  1.5247 -0.5154 -0.2418
   99SAPS   H9Y 9979   0.446   0.845   7.645 -1.5717 -0.8461  2.6233
   99SAPS  C310 9980   0.497   0.676   7.767 -0.5940 -0.1322 -0.1754
   99SAPS  H10X 9981   0.554   0.581   7.760 -0.2391  0.0349  0.3168
   99SAPS  H10Y 9982   0.393   0.646   7.792 -1.2386  1.7310 -0.4436
   99SAPS  C311 9983   0.551   0.766   7.877 -0.3215 -0.1195 -0.2262
   99SAPS  H11X 9984   0.519   0.871   7.860  0.7790  0.4662  1.1066
   99SAPS  H11Y 9985   0.661   0.775   7.870 -0.3275 -0.1047 -0.2975
   99SAPS  C312 9986   0.494   0.708   8.011 -0.0086 -0.3539 -0.5933
   99SAPS  H12X 9987   0.388   0.679   7.997 -0.3893 -0.1780  1.6638
   99SAPS  H12Y 9988   0.500   0.782   8.093  0.5018 -0.6064 -0.3965
   99SAPS  C313 9989   0.566   0.579   8.049  0.0586 -0.1885  0.0567
   99SAPS  H13X 9990   0.673   0.604   8.068 -0.0715  0.7576 -0.3729
   99SAPS  H13Y 9991   0.560   0.512   7.960 -1.0602 -0.6661  0.4767
   99SAPS  C314 9992   0.498   0.508   8.167 -0.2915  0.0606 -0.6677
   99SAPS  H14X 9993   0.530   0.402   8.162 -1.1871 -0.2496 -0.0108
   99SAPS  H14Y 9994   0.389   0.514   8.148 -0.1396  0.2533 -1.5118
   99SAPS  C315 9995   0.533   0.583   8.296 -0.1771  0.7135  0.3515
   99SAPS  H15X 9996   0.508   0.688   8.270  0.4110  1.4773  2.6832
   99SAPS  H15Y 9997   0.642   0.585   8.321 -0.1206  1.9362  0.0819
   99SAPS  C316 9998   0.432   0.552   8.415  0.0495  0.1138 -0.3310
   99SAPS  H16X 9999   0.451   0.445   8.436 -1.8606 -0.2091 -0.1313
   99SAPS  H16Y10000   0.333   0.570   8.367  0.8913  0.5251 -2.0104
   99SAPS  C31710001   0.454   0.632   8.546  0.0451  0.3246 -0.2983
   99SAPS  H17X10002   0.562   0.640   8.571  0.0857  1.7577 -0.8556
   99SAPS  H17Y10003   0.399   0.578   8.626 -0.1362 -0.6236 -1.0391
   99SAPS  C31810004   0.398   0.773   8.545 -0.1467  0.5576  0.0610
   99SAPS  H18X10005   0.465   0.837   8.482  2.2784 -1.6150  0.2812
   99SAPS  H18Y10006   0.398   0.824   8.644 -1.6120  1.9772 -0.6217
   99SAPS  H18Z10007   0.298   0.771   8.498  1.0723  0.4902 -2.7231
  100SAPS     N10008   4.431   2.907   6.294 -0.2945 -0.3634  0.2528
  100SAPS   HN110009   4.529   2.929   6.266 -1.7617  3.6232 -2.8445
  100SAPS   HN210010   4.394   2.982   6.356 -0.3492  0.9999 -1.3215
  100SAPS   HN310011   4.416   2.816   6.340 -3.2479 -0.5019 -0.7322
  100SAPS   C1210012   4.356   2.905   6.172  1.0410 -0.3305 -0.0822
  100SAPS  H12A10013   4.363   3.000   6.122 -1.1038 -0.8551 -1.5262
  100SAPS   C1310014   4.402   2.817   6.058  0.3529  0.1514  0.2464
  100SAPS  O13A10015   4.511   2.757   6.070 -0.5119 -0.6516  0.0281
  100SAPS  O13B10016   4.339   2.827   5.949  0.4946  0.7340  0.1961
  100SAPS   C1110017   4.207   2.876   6.213 -0.0301  0.7366 -0.0625
  100SAPS  H11A10018   4.202   2.778   6.265  2.1742  0.0677 -1.0106
  100SAPS  H11B10019   4.141   2.855   6.126 -0.9022 -2.7630  1.2560
  100SAPS     P10020   4.106   3.127   6.240 -0.2319  0.4208  0.1726
  100SAPS   O1310021   4.230   3.206   6.214 -0.5059  0.8699 -0.0724
  100SAPS   O1410022   4.014   3.114   6.124 -0.7019 -0.7194 -0.0115
  100SAPS   O1210023   4.146   2.983   6.290 -0.4960 -1.1048  0.2204
  100SAPS   O1110024   4.033   3.191   6.359 -0.4935  0.3306 -0.0545
  100SAPS    C110025   3.935   3.120   6.432  0.4618  0.6243 -0.0614
  100SAPS    HA10026   3.835   3.120   6.382 -0.2158  0.1707  1.2522
  100SAPS    HB10027   3.958   3.015   6.456 -0.7140  0.0791 -1.1755
  100SAPS    C210028   3.906   3.186   6.564 -1.0383  0.7392  0.9956
  100SAPS    HS10029   3.893   3.294   6.544 -0.9896  0.9067  1.8410
  100SAPS   O2110030   4.019   3.151   6.647  0.5442 -0.1674 -0.2234
  100SAPS   C2110031   4.103   3.241   6.684 -0.3666 -0.0722 -0.1971
  100SAPS   O2210032   4.101   3.360   6.653  0.5049 -0.2341  0.6055
  100SAPS   C2210033   4.191   3.182   6.796 -1.0698 -0.2981  0.0014
  100SAPS   H2R10034   4.276   3.125   6.753 -1.5092 -1.3227  0.4756
  100SAPS   H2S10035   4.227   3.264   6.863 -1.4857  0.2289 -0.4135
  100SAPS    C310036   3.775   3.133   6.621  0.9595  0.5799  0.0610
  100SAPS    HX10037   3.788   3.023   6.619 -0.2108  0.3417 -4.0563
  100SAPS    HY10038   3.691   3.155   6.551  0.4590  0.4268  0.6061
  100SAPS   O3110039   3.743   3.176   6.756 -0.4417 -0.2694  0.3228
  100SAPS   C3110040   3.713   3.306   6.770 -0.2679 -0.3745 -0.0524
  100SAPS   O3210041   3.692   3.375   6.674 -0.2435 -0.0381  0.3316
  100SAPS   C3210042   3.737   3.350   6.914 -0.0321 -0.0073 -0.2672
  100SAPS   H2X10043   3.761   3.260   6.974 -0.6446 -0.4256 -0.6402
  100SAPS   H2Y10044   3.646   3.402   6.949  1.7524  4.1296 -1.1679
  100SAPS   C2310045   4.103   3.085   6.874  0.1009 -0.3750  0.2941
  100SAPS   H3R10046   4.065   3.002   6.811  0.6954 -0.7823  0.4720
  100SAPS   H3S10047   4.007   3.128   6.911 -1.4250 -1.8652 -1.7327
  100SAPS   C2410048   4.160   3.019   7.003 -0.4154  0.0750  0.1654
  100SAPS   H4R10049   4.260   2.980   6.974 -1.4917 -0.6456 -3.0626
  100SAPS   H4S10050   4.092   2.940   7.042  0.0428 -0.8181 -0.7872
  100SAPS   C2510051   4.203   3.122   7.109  0.2775  0.0542 -0.2115
  100SAPS   H5R10052   4.264   3.206   7.070  1.3145  0.3211  1.8541
  100SAPS   C2610053   4.172   3.120   7.241  0.5102 -0.5847  0.3565
  100SAPS   H6R10054   4.207   3.208   7.299 -1.6298  0.7643 -0.2835
  100SAPS   C2710055   4.085   3.021   7.315 -0.3953 -0.6460 -0.1564
  100SAPS   H7R10056   4.149   2.972   7.392 -0.4358  0.1868  0.4177
  100SAPS   H7S10057   4.043   2.942   7.249 -2.0227 -0.6640  0.8594
  100SAPS   C2810058   3.963   3.085   7.374 -0.1602 -0.2396  0.1932
  100SAPS   H8R10059   3.887   3.107   7.298  0.4808  1.2849 -0.0334
  100SAPS   C2910060   3.953   3.130   7.501  0.7146 -0.0207 -0.3103
  100SAPS   H9R10061   3.855   3.173   7.526  0.5010  0.0920 -1.3166
  100SAPS  C21010062   4.059   3.125   7.612  0.2268 -0.6003 -0.3716
  100SAPS  H10R10063   4.154   3.095   7.564  0.5361  1.0168 -0.8552
  100SAPS  H10S10064   4.025   3.046   7.683  0.5555  0.4421  0.9946
  100SAPS  C21110065   4.069   3.251   7.692 -0.3106  0.5064  0.0727
  100SAPS  H11R10066   4.139   3.325   7.650  1.1479 -0.7133  0.2756
  100SAPS  C21210067   4.013   3.274   7.815 -0.5531 -0.1052  0.1549
  100SAPS  H12R10068   4.028   3.372   7.863 -1.1153 -0.3036  0.7526
  100SAPS  C21310069   3.919   3.185   7.888  0.1502  0.2320 -0.3469
  100SAPS  H13R10070   3.883   3.105   7.819 -1.3439 -0.8878  1.6350
  100SAPS  H13S10071   3.828   3.241   7.917  1.5487  1.4031  2.1309
  100SAPS  C21410072   3.975   3.122   8.016 -0.4143 -0.1103  0.5225
  100SAPS  H14R10073   4.085   3.122   8.020 -0.4041  0.3684  0.3411
  100SAPS  C21510074   3.909   3.089   8.125 -0.2464 -0.3738  0.6815
  100SAPS  H15R10075   3.977   3.055   8.204 -0.4123  0.0472  1.0086
  100SAPS  C21610076   3.767   3.099   8.167  0.2658  0.0802 -0.8049
  100SAPS  H16R10077   3.720   3.168   8.093 -0.8607  0.4631  0.2338
  100SAPS  H16S10078   3.757   3.155   8.262  1.5374  3.8994 -2.7046
  100SAPS  C21710079   3.686   2.963   8.157 -0.4189  0.1255 -0.1336
  100SAPS  H17R10080   3.722   2.901   8.241 -0.1417 -0.2292 -0.5141
  100SAPS  H17S10081   3.706   2.905   8.064  1.2926 -2.5597  1.7765
  100SAPS  C21810082   3.537   2.991   8.181  0.4268  0.4616  0.7062
  100SAPS  H18R10083   3.537   3.021   8.288  0.9571 -1.9487  1.4252
  100SAPS  H18S10084   3.483   2.894   8.177 -0.0024  0.7331 -0.3998
  100SAPS  C21910085   3.465   3.092   8.091  0.6292  0.0908 -0.2089
  100SAPS  H19R10086   3.515   3.106   7.993  0.4416 -2.8708 -0.8009
  100SAPS  H19S10087   3.471   3.197   8.127 -0.8316  0.5459 -1.2343
  100SAPS  C22010088   3.317   3.049   8.072  0.1958 -0.6104 -0.3324
  100SAPS  H20R10089   3.307   2.957   8.010 -0.6200 -1.4552  1.0112
  100SAPS  H20S10090   3.263   3.131   8.020 -3.4459 -2.0277  0.8650
  100SAPS  H20T10091   3.273   3.037   8.173  0.8463  1.0269  0.1646
  100SAPS   C3310092   3.863   3.440   6.924  0.2841  0.3772  0.0922
  100SAPS   H3X10093   3.844   3.522   6.851  0.0008 -0.9478 -1.3702
  100SAPS   H3Y10094   3.955   3.387   6.892 -0.6603 -0.2642 -1.6937
  100SAPS   C3410095   3.886   3.512   7.065 -0.2656 -0.4509  0.0865
  100SAPS   H4X10096   3.801   3.575   7.098  0.5789 -0.1205  1.7149
  100SAPS   H4Y10097   3.970   3.585   7.058 -1.0108  0.4358  0.3093
  100SAPS   C3510098   3.909   3.409   7.176  0.9966 -0.5707 -0.4432
  100SAPS   H5X10099   3.971   3.322   7.146 -1.8032 -2.4331 -1.2276
  100SAPS   H5Y10100   3.809   3.370   7.205  0.9400 -1.2120 -1.4588
  100SAPS   C3610101   3.961   3.464   7.313  0.4622  1.0276 -0.5952
  100SAPS   H6X10102   4.054   3.521   7.290  0.8578  0.2787 -0.8638
  100SAPS   H6Y10103   3.989   3.376   7.374 -2.6122 -0.6271 -1.3592
  100SAPS   C3710104   3.849   3.541   7.386 -0.9868  0.0392 -0.0523
  100SAPS   H7X10105   3.765   3.470   7.401 -1.6078  0.8314  0.2284
  100SAPS   H7Y10106   3.804   3.627   7.332 -1.0008  0.2727  0.3264
  100SAPS   C3810107   3.902   3.578   7.522  0.6383 -0.0937  0.2742
  100SAPS   H8X10108   3.982   3.654   7.505  0.1257  0.9875  2.4562
  100SAPS   H8Y10109   3.935   3.485   7.573  0.0419 -0.4638 -0.0065
  100SAPS   C3910110   3.793   3.635   7.615  0.0181  0.1096  0.1138
  100SAPS   H9X10111   3.707   3.564   7.615 -0.9496  1.2319 -0.9900
  100SAPS   H9Y10112   3.745   3.723   7.568 -0.3841 -0.2733 -0.2082
  100SAPS  C31010113   3.837   3.654   7.755 -0.1295 -0.4026 -0.4236
  100SAPS  H10X10114   3.862   3.558   7.804  0.2429  1.2552  2.8992
  100SAPS  H10Y10115   3.756   3.681   7.827 -0.6155 -3.3653  0.2847
  100SAPS  C31110116   3.943   3.759   7.777  0.0905  0.7101 -0.8075
  100SAPS  H11X10117   3.904   3.854   7.737 -0.1093  1.8933  1.9739
  100SAPS  H11Y10118   4.034   3.734   7.718  0.0782 -1.0791 -0.1192
  100SAPS  C31210119   3.969   3.793   7.926 -0.1113  0.0112 -0.2390
  100SAPS  H12X10120   3.878   3.797   7.990  0.2281 -2.3459  0.4934
  100SAPS  H12Y10121   4.018   3.892   7.926  1.2662 -0.6477 -0.2621
  100SAPS  C31310122   4.063   3.688   7.989  0.3623 -0.5647  0.0415
  100SAPS  H13X10123   4.141   3.676   7.911  2.1892  0.2175  1.6660
  100SAPS  H13Y10124   4.010   3.591   7.997  2.7204 -2.3506 -3.5620
  100SAPS  C31410125   4.128   3.724   8.123 -0.2136 -0.1764  0.1803
  100SAPS  H14X10126   4.043   3.731   8.195 -1.5467  1.6592 -1.4480
  100SAPS  H14Y10127   4.174   3.825   8.117 -0.2172 -0.2637 -1.9258
  100SAPS  C31510128   4.239   3.619   8.164 -0.1312  0.5682  0.0306
  100SAPS  H15X10129   4.317   3.613   8.085  1.5483 -2.5045  1.7033
  100SAPS  H15Y10130   4.179   3.526   8.171 -0.9205  0.9086 -1.7709
  100SAPS  C31610131   4.309   3.655   8.297  0.1426 -0.1265  0.7223
  100SAPS  H16X10132   4.363   3.752   8.294 -3.8114  2.2914  0.6276
  100SAPS  H16Y10133   4.391   3.580   8.302  0.6127  0.3432  0.2343
  100SAPS  C31710134   4.217   3.646   8.421 -0.1116  0.2934  0.4931
  100SAPS  H17X10135   4.122   3.590   8.407  0.4640 -0.7422  0.6353
  100SAPS  H17Y10136   4.172   3.748   8.423 -1.8892 -0.1915 -3.7089
  100SAPS  C31810137   4.278   3.622   8.558 -0.3486  0.1353 -0.7014
  100SAPS  H18X10138   4.348   3.536   8.548  0.1020  0.4833 -0.6016
  100SAPS  H18Y10139   4.205   3.599   8.638  1.2372 -0.3989  0.6674
  100SAPS  H18Z10140   4.332   3.716   8.585 -0.9244 -0.6603  4.1376
  101OSM      N10141   3.158   3.038  11.406  0.5845 -0.6648 -1.1625
  101OSM    C1510142   3.014   3.027  11.446  0.0527  0.0589  0.2582
  101OSM   H15A10143   2.947   3.030  11.361 -0.1095  2.4079  0.4045
  101OSM   H15B10144   2.988   3.100  11.523  0.1071 -0.0678  0.3966
  101OSM   H15C10145   3.000   2.934  11.499 -0.9259 -0.3757 -0.7178
  101OSM    C1410146   3.201   3.178  11.407  0.4402  0.0146  0.0552
  101OSM   H14A10147   3.186   3.238  11.496  2.1292  2.6101 -1.2651
  101OSM   H14B10148   3.146   3.235  11.333  0.9165  2.1944  1.2852
  101OSM   H14C10149   3.305   3.185  11.382  0.4524  1.0014  0.3032
  101OSM    C1310150   3.247   2.966  11.507  0.5954  0.3250 -1.0607
  101OSM   H13A10151   3.232   3.008  11.605  3.0745 -0.2092 -0.3769
  101OSM   H13B10152   3.353   2.974  11.485  1.5957 -1.1957  2.5834
  101OSM   H13C10153   3.225   2.861  11.504 -0.7336  0.5217  0.4998
  101OSM    C1210154   3.171   2.970  11.270  0.0343  0.7322  0.4296
  101OSM   H12A10155   3.167   2.864  11.288 -2.4103  0.0505 -2.9708
  101OSM   H12B10156   3.272   2.975  11.232 -0.4520 -0.0784 -1.0456
  101OSM    C1110157   3.086   3.005  11.150 -0.3220  0.0870 -0.1842
  101OSM   H11A10158   3.122   2.950  11.061 -0.5451 -0.5415  0.1138
  101OSM   H11B10159   3.107   3.113  11.135  1.5518 -0.3080 -0.6506
  101OSM      P10160   2.833   3.001  11.074  0.0939  0.2398 -0.1237
  101OSM    O1310161   2.732   2.891  11.091  0.3673 -1.1505 -0.0444
  101OSM    O1410162   2.786   3.145  11.076  0.6245  0.2018  0.2491
  101OSM    O1110163   2.904   2.967  10.934  0.6836 -0.3362  0.4078
  101OSM    O1210164   2.949   2.984  11.179 -0.0664 -0.3424  0.4700
  101OSM    C1S10165   2.851   3.010  10.808 -0.6550  0.5843 -0.4477
  101OSM    H1S10166   2.850   3.120  10.794  1.2296  0.4953 -1.5640
  101OSM    H1T10167   2.741   2.995  10.797 -0.7472  1.9412 -1.6006
  101OSM     NF10168   2.865   2.994  10.568  0.1868 -0.6337 -0.3454
  101OSM    HNF10169   2.812   2.934  10.509 -1.2519  1.2430 -1.0567
  101OSM    C2S10170   2.924   2.943  10.687 -0.3133  0.4274  0.5568
  101OSM    H2S10171   3.030   2.974  10.703 -0.3543  1.0033 -0.2410
  101OSM    C3S10172   2.921   2.796  10.702  0.3910  0.6289  0.5211
  101OSM    H3S10173   2.820   2.750  10.697  1.1661 -1.0783 -0.4823
  101OSM     O310174   2.977   2.749  10.826  0.0813  0.2421 -0.5045
  101OSM    HO310175   2.952   2.826  10.878 -2.1128 -0.8880  0.2714
  101OSM    C4S10176   2.994   2.737  10.591  0.5086 -0.4680  0.5542
  101OSM    H4S10177   3.071   2.808  10.556 -2.4617  2.3106 -0.8029
  101OSM    C5S10178   2.950   2.646  10.502 -0.1756  0.2019  0.0363
  101OSM    H5S10179   2.848   2.609  10.517  0.5466 -1.3814  1.3629
  101OSM    C6S10180   3.016   2.613  10.373  0.3087  0.5044  0.0696
  101OSM    H6S10181   2.934   2.588  10.302  1.3088 -1.3626 -0.4804
  101OSM    H6T10182   3.072   2.518  10.385 -1.1316 -0.2449  1.0207
  101OSM    C7S10183   3.109   2.706  10.298  0.0583 -0.0629 -0.3410
  101OSM    H7S10184   3.125   2.665  10.195  1.2917 -0.8893  0.1476
  101OSM    H7T10185   3.201   2.713  10.359 -0.5929  2.4226  0.4507
  101OSM    C8S10186   3.042   2.843  10.270  0.1401  0.2933 -0.4931
  101OSM    H8S10187   3.012   2.887  10.367  2.2846  0.4468  0.1675
  101OSM    H8T10188   2.954   2.816  10.207  0.9226  0.6491 -1.7860
  101OSM    C9S10189   3.136   2.930  10.187  0.6469  0.0381  0.0423
  101OSM    H9S10190   3.078   3.017  10.151  2.4443  0.4919 -1.9528
  101OSM    H9T10191   3.179   2.862  10.110 -0.1406 -0.9030  0.4140
  101OSM   C10S10192   3.261   2.980  10.262 -0.2788 -0.3181 -0.6515
  101OSM   H10S10193   3.340   3.011  10.189  1.3344 -1.5150  0.5010
  101OSM   H10T10194   3.310   2.895  10.313 -1.5855  0.3448  1.8458
  101OSM   C11S10195   3.225   3.087  10.360 -0.0917 -0.2187  0.0157
  101OSM   H11S10196   3.162   3.054  10.446 -0.6152  1.7885  0.4461
  101OSM   H11T10197   3.163   3.172  10.322  1.0149  1.0012  0.8614
  101OSM   C12S10198   3.348   3.161  10.421  0.0249  0.3037  1.0305
  101OSM   H12S10199   3.394   3.210  10.332 -0.6643 -3.1232 -1.4470
  101OSM   H12T10200   3.409   3.076  10.457  1.0843 -1.3007 -3.7431
  101OSM   C13S10201   3.315   3.256  10.545  0.3343 -0.1874  0.2518
  101OSM   H13S10202   3.255   3.199  10.620  1.1385  1.1583  1.9898
  101OSM   H13T10203   3.252   3.332  10.495 -0.5003 -1.3416 -0.5191
  101OSM   C14S10204   3.440   3.315  10.613  0.3191 -0.0127 -0.0088
  101OSM   H14S10205   3.408   3.399  10.679  0.5559  0.6492 -0.7164
  101OSM   H14T10206   3.512   3.367  10.546  1.8450 -1.2795  0.5792
  101OSM   C15S10207   3.523   3.206  10.686 -0.7215 -0.2287  0.5483
  101OSM   H15S10208   3.564   3.147  10.602 -3.6642  1.3640 -2.2686
  101OSM   H15T10209   3.449   3.155  10.751 -3.0427  2.2306  0.0392
  101OSM   C16S10210   3.640   3.267  10.771 -0.4664  1.1960  0.1904
  101OSM   H16S10211   3.705   3.339  10.717  0.7004 -0.2881 -0.4373
  101OSM   H16T10212   3.707   3.186  10.804 -0.0694  0.7123 -1.6671
  101OSM   C17S10213   3.594   3.340  10.899 -0.2540  0.0282 -0.7388
  101OSM   H17S10214   3.500   3.289  10.930  0.1445 -2.8820 -3.6741
  101OSM   H17T10215   3.567   3.447  10.887  2.3882  0.8149 -0.3180
  101OSM   C18S10216   3.700   3.327  11.010  0.1403  1.2040 -0.2336
  101OSM   H18S10217   3.787   3.393  10.990 -0.6835  1.3905 -3.9835
  101OSM   H18T10218   3.721   3.218  11.019 -1.4790  0.9346  0.7941
  101OSM   H18U10219   3.661   3.363  11.107 -3.7625 -0.5370 -0.9591
  101OSM    C1F10220   2.894   3.118  10.526 -0.1493 -0.4984 -0.6564
  101OSM     OF10221   2.979   3.189  10.589 -0.5534  0.0735 -0.5165
  101OSM    C2F10222   2.827   3.154  10.397 -0.5996  0.0573  0.0459
  101OSM    H2F10223   2.724   3.115  10.407  0.0475 -1.1832  3.3291
  101OSM    H2G10224   2.883   3.098  10.319 -0.2304 -1.2966  1.2479
  101OSM    C3F10225   2.824   3.311  10.373 -0.2313  0.6323  0.4545
  101OSM    H3F10226   2.760   3.365  10.447  0.7980  3.1806 -0.4163
  101OSM    H3G10227   2.781   3.313  10.271 -0.4693  1.7765  0.5572
  101OSM    C4F10228   2.955   3.379  10.360 -0.3611  0.1672 -0.2529
  101OSM    H4F10229   3.027   3.317  10.302 -0.6024  1.6004 -2.1974
  101OSM    H4G10230   3.003   3.397  10.458  1.4172 -2.6641 -0.4876
  101OSM    C5F10231   2.961   3.524  10.303  0.6827 -0.1432  0.1027
  101OSM    H5F10232   3.063   3.560  10.277  1.1574 -0.4233  1.4900
  101OSM    H5G10233   2.918   3.573  10.392 -3.3046 -1.7020 -0.7394
  101OSM    C6F10234   2.850   3.552  10.200  0.2564  0.3636  0.8082
  101OSM    H6F10235   2.844   3.661  10.178  1.6130  0.1094 -0.9561
  101OSM    H6G10236   2.751   3.520  10.240 -1.7472  0.9094 -3.2184
  101OSM    C7F10237   2.880   3.482  10.065 -0.0479 -0.1200 -0.6203
  101OSM    H7F10238   2.918   3.379  10.082 -1.0263 -0.3999 -0.0315
  101OSM    H7G10239   2.965   3.533  10.016  0.5150  1.3272  1.7033
  101OSM    C8F10240   2.770   3.478   9.965  0.0819 -0.8315 -0.3237
  101OSM    H8F10241   2.687   3.416  10.005 -0.4689  0.1131  0.0199
  101OSM    H8G10242   2.804   3.428   9.872 -4.3383  0.4308 -2.9037
  101OSM    C9F10243   2.708   3.608   9.909 -0.6028 -0.5146 -0.1421
  101OSM    H9F10244   2.606   3.584   9.878 -0.5320 -0.8449 -0.1255
  101OSM   C10F10245   2.763   3.730   9.889  0.4413  0.1614  0.2362
  101OSM   H10F10246   2.687   3.808   9.876  0.8517  0.5346  0.0279
  101OSM   C11F10247   2.900   3.790   9.912  0.3135  0.3695 -0.0676
  101OSM   H11F10248   2.931   3.760  10.015 -3.2068  1.5368  1.4999
  101OSM   H11G10249   2.900   3.901   9.910 -1.3167  0.3713 -0.8384
  101OSM   C12F10250   3.011   3.734   9.816  0.3116  0.3790  0.3698
  101OSM   H12F10251   2.973   3.768   9.718  0.2167  1.9931  0.9330
  101OSM   H12G10252   3.012   3.623   9.815 -0.5498  0.3583  0.7206
  101OSM   C13F10253   3.153   3.796   9.839  0.1777  0.4582 -0.4223
  101OSM   H13F10254   3.173   3.795   9.949 -0.4086  0.8426 -0.3081
  101OSM   H13G10255   3.130   3.900   9.810 -1.8072  0.6833  1.7113
  101OSM   C14F10256   3.269   3.731   9.764  0.1569  0.9935 -0.0307
  101OSM   H14F10257   3.246   3.740   9.656 -1.6089  1.3716  0.3445
  101OSM   H14G10258   3.296   3.626   9.789  1.8561  1.4667  0.1829
  101OSM   C15F10259   3.407   3.800   9.782  0.3195 -0.1644  0.4897
  101OSM   H15F10260   3.439   3.781   9.886  0.3393  1.3167  0.7670
  101OSM   H15G10261   3.397   3.909   9.764 -1.9669 -0.2936  0.6690
  101OSM   C16F10262   3.513   3.744   9.683 -0.1950 -0.3209  0.2688
  101OSM   H16F10263   3.469   3.751   9.581 -0.0404 -3.4442 -0.1151
  101OSM   H16G10264   3.539   3.638   9.706 -0.6032 -0.9700 -1.9812
  101OSM   C17F10265   3.641   3.836   9.693  0.0389 -0.1075  0.2269
  101OSM   H17F10266   3.653   3.854   9.801  0.3843 -1.3362  0.4078
  101OSM   H17G10267   3.610   3.929   9.641 -0.0843  0.1463  0.7581
  101OSM   C18F10268   3.772   3.791   9.622 -0.4675  0.1422 -0.3613
  101OSM   H18F10269   3.850   3.870   9.629 -0.7604  0.2991  1.8990
  101OSM   H18G10270   3.756   3.762   9.516  0.1117  2.2328 -1.0742
  101OSM   H18H10271   3.806   3.702   9.678  1.5434 -0.6664 -2.7123
  102OSM      N10272   1.953   2.682  11.067  0.4411  0.9167  0.7466
  102OSM    C1510273   1.994   2.636  11.204  0.1822  0.1911 -0.8676
  102OSM   H15A10274   1.914   2.583  11.255  0.3370  2.1872  1.6452
  102OSM   H15B10275   2.009   2.716  11.275 -1.0531 -1.0840  0.9233
  102OSM   H15C10276   2.082   2.574  11.207 -1.3775 -2.1484  0.4027
  102OSM    C1410277   1.849   2.784  11.075  0.3276 -0.1452  0.2137
  102OSM   H14A10278   1.764   2.744  11.129  0.6402  0.8606  1.5156
  102OSM   H14B10279   1.809   2.806  10.977 -0.2691 -1.8637  0.0479
  102OSM   H14C10280   1.874   2.878  11.122  1.6904 -0.2813 -0.2166
  102OSM    C1310281   2.065   2.731  10.985  0.0469 -0.3715 -0.0284
  102OSM   H13A10282   2.037   2.767  10.887  1.7571  1.2750  0.0521
  102OSM   H13B10283   2.144   2.660  10.967  1.4867  1.5170 -1.5790
  102OSM   H13C10284   2.106   2.821  11.028  0.5419 -0.2173 -0.8101
  102OSM    C1210285   1.911   2.557  10.985  0.7750  0.1891  0.2612
  102OSM   H12A10286   1.897   2.586  10.882 -4.4836 -1.6100  0.1854
  102OSM   H12B10287   1.812   2.525  11.014  0.7114 -0.1687 -0.3481
  102OSM    C1110288   1.988   2.428  10.988 -0.0498  0.0462 -0.0273
  102OSM   H11A10289   1.932   2.368  10.914  1.2539  2.1139 -2.8801
  102OSM   H11B10290   1.989   2.374  11.085  0.1316 -1.0147 -0.6089
  102OSM      P10291   2.216   2.367  10.860 -0.0860  0.2921  0.4365
  102OSM    O1310292   2.337   2.444  10.837  0.2072  0.1921 -0.4337
  102OSM    O1410293   2.236   2.238  10.927  0.3531 -0.2387 -0.3626
  102OSM    O1110294   2.138   2.341  10.725  0.2973  0.3572 -0.3283
  102OSM    O1210295   2.118   2.448  10.947 -0.2269  0.4377 -0.3942
  102OSM    C1S10296   2.095   2.452  10.643 -0.4238 -0.9065 -0.5547
  102OSM    H1S10297   2.183   2.519  10.629 -0.6094 -0.1681  1.4702
  102OSM    H1T10298   2.028   2.518  10.701  1.6038 -0.3237  1.2505
  102OSM     NF10299   1.995   2.535  10.443 -0.3612  0.3186  0.7804
  102OSM    HNF10300   1.901   2.561  10.464 -0.4992 -0.9405  1.8399
  102OSM    C2S10301   2.038   2.413  10.511  0.6089 -0.3249 -0.4966
  102OSM    H2S10302   2.119   2.367  10.451  0.3808  1.9222 -2.6454
  102OSM    C3S10303   1.916   2.311  10.541 -0.4419 -0.0622 -0.2365
  102OSM    H3S10304   1.830   2.365  10.587  0.0203  0.0119  0.5635
  102OSM     O310305   1.957   2.202  10.625  0.5288 -0.2967 -0.0608
  102OSM    HO310306   2.036   2.236  10.668 -1.1780  2.0880  1.3889
  102OSM    C4S10307   1.889   2.273  10.401 -0.1530 -0.3817  0.2204
  102OSM    H4S10308   1.841   2.355  10.344 -0.7084 -1.0290 -0.2577
  102OSM    C5S10309   1.911   2.159  10.340 -0.1314  0.3055  0.4433
  102OSM    H5S10310   1.965   2.077  10.390  0.3613 -1.0844 -2.1544
  102OSM    C6S10311   1.891   2.142  10.186  0.1490  0.5947 -0.1718
  102OSM    H6S10312   1.786   2.107  10.179  0.0437  1.0678 -1.2592
  102OSM    H6T10313   1.951   2.052  10.160  0.4849  0.5074  0.8699
  102OSM    C7S10314   1.903   2.260  10.088 -0.0706 -0.6257 -1.1177
  102OSM    H7S10315   1.991   2.328  10.103 -0.8417  0.6238 -2.0282
  102OSM    H7T10316   1.824   2.333  10.117 -0.4368 -1.4872  0.1331
  102OSM    C8S10317   1.910   2.231   9.937  0.5888 -0.1474  0.1809
  102OSM    H8S10318   1.805   2.199   9.920  0.8004 -1.1483  0.6709
  102OSM    H8T10319   1.974   2.146   9.908 -1.6368 -1.6954 -0.5048
  102OSM    C9S10320   1.946   2.342   9.841 -0.4108  0.3930  0.0600
  102OSM    H9S10321   2.052   2.371   9.857  0.0679 -1.5803  0.7022
  102OSM    H9T10322   1.890   2.437   9.856  0.8972  1.1456  0.3313
  102OSM   C10S10323   1.938   2.291   9.694 -0.3818 -0.0165  0.6793
  102OSM   H10S10324   1.836   2.252   9.673  0.0560 -0.5464 -0.5859
  102OSM   H10T10325   2.008   2.207   9.675 -0.5803  0.1556 -0.9974
  102OSM   C11S10326   1.948   2.410   9.591 -0.1107 -0.3430  0.1132
  102OSM   H11S10327   2.053   2.426   9.560 -0.4328  1.3861 -0.1537
  102OSM   H11T10328   1.910   2.505   9.635 -1.2199  0.5130 -2.5288
  102OSM   C12S10329   1.866   2.387   9.462  0.3419 -0.0546 -0.2496
  102OSM   H12S10330   1.862   2.476   9.397  0.8052 -1.5105 -2.3960
  102OSM   H12T10331   1.760   2.369   9.491  1.1315 -1.5896  1.9931
  102OSM   C13S10332   1.928   2.289   9.365 -0.3114  0.7229 -0.1084
  102OSM   H13S10333   1.921   2.194   9.422 -0.7327  0.8489  0.0604
  102OSM   H13T10334   2.031   2.315   9.333 -0.4076 -0.7320 -1.7597
  102OSM   C14S10335   1.841   2.252   9.247 -0.3338 -0.0683  0.0330
  102OSM   H14S10336   1.743   2.207   9.275 -1.2756  2.2954  0.7751
  102OSM   H14T10337   1.898   2.172   9.194  1.7861  0.0364  2.0192
  102OSM   C15S10338   1.805   2.357   9.137 -0.6052  0.2808 -0.1833
  102OSM   H15S10339   1.719   2.425   9.155 -1.3947 -0.8038  0.2631
  102OSM   H15T10340   1.778   2.296   9.048  0.5398 -1.0241  0.3323
  102OSM   C16S10341   1.935   2.439   9.090  0.2935 -0.1838 -0.4904
  102OSM   H16S10342   2.017   2.363   9.091  0.5910  0.1322  0.2314
  102OSM   H16T10343   1.952   2.512   9.173  0.1988 -0.6365 -0.0723
  102OSM   C17S10344   1.928   2.503   8.960 -0.1584  0.3518  0.2377
  102OSM   H17S10345   1.830   2.552   8.942  0.1580  0.9707  0.1989
  102OSM   H17T10346   1.937   2.425   8.881  0.0738  0.3967  0.2191
  102OSM   C18S10347   2.031   2.609   8.927 -0.1703 -0.4664  0.1608
  102OSM   H18S10348   2.032   2.688   9.005 -0.4232 -1.2993  1.0237
  102OSM   H18T10349   2.012   2.661   8.831  1.0437  1.6618  1.0162
  102OSM   H18U10350   2.133   2.567   8.915 -0.2491 -0.8208  0.6888
  102OSM    C1F10351   2.099   2.614  10.396 -0.5465  0.0304 -1.1571
  102OSM     OF10352   2.216   2.575  10.407 -0.1325  0.7198  0.7165
  102OSM    C2F10353   2.053   2.739  10.331 -0.1520  0.9573  0.0479
  102OSM    H2F10354   2.071   2.822  10.404  0.4459 -0.7053  1.8851
  102OSM    H2G10355   1.943   2.740  10.318 -0.4224 -1.5367  1.5264
  102OSM    C3F10356   2.123   2.773  10.190 -0.9963  0.3271 -0.2710
  102OSM    H3F10357   2.233   2.780  10.206 -0.8433 -1.7492 -0.1185
  102OSM    H3G10358   2.098   2.873  10.151  1.7562  1.6889  1.1462
  102OSM    C4F10359   2.090   2.676  10.073  0.8509  0.1063  0.3570
  102OSM    H4F10360   1.987   2.692  10.035  1.2289 -0.8966 -1.2140
  102OSM    H4G10361   2.069   2.572  10.105 -0.1153  0.1565 -0.0798
  102OSM    C5F10362   2.172   2.679   9.947  0.1942  0.5839 -0.1221
  102OSM    H5F10363   2.133   2.599   9.881 -1.6539  0.1613  1.3750
  102OSM    H5G10364   2.278   2.649   9.968  0.2308  2.0693  2.2676
  102OSM    C6F10365   2.168   2.816   9.881 -0.1622  0.8862  0.9859
  102OSM    H6F10366   2.197   2.887   9.961  1.7156  1.4050 -0.0866
  102OSM    H6G10367   2.063   2.834   9.849  0.6009  2.1430 -1.0451
  102OSM    C7F10368   2.267   2.840   9.763  1.0200  0.0266 -0.2687
  102OSM    H7F10369   2.368   2.815   9.803  0.2703  0.9061  2.4179
  102OSM    H7G10370   2.277   2.950   9.746 -1.0612  0.4630  0.8996
  102OSM    C8F10371   2.233   2.771   9.624 -0.3684 -0.3529 -0.2051
  102OSM    H8F10372   2.132   2.811   9.604  0.1357 -0.4799 -3.5636
  102OSM    H8G10373   2.221   2.660   9.625  0.6371 -0.4985 -1.5026
  102OSM    C9F10374   2.311   2.809   9.501 -0.1332 -0.1988  0.3011
  102OSM    H9F10375   2.363   2.905   9.512 -0.7392  0.0018  1.5636
  102OSM   C10F10376   2.335   2.752   9.383 -0.0930 -0.4174  0.4351
  102OSM   H10F10377   2.391   2.809   9.308 -1.0281  0.8636  0.6815
  102OSM   C11F10378   2.277   2.621   9.324  0.3302  0.1625 -0.4735
  102OSM   H11F10379   2.203   2.660   9.251  2.5454  1.9967 -1.8889
  102OSM   H11G10380   2.226   2.560   9.402  2.1983  0.0190  0.6814
  102OSM   C12F10381   2.378   2.529   9.252  0.2154 -0.3651  0.8131
  102OSM   H12F10382   2.438   2.483   9.334 -2.4755 -0.8344  2.6594
  102OSM   H12G10383   2.451   2.581   9.187  0.5674 -1.8202  0.0113
  102OSM   C13F10384   2.306   2.428   9.160  0.3934 -0.4093 -0.0122
  102OSM   H13F10385   2.241   2.475   9.083  0.4222  1.2593  0.9471
  102OSM   H13G10386   2.235   2.375   9.227  0.8378 -0.3237  0.5319
  102OSM   C14F10387   2.390   2.311   9.091 -0.3122 -0.4135  0.3282
  102OSM   H14F10388   2.309   2.246   9.049 -0.5713 -1.2153  1.9936
  102OSM   H14G10389   2.436   2.254   9.175  0.0092 -0.2968  0.2295
  102OSM   C15F10390   2.490   2.361   8.980  0.6204  0.7092  0.3321
  102OSM   H15F10391   2.580   2.410   9.020  1.4775 -1.6249  1.4605
  102OSM   H15G10392   2.436   2.424   8.906  1.7404  1.1420 -0.1336
  102OSM   C16F10393   2.559   2.241   8.899  0.6086 -0.0431 -0.0337
  102OSM   H16F10394   2.479   2.183   8.849  1.6187 -0.3098 -1.4045
  102OSM   H16G10395   2.613   2.181   8.975  2.3558 -0.8972 -1.8346
  102OSM   C17F10396   2.666   2.296   8.797  0.0047 -0.3912  0.4822
  102OSM   H17F10397   2.688   2.399   8.833  1.0120 -0.4508  0.0690
  102OSM   H17G10398   2.622   2.303   8.695 -0.1957  0.8213  0.6384
  102OSM   C18F10399   2.794   2.200   8.793 -0.1309  0.1696  0.2337
  102OSM   H18F10400   2.884   2.255   8.757  1.2593 -1.2715  1.3698
  102OSM   H18G10401   2.771   2.108   8.735 -1.4101  0.8592 -0.4057
  102OSM   H18H10402   2.827   2.169   8.894  0.2145 -1.7701 -0.4270
  103OSM      N10403   4.762   0.003  11.141  0.9438  0.7776  0.0779
  103OSM    C1510404   4.839   0.120  11.195 -0.1443  0.1659 -0.0010
  103OSM   H15A10405   4.822   0.215  11.147  1.8993  0.8424  0.5191
  103OSM   H15B10406   4.945   0.108  11.179 -0.0192 -1.9452  1.8702
  103OSM   H15C10407   4.818   0.121  11.301 -0.2073  2.0091 -0.0093
  103OSM    C1410408   4.794  -0.122  11.214 -0.4583  0.0051  0.0616
  103OSM   H14A10409   4.892  -0.163  11.197 -0.1988 -0.4870  2.4210
  103OSM   H14B10410   4.730  -0.203  11.184  0.1804  0.2879 -2.2040
  103OSM   H14C10411   4.777  -0.102  11.319 -0.5804  0.0238  0.0387
  103OSM    C1310412   4.611   0.023  11.167  0.4492 -0.1609  0.2621
  103OSM   H13A10413   4.568  -0.066  11.125 -0.8230  1.2970 -1.7088
  103OSM   H13B10414   4.569   0.103  11.107  2.4802  0.6868 -0.1278
  103OSM   H13C10415   4.593   0.032  11.273  2.4714  0.6235  0.5881
  103OSM    C1210416   4.790  -0.004  10.992  0.9240  0.5247 -0.3316
  103OSM   H12A10417   4.887  -0.048  10.978  0.9890  0.5050  0.1596
  103OSM   H12B10418   4.801   0.090  10.940  1.8138  0.6870  0.1247
  103OSM    C1110419   4.701  -0.092  10.906  0.6942  0.1620  0.5650
  103OSM   H11A10420   4.733  -0.078  10.800 -0.1628  0.8421  0.3747
  103OSM   H11B10421   4.596  -0.055  10.901 -0.6486 -3.3719 -0.6784
  103OSM      P10422   4.841  -0.318  10.904  0.3277  0.0712  0.2448
  103OSM    O1310423   4.951  -0.235  10.865  0.4385  1.2795  0.7132
  103OSM    O1410424   4.860  -0.414  11.013 -0.3618  0.5210 -0.0390
  103OSM    O1110425   4.792  -0.396  10.773 -0.2341 -0.5906 -0.0449
  103OSM    O1210426   4.712  -0.230  10.938 -0.7044 -0.5601 -0.4186
  103OSM    C1S10427   4.654  -0.425  10.751  0.3655  0.1131  0.9349
  103OSM    H1S10428   4.592  -0.333  10.740  0.1917 -0.1699 -0.7536
  103OSM    H1T10429   4.606  -0.477  10.837  1.4743  0.0695  1.5391
  103OSM     NF10430   4.488  -0.524  10.585  0.6297 -0.2435 -0.1937
  103OSM    HNF10431   4.442  -0.605  10.623  1.5776  0.8236  3.6259
  103OSM    C2S10432   4.629  -0.516  10.621 -0.3536  0.1197  0.2443
  103OSM    H2S10433   4.682  -0.464  10.539  1.0813 -0.8108  0.5525
  103OSM    C3S10434   4.699  -0.655  10.642  0.2595 -0.3651  0.1306
  103OSM    H3S10435   4.633  -0.703  10.717 -0.7352 -0.0558 -0.5285
  103OSM     O310436   4.832  -0.662  10.700  0.1057  0.1177  0.0368
  103OSM    HO310437   4.849  -0.577  10.741 -1.2803 -0.2719  1.5140
  103OSM    C4S10438   4.705  -0.739  10.522  0.1646  0.1132  0.0121
  103OSM    H4S10439   4.736  -0.685  10.431 -0.0143  1.4953  0.7357
  103OSM    C5S10440   4.664  -0.864  10.519 -0.5494  0.1748  0.7166
  103OSM    H5S10441   4.621  -0.919  10.604  0.2633 -0.3093  0.8247
  103OSM    C6S10442   4.670  -0.955  10.391 -0.2878  0.0366  0.0045
  103OSM    H6S10443   4.573  -1.008  10.379  0.6436 -1.8782  0.4772
  103OSM    H6T10444   4.751  -1.031  10.401 -0.2184  0.2089  0.8115
  103OSM    C7S10445   4.694  -0.878  10.266 -0.4874 -0.0593 -0.2649
  103OSM    H7S10446   4.783  -0.813  10.265  0.9764 -1.9279  1.3139
  103OSM    H7T10447   4.604  -0.814  10.255  0.5781  1.2262 -2.0347
  103OSM    C8S10448   4.703  -0.976  10.146 -0.0137  0.6182 -0.2416
  103OSM    H8S10449   4.628  -1.056  10.162  0.9869 -0.1473  0.7464
  103OSM    H8T10450   4.800  -1.030  10.148 -0.5020 -0.3052 -0.7365
  103OSM    C9S10451   4.689  -0.907  10.016  0.1051 -0.8482  0.0146
  103OSM    H9S10452   4.767  -0.829  10.005 -1.6320  1.1884  1.2726
  103OSM    H9T10453   4.594  -0.849  10.019  1.4660  1.5045  0.3989
  103OSM   C10S10454   4.671  -1.002   9.900  0.1302  1.0077  0.9679
  103OSM   H10S10455   4.594  -0.956   9.834 -1.3415 -1.9406  0.4291
  103OSM   H10T10456   4.620  -1.096   9.930 -1.8692  1.7469  0.1125
  103OSM   C11S10457   4.796  -1.035   9.812  0.4477  0.6289 -0.7053
  103OSM   H11S10458   4.853  -1.127   9.834  1.0174  0.7302 -1.7129
  103OSM   H11T10459   4.862  -0.946   9.817 -1.7253  2.3663 -1.0284
  103OSM   C12S10460   4.747  -1.031   9.665  0.2025  0.0737  0.0057
  103OSM   H12S10461   4.724  -0.924   9.650 -0.0692  0.1239  0.7462
  103OSM   H12T10462   4.651  -1.086   9.670 -1.5071  2.9192  0.7515
  103OSM   C13S10463   4.844  -1.080   9.558 -0.1526  1.0671  0.4368
  103OSM   H13S10464   4.863  -1.186   9.586 -1.0708  0.9305  0.5915
  103OSM   H13T10465   4.932  -1.014   9.566  1.5950 -0.9980 -0.7577
  103OSM   C14S10466   4.792  -1.058   9.413 -0.0284 -0.1056 -0.2609
  103OSM   H14S10467   4.882  -1.031   9.353 -0.4095  2.0806  0.0881
  103OSM   H14T10468   4.733  -0.965   9.423  2.4586  1.3638  2.1971
  103OSM   C15S10469   4.712  -1.180   9.356 -0.7718  0.6627 -0.5507
  103OSM   H15S10470   4.649  -1.224   9.436  0.8803 -0.7433  0.0437
  103OSM   H15T10471   4.795  -1.251   9.334 -0.6034  0.3398  1.0222
  103OSM   C16S10472   4.629  -1.153   9.231  0.2390  0.0473  0.1158
  103OSM   H16S10473   4.548  -1.084   9.260  1.7828  3.0842 -2.2507
  103OSM   H16T10474   4.577  -1.246   9.197  0.1952  0.4307 -0.8954
  103OSM   C17S10475   4.710  -1.103   9.105  0.1747  0.7232 -0.5750
  103OSM   H17S10476   4.784  -1.025   9.133  0.1037  0.4766  0.3292
  103OSM   H17T10477   4.627  -1.062   9.042 -3.3236 -0.9875  2.4911
  103OSM   C18S10478   4.776  -1.225   9.026  0.2896 -1.0577 -0.5506
  103OSM   H18S10479   4.708  -1.313   9.016 -0.1618 -0.6438 -1.2356
  103OSM   H18T10480   4.874  -1.265   9.060  0.1668 -1.9679 -1.2091
  103OSM   H18U10481   4.790  -1.189   8.922 -0.8183  1.0970 -0.0052
  103OSM    C1F10482   4.415  -0.425  10.529 -0.0929 -0.1866 -0.4728
  103OSM     OF10483   4.469  -0.324  10.490 -0.8011 -0.4229  0.7756
  103OSM    C2F10484   4.270  -0.435  10.519 -0.0822 -0.2507 -0.0678
  103OSM    H2F10485   4.229  -0.333  10.506  0.0035 -0.1614  0.3659
  103OSM    H2G10486   4.238  -0.467  10.620  1.3393 -2.4389 -0.2453
  103OSM    C3F10487   4.224  -0.528  10.408 -0.7543 -0.7073  0.4256
  103OSM    H3F10488   4.116  -0.527  10.384 -0.6957 -0.3989  0.1660
  103OSM    H3G10489   4.247  -0.632  10.438 -0.8763 -0.9707 -0.3558
  103OSM    C4F10490   4.289  -0.509  10.268  0.0856 -0.1534 -0.5982
  103OSM    H4F10491   4.399  -0.497  10.269  0.3880 -2.3711 -1.6384
  103OSM    H4G10492   4.247  -0.415  10.225  1.1265  0.0359 -1.2458
  103OSM    C5F10493   4.267  -0.616  10.163  0.5454  0.3534  0.1136
  103OSM    H5F10494   4.162  -0.608  10.129  0.2498 -2.2329  0.2299
  103OSM    H5G10495   4.289  -0.718  10.202  2.2306  0.3075 -0.8203
  103OSM    C6F10496   4.374  -0.607  10.051 -0.2097  0.4869  0.3790
  103OSM    H6F10497   4.335  -0.677   9.974 -0.7367  2.0335 -0.8072
  103OSM    H6G10498   4.467  -0.656  10.089 -1.7301 -0.9982  2.4389
  103OSM    C7F10499   4.401  -0.470   9.985 -0.7655  0.1652 -0.5397
  103OSM    H7F10500   4.482  -0.476   9.910  1.4241  0.9845  1.6188
  103OSM    H7G10501   4.451  -0.415  10.068  0.6856 -1.6938 -0.1320
  103OSM    C8F10502   4.288  -0.388   9.940  0.6456  0.1958  0.4178
  103OSM    H8F10503   4.218  -0.396  10.026 -0.9846 -1.0266 -0.9515
  103OSM    H8G10504   4.249  -0.445   9.853  1.9000 -0.5614  0.3284
  103OSM    C9F10505   4.319  -0.245   9.894 -0.4468  0.7467  0.1928
  103OSM    H9F10506   4.348  -0.186   9.982  0.7549  0.2741  0.1363
  103OSM   C10F10507   4.317  -0.198   9.770  0.1313 -0.2848  0.7403
  103OSM   H10F10508   4.340  -0.098   9.732 -1.2801 -0.2811 -0.1662
  103OSM   C11F10509   4.279  -0.283   9.650 -0.4393  0.0652 -0.1100
  103OSM   H11F10510   4.204  -0.221   9.596 -2.0343 -0.5050  1.3418
  103OSM   H11G10511   4.220  -0.371   9.683 -2.2191  0.8239 -1.1314
  103OSM   C12F10512   4.400  -0.330   9.563  0.2053  0.5784 -0.5318
  103OSM   H12F10513   4.463  -0.410   9.607  1.2893  0.4716 -2.1946
  103OSM   H12G10514   4.472  -0.245   9.553  2.2799 -1.0763 -0.4629
  103OSM   C13F10515   4.373  -0.387   9.424  0.1258  0.5775 -0.7129
  103OSM   H13F10516   4.466  -0.432   9.382 -0.2698 -0.8672 -0.1372
  103OSM   H13G10517   4.302  -0.471   9.442  1.2821 -0.2293  0.2957
  103OSM   C14F10518   4.307  -0.297   9.328 -0.5688 -0.7639  0.1294
  103OSM   H14F10519   4.374  -0.208   9.320 -0.5961 -0.5618  1.7327
  103OSM   H14G10520   4.205  -0.261   9.355 -0.0937 -0.7381  2.0026
  103OSM   C15F10521   4.292  -0.355   9.187  0.3630 -0.6716 -0.4171
  103OSM   H15F10522   4.240  -0.453   9.193  0.9286 -0.9757 -0.4696
  103OSM   H15G10523   4.385  -0.388   9.137  0.0304 -1.5883 -0.4418
  103OSM   C16F10524   4.214  -0.255   9.095 -0.3613 -0.1610  0.2453
  103OSM   H16F10525   4.268  -0.159   9.082  0.4603 -0.5715  0.5317
  103OSM   H16G10526   4.113  -0.247   9.141 -0.4216  2.5536 -0.1673
  103OSM   C17F10527   4.186  -0.310   8.952  0.3248 -0.4877 -0.2993
  103OSM   H17F10528   4.289  -0.313   8.910  2.7179  0.7954  4.6814
  103OSM   H17G10529   4.117  -0.254   8.885 -0.1343  0.1812  0.7126
  103OSM   C18F10530   4.127  -0.453   8.946 -0.1562  0.6559  0.3660
  103OSM   H18F10531   4.032  -0.470   9.000 -0.0463  0.0586  0.3834
  103OSM   H18G10532   4.202  -0.521   8.992  0.5502  0.7550 -0.6061
  103OSM   H18H10533   4.120  -0.490   8.842 -0.0023 -2.0644  1.2456
  104OSM      N10534   0.468   4.915  10.638 -0.3458 -0.5457 -0.1254
  104OSM    C1510535   0.430   4.781  10.589 -0.0750 -0.3579 -1.1026
  104OSM   H15A10536   0.367   4.787  10.501 -0.6253 -0.0959 -0.6940
  104OSM   H15B10537   0.366   4.736  10.664 -0.1621  1.0014 -0.3282
  104OSM   H15C10538   0.518   4.721  10.573  0.1491 -0.7031  1.1334
  104OSM    C1410539   0.346   4.987  10.681 -0.3793  0.1320 -0.1588
  104OSM   H14A10540   0.323   4.971  10.785 -0.1832  0.8653 -0.0013
  104OSM   H14B10541   0.265   4.935  10.632  1.1671 -3.7369  1.0027
  104OSM   H14C10542   0.353   5.094  10.674 -1.5183  0.1852 -0.7110
  104OSM    C1310543   0.543   4.897  10.768 -0.0455 -0.5507  0.4351
  104OSM   H13A10544   0.488   4.838  10.840 -0.2570  0.9384  1.5476
  104OSM   H13B10545   0.558   4.990  10.822  0.6069 -0.6701  0.4664
  104OSM   H13C10546   0.643   4.863  10.747  0.9207  2.5188 -0.4695
  104OSM    C1210547   0.552   4.996  10.538 -0.0050 -0.0807  0.1957
  104OSM   H12A10548   0.596   5.078  10.592  0.7218 -2.4473  3.5564
  104OSM   H12B10549   0.489   5.045  10.465  3.0079  0.8611 -1.9819
  104OSM    C1110550   0.678   4.923  10.470 -0.1722 -0.0148  0.8639
  104OSM   H11A10551   0.714   5.001  10.400 -0.7079  0.3317  0.9681
  104OSM   H11B10552   0.638   4.834  10.417 -0.2354  0.6832 -0.2878
  104OSM      P10553   0.908   4.968  10.590  0.1772 -0.7145 -0.0726
  104OSM    O1310554   0.874   5.106  10.632 -0.4800 -0.4237  0.1976
  104OSM    O1410555   0.994   4.892  10.684  0.2324  0.3722 -0.0354
  104OSM    O1110556   0.971   4.991  10.446 -0.0186 -0.6209  0.0170
  104OSM    O1210557   0.774   4.888  10.566 -0.1324  0.4363 -0.5522
  104OSM    C1S10558   1.120   4.971  10.437  0.5797  0.2860 -0.6461
  104OSM    H1S10559   1.143   4.864  10.456  2.5633  0.5816 -1.1505
  104OSM    H1T10560   1.180   5.029  10.509  0.5725 -0.0013 -0.4060
  104OSM     NF10561   1.315   4.939  10.298  0.6010  0.1497  0.2434
  104OSM    HNF10562   1.394   4.999  10.295 -0.5545  1.6723 -2.5112
  104OSM    C2S10563   1.178   4.997  10.295 -0.2749  0.2547 -0.0369
  104OSM    H2S10564   1.125   4.934  10.219 -1.4721  0.1093  0.8904
  104OSM    C3S10565   1.177   5.140  10.260  0.0457  0.4620  0.1972
  104OSM    H3S10566   1.244   5.195  10.330  1.0299 -0.8119  0.2998
  104OSM     O310567   1.039   5.182  10.249  0.2430 -0.1829 -0.2594
  104OSM    HO310568   0.991   5.120  10.304  1.3304 -0.4654  0.3800
  104OSM    C4S10569   1.234   5.165  10.123  0.0269 -0.4686  0.2829
  104OSM    H4S10570   1.329   5.221  10.130 -0.8405  1.0212  0.4680
  104OSM    C5S10571   1.182   5.133   9.997 -0.5418  0.0039 -0.5789
  104OSM    H5S10572   1.089   5.075   9.987 -0.7312  0.4082 -1.2051
  104OSM    C6S10573   1.252   5.172   9.865  0.7066  0.0336  0.0383
  104OSM    H6S10574   1.237   5.081   9.802 -0.7644  0.0450  0.3481
  104OSM    H6T10575   1.360   5.199   9.869  0.4675  1.0219 -0.0172
  104OSM    C7S10576   1.181   5.291   9.805 -0.6166 -0.3401 -0.1553
  104OSM    H7S10577   1.207   5.374   9.875  2.1960 -0.8967 -0.3917
  104OSM    H7T10578   1.072   5.275   9.792 -0.2538 -2.6994 -0.6341
  104OSM    C8S10579   1.242   5.327   9.671 -0.4802  0.4027 -0.8836
  104OSM    H8S10580   1.230   5.249   9.593  0.1105 -0.4293 -0.1664
  104OSM    H8T10581   1.344   5.358   9.702 -1.2162  0.2839  1.8856
  104OSM    C9S10582   1.172   5.454   9.612 -0.2274 -0.0023 -0.6476
  104OSM    H9S10583   1.200   5.542   9.674  0.1388  0.5490 -1.5850
  104OSM    H9T10584   1.062   5.437   9.617  0.0082 -1.9964 -1.4918
  104OSM   C10S10585   1.200   5.480   9.464 -0.3109 -0.4917 -0.7802
  104OSM   H10S10586   1.307   5.501   9.440 -0.4742 -0.2458 -1.3008
  104OSM   H10T10587   1.157   5.581   9.449  1.0106  0.1942 -0.1981
  104OSM   C11S10588   1.146   5.392   9.359  0.1868  0.9225 -0.3036
  104OSM   H11S10589   1.035   5.391   9.366  0.0111  2.2770 -2.1237
  104OSM   H11T10590   1.181   5.286   9.356  0.2066  0.9393 -0.6681
  104OSM   C12S10591   1.169   5.461   9.224 -0.1132  0.4996 -0.2848
  104OSM   H12S10592   1.279   5.469   9.209  0.4007 -0.4530  2.2634
  104OSM   H12T10593   1.124   5.562   9.225  0.0231  0.5850 -1.5746
  104OSM   C13S10594   1.104   5.389   9.105  0.7619 -0.5000  0.3477
  104OSM   H13S10595   1.114   5.280   9.123 -1.0941 -0.9690 -1.1920
  104OSM   H13T10596   1.166   5.425   9.020 -0.5934  1.4840  0.1087
  104OSM   C14S10597   0.964   5.446   9.065  0.3960  0.2230 -0.1605
  104OSM   H14S10598   0.908   5.456   9.161 -1.3365  0.2012 -1.1326
  104OSM   H14T10599   0.911   5.369   9.006 -1.7300  0.5709  1.1899
  104OSM   C15S10600   0.968   5.577   8.987 -0.2817  0.8592  0.1440
  104OSM   H15S10601   0.996   5.572   8.880 -2.0879 -0.3126 -0.3166
  104OSM   H15T10602   1.047   5.644   9.027  2.2962 -1.5177 -0.6754
  104OSM   C16S10603   0.826   5.639   8.981  0.3718 -0.1427 -0.4928
  104OSM   H16S10604   0.801   5.708   9.064  2.1334  0.5763 -0.5149
  104OSM   H16T10605   0.761   5.549   8.973 -1.2189  0.9210 -0.0600
  104OSM   C17S10606   0.810   5.732   8.857 -0.5011  0.1479 -0.2774
  104OSM   H17S10607   0.876   5.704   8.772  0.5954  2.5837 -0.2891
  104OSM   H17T10608   0.846   5.833   8.886  0.0559  0.2360 -1.2376
  104OSM   C18S10609   0.665   5.736   8.805 -0.2086  0.3627  0.1147
  104OSM   H18S10610   0.611   5.640   8.786 -0.7491  0.4412  1.1517
  104OSM   H18T10611   0.666   5.795   8.711  2.7541 -0.9690 -0.7929
  104OSM   H18U10612   0.601   5.786   8.882  1.7750  2.7211  0.3381
  104OSM    C1F10613   1.337   4.810  10.292  0.0243  0.8224 -0.1072
  104OSM     OF10614   1.249   4.732  10.256  0.0540 -0.1524 -0.5184
  104OSM    C2F10615   1.476   4.762  10.316  0.3226 -0.1453 -0.3318
  104OSM    H2F10616   1.485   4.697  10.406 -1.1860  2.8838  2.2424
  104OSM    H2G10617   1.544   4.850  10.324 -0.4810  0.4996 -0.5113
  104OSM    C3F10618   1.529   4.700  10.186  0.3371 -0.1353  0.0166
  104OSM    H3F10619   1.455   4.622  10.160 -0.3469 -0.5544  2.9056
  104OSM    H3G10620   1.626   4.656  10.216 -0.7749 -1.3059  2.0979
  104OSM    C4F10621   1.541   4.804  10.071  0.0177  0.3511 -0.5513
  104OSM    H4F10622   1.612   4.884  10.101 -1.6234  1.8435 -0.5085
  104OSM    H4G10623   1.442   4.839  10.034 -0.2872 -0.5824 -0.6397
  104OSM    C5F10624   1.603   4.735   9.948  0.2391  0.2138  0.3771
  104OSM    H5F10625   1.551   4.644   9.912  0.6590 -0.7189  2.0084
  104OSM    H5G10626   1.706   4.700   9.971  0.1035  0.2472  1.0636
  104OSM    C6F10627   1.618   4.837   9.829 -0.0918  0.2414 -0.3862
  104OSM    H6F10628   1.658   4.796   9.734 -0.6435  0.5130 -0.7397
  104OSM    H6G10629   1.693   4.910   9.866 -1.9357  1.7015  0.6854
  104OSM    C7F10630   1.488   4.917   9.804  0.2085 -0.6094 -0.1163
  104OSM    H7F10631   1.473   5.004   9.872 -2.6434 -0.9797 -0.1734
  104OSM    H7G10632   1.396   4.858   9.823 -2.8684  2.4163 -3.9929
  104OSM    C8F10633   1.487   4.963   9.653  0.2504 -0.1607  0.0822
  104OSM    H8F10634   1.387   5.009   9.643  0.5475  1.0172  1.9012
  104OSM    H8G10635   1.487   4.876   9.584 -0.4692  1.5206 -2.1539
  104OSM    C9F10636   1.598   5.065   9.626  0.2539 -0.1366  0.1843
  104OSM    H9F10637   1.636   5.111   9.718 -0.4158 -2.1680  1.5427
  104OSM   C10F10638   1.645   5.105   9.501  0.1159  0.4473  0.0709
  104OSM   H10F10639   1.722   5.183   9.499 -1.6649  2.5108  2.9612
  104OSM   C11F10640   1.598   5.059   9.368 -0.6464 -0.2209 -0.4351
  104OSM   H11F10641   1.551   4.958   9.370 -1.6942  0.2482 -0.7783
  104OSM   H11G10642   1.685   5.049   9.300 -1.0799  2.6468 -1.5166
  104OSM   C12F10643   1.500   5.160   9.313  0.2818  0.6952  0.0844
  104OSM   H12F10644   1.518   5.258   9.360  0.2895 -0.0586  1.7238
  104OSM   H12G10645   1.394   5.130   9.328  0.6017  0.3860  1.9834
  104OSM   C13F10646   1.509   5.164   9.158 -0.4729 -0.0317  0.3752
  104OSM   H13F10647   1.612   5.200   9.138 -0.8151  0.9556  0.3481
  104OSM   H13G10648   1.440   5.244   9.125  1.3619  1.3603 -0.2299
  104OSM   C14F10649   1.493   5.030   9.094  0.2213 -0.3379  1.0453
  104OSM   H14F10650   1.396   4.977   9.101  0.9135 -1.8864 -0.3035
  104OSM   H14G10651   1.570   4.958   9.131 -2.1854 -3.4597  0.4057
  104OSM   C15F10652   1.524   5.047   8.943 -0.4181  0.9262  1.2003
  104OSM   H15F10653   1.616   5.108   8.929  1.5467 -2.0213  0.3026
  104OSM   H15G10654   1.439   5.093   8.890  0.9071  0.6060 -1.3536
  104OSM   C16F10655   1.548   4.909   8.877  0.2022  0.6004  0.4633
  104OSM   H16F10656   1.454   4.850   8.888  0.0193  0.6112 -0.8462
  104OSM   H16G10657   1.617   4.850   8.941 -1.6339 -0.2791  1.7054
  104OSM   C17F10658   1.586   4.908   8.724  0.6177  0.4162  0.6989
  104OSM   H17F10659   1.603   4.804   8.688 -1.3985 -0.1646  1.2520
  104OSM   H17G10660   1.680   4.964   8.710  0.6826  0.0029 -0.6615
  104OSM   C18F10661   1.476   4.968   8.639 -0.5807  0.3291 -0.6685
  104OSM   H18F10662   1.486   5.078   8.653  2.8115  0.1248 -0.5872
  104OSM   H18G10663   1.382   4.926   8.680  0.0377  0.2633  0.7814
  104OSM   H18H10664   1.492   4.947   8.532 -2.0448 -1.0950 -0.6409
  105OSM      N10665   1.512   4.109  10.850  0.0629  0.2333 -0.4131
  105OSM    C1510666   1.393   4.095  10.749  0.0054  0.0451 -0.1875
  105OSM   H15A10667   1.401   4.030  10.663 -0.6292  0.4697 -0.5698
  105OSM   H15B10668   1.387   4.198  10.718  1.4075  0.6905  1.4811
  105OSM   H15C10669   1.304   4.064  10.802  1.0390 -1.4005  0.7916
  105OSM    C1410670   1.504   4.005  10.954  0.2375  0.1006  0.1816
  105OSM   H14A10671   1.409   4.012  11.006  0.8713 -1.6102  1.6834
  105OSM   H14B10672   1.591   4.006  11.019  0.4317 -0.3317 -0.0710
  105OSM   H14C10673   1.503   3.905  10.913 -0.3889  0.7400 -1.4427
  105OSM    C1310674   1.644   4.083  10.775 -0.3384 -0.1506 -0.3333
  105OSM   H13A10675   1.723   4.064  10.845  0.8710  1.1096 -1.3073
  105OSM   H13B10676   1.651   4.172  10.715 -0.7324 -0.5389 -0.9730
  105OSM   H13C10677   1.632   3.994  10.714 -3.2903 -1.9623  2.5456
  105OSM    C1210678   1.510   4.244  10.915  1.0611  0.2554  0.7479
  105OSM   H12A10679   1.577   4.243  10.999 -1.0536  0.0055  2.5322
  105OSM   H12B10680   1.416   4.258  10.967  1.1097 -0.1676  0.9511
  105OSM    C1110681   1.522   4.366  10.821  0.3890 -0.4014 -0.2154
  105OSM   H11A10682   1.618   4.367  10.764 -0.2696  0.2200 -1.3635
  105OSM   H11B10683   1.535   4.453  10.889  0.0999 -0.5724  0.0573
  105OSM      P10684   1.271   4.435  10.759 -0.2493  0.5043  0.3836
  105OSM    O1310685   1.204   4.368  10.877  0.4839  0.0754 -0.2797
  105OSM    O1410686   1.276   4.582  10.745 -0.4072 -0.9493 -0.0131
  105OSM    O1110687   1.196   4.374  10.633  0.2596 -0.3534 -0.2041
  105OSM    O1210688   1.416   4.379  10.732  0.3872  0.3169 -0.0946
  105OSM    C1S10689   1.236   4.401  10.498  0.3540  0.3315  0.2409
  105OSM    H1S10690   1.298   4.315  10.466 -0.4611  0.8334 -3.0777
  105OSM    H1T10691   1.295   4.496  10.495 -0.0990  0.6086 -0.0002
  105OSM     NF10692   1.172   4.455  10.265  0.2434 -0.3106 -0.2537
  105OSM    HNF10693   1.167   4.550  10.235 -1.1070  0.1049  1.1666
  105OSM    C2S10694   1.122   4.425  10.395  0.0191  0.4131 -0.7491
  105OSM    H2S10695   1.063   4.332  10.384 -1.4199  1.1410  0.3762
  105OSM    C3S10696   1.014   4.528  10.452 -0.1377 -0.3475 -0.0996
  105OSM    H3S10697   1.061   4.628  10.466  0.2482 -0.2586 -1.7855
  105OSM     O310698   0.964   4.487  10.577  0.3661  0.1214 -0.2675
  105OSM    HO310699   1.022   4.411  10.592  0.7660 -0.1996 -2.9651
  105OSM    C4S10700   0.904   4.551  10.351 -0.1424 -0.1464  0.1451
  105OSM    H4S10701   0.869   4.454  10.313  0.3226 -0.0259 -0.6215
  105OSM    C5S10702   0.855   4.664  10.302  0.2135 -0.2449  0.2120
  105OSM    H5S10703   0.892   4.761  10.338  0.9569  0.2513 -1.7660
  105OSM    C6S10704   0.742   4.657  10.203  1.0234  0.5845  0.6748
  105OSM    H6S10705   0.707   4.761  10.188 -0.4961  0.1356  0.9647
  105OSM    H6T10706   0.650   4.605  10.237  1.0171 -0.1672 -0.4302
  105OSM    C7S10707   0.798   4.593  10.069  0.1211  0.1292  0.0800
  105OSM    H7S10708   0.710   4.584  10.002  0.6446 -2.1865 -0.3825
  105OSM    H7T10709   0.843   4.494  10.093 -1.4283 -0.3837  1.0686
  105OSM    C8S10710   0.903   4.680  10.004  0.2623  0.1927  0.1996
  105OSM    H8S10711   0.998   4.665  10.061  0.8545 -0.8408 -0.9936
  105OSM    H8T10712   0.872   4.786  10.010  1.9680  0.7920 -0.6332
  105OSM    C9S10713   0.923   4.637   9.856 -0.3004  0.4176  0.4706
  105OSM    H9S10714   0.832   4.659   9.795  1.4002  2.4739 -1.5133
  105OSM    H9T10715   0.937   4.528   9.868  2.2342  0.7758  1.3587
  105OSM   C10S10716   1.047   4.712   9.793  0.1950  0.0779 -0.0957
  105OSM   H10S10717   1.135   4.647   9.813 -0.8295 -1.3181  0.0346
  105OSM   H10T10718   1.052   4.811   9.843 -1.3393  0.7745 -1.2724
  105OSM   C11S10719   1.044   4.715   9.644 -0.3134  0.6935 -0.7556
  105OSM   H11S10720   0.975   4.797   9.616  0.2188  1.9018  1.2563
  105OSM   H11T10721   0.998   4.619   9.613 -0.9722 -0.2674  2.7639
  105OSM   C12S10722   1.182   4.722   9.583  0.3588 -0.2634  0.5241
  105OSM   H12S10723   1.237   4.629   9.613 -0.6980 -0.8373  0.7351
  105OSM   H12T10724   1.241   4.804   9.628  0.7215 -0.3435  0.2042
  105OSM   C13S10725   1.188   4.726   9.437 -0.2042 -0.2318  0.4577
  105OSM   H13S10726   1.153   4.626   9.403  1.2204 -1.1061  1.4249
  105OSM   H13T10727   1.293   4.738   9.404 -0.5685 -0.9701 -1.0396
  105OSM   C14S10728   1.112   4.834   9.363 -0.8720 -0.2180 -0.8958
  105OSM   H14S10729   1.124   4.932   9.414 -2.7996 -0.8566  0.9149
  105OSM   H14T10730   1.007   4.801   9.375 -0.7344 -0.2863  0.2560
  105OSM   C15S10731   1.155   4.860   9.216 -0.0332  0.0892  0.6221
  105OSM   H15S10732   1.187   4.768   9.163  2.2167 -0.1555  2.2468
  105OSM   H15T10733   1.246   4.923   9.230 -1.4733  2.5757 -0.4880
  105OSM   C16S10734   1.057   4.951   9.135  0.1908 -0.0241 -0.1612
  105OSM   H16S10735   1.023   5.035   9.200 -2.7080 -1.2270  0.0144
  105OSM   H16T10736   0.967   4.887   9.124 -0.7486  0.8717  1.7593
  105OSM   C17S10737   1.097   4.992   8.991  0.9205 -0.2518 -0.1993
  105OSM   H17S10738   1.114   4.893   8.944  0.5866  0.3524 -1.6440
  105OSM   H17T10739   1.193   5.047   8.982  0.5059  0.1298 -3.5817
  105OSM   C18S10740   0.999   5.065   8.897 -0.3075 -0.0140 -0.0657
  105OSM   H18S10741   0.953   5.154   8.945 -3.8482  0.2988 -3.6142
  105OSM   H18T10742   0.922   4.998   8.855  0.5514 -0.1868 -1.4133
  105OSM   H18U10743   1.047   5.088   8.800 -0.7336 -0.0286 -0.2796
  105OSM    C1F10744   1.235   4.380  10.176  0.3279  0.5740 -0.1971
  105OSM     OF10745   1.281   4.271  10.215 -0.6775 -0.4903  0.5008
  105OSM    C2F10746   1.249   4.435  10.042  0.2593 -0.2132  0.4959
  105OSM    H2F10747   1.236   4.546  10.042  1.4221 -0.0263 -1.5682
  105OSM    H2G10748   1.164   4.398   9.981 -0.2602  1.0748  0.3905
  105OSM    C3F10749   1.373   4.394   9.958 -0.6654 -0.1344  0.1727
  105OSM    H3F10750   1.384   4.284   9.951  1.3956  0.1386 -3.3896
  105OSM    H3G10751   1.458   4.440  10.013 -0.4378  0.2197 -0.4723
  105OSM    C4F10752   1.365   4.445   9.819  0.0031 -0.2208  0.2316
  105OSM    H4F10753   1.367   4.555   9.829  2.3306 -0.2001  0.1625
  105OSM    H4G10754   1.270   4.429   9.764 -1.2697  2.5928  1.4380
  105OSM    C5F10755   1.487   4.405   9.733 -0.1438  0.2077 -0.4893
  105OSM    H5F10756   1.480   4.296   9.713 -1.9719  0.1468  0.2289
  105OSM    H5G10757   1.582   4.413   9.789  0.3127 -2.2027 -0.7981
  105OSM    C6F10758   1.499   4.474   9.601 -0.3528 -0.3390 -0.1494
  105OSM    H6F10759   1.470   4.582   9.600 -2.1545 -0.7655  1.2816
  105OSM    H6G10760   1.433   4.435   9.520 -2.5718  1.6930  0.5512
  105OSM    C7F10761   1.644   4.479   9.545  0.8042 -0.2913 -0.0939
  105OSM    H7F10762   1.691   4.380   9.567 -1.0661 -1.1098  0.4461
  105OSM    H7G10763   1.696   4.562   9.597  0.0923  0.8189 -1.1035
  105OSM    C8F10764   1.657   4.502   9.393 -0.5865 -0.0104  0.0746
  105OSM    H8F10765   1.621   4.411   9.340  3.5314 -0.3746 -2.5057
  105OSM    H8G10766   1.763   4.501   9.362 -0.6793 -2.8185 -0.3478
  105OSM    C9F10767   1.591   4.633   9.339 -0.4017  0.2128 -0.0893
  105OSM    H9F10768   1.620   4.719   9.401  0.0067 -0.8424  1.2417
  105OSM   C10F10769   1.514   4.645   9.228  0.0339 -0.2728 -0.3447
  105OSM   H10F10770   1.460   4.737   9.199 -0.4847 -0.5129 -0.1601
  105OSM   C11F10771   1.475   4.535   9.134 -0.1006  0.0010  0.2654
  105OSM   H11F10772   1.366   4.554   9.127 -0.5868 -1.4933  2.5594
  105OSM   H11G10773   1.479   4.436   9.184 -1.2656 -1.2906 -2.0458
  105OSM   C12F10774   1.546   4.535   8.998 -0.0564  0.0759  0.0810
  105OSM   H12F10775   1.536   4.639   8.959 -1.3251  0.6267  1.7659
  105OSM   H12G10776   1.491   4.463   8.935  0.5982 -0.5786  0.2389
  105OSM   C13F10777   1.690   4.493   8.992  0.3577 -0.0223  0.1184
  105OSM   H13F10778   1.695   4.393   9.040 -1.0152  0.2412  0.8787
  105OSM   H13G10779   1.740   4.557   9.067  1.2543 -0.8047  0.2019
  105OSM   C14F10780   1.735   4.503   8.850 -0.3697  0.7191 -0.4411
  105OSM   H14F10781   1.756   4.611   8.831  2.0133  0.5305  0.7694
  105OSM   H14G10782   1.652   4.468   8.784 -1.0157  0.9319  0.2450
  105OSM   C15F10783   1.861   4.430   8.825 -0.4188  0.5880  0.7635
  105OSM   H15F10784   1.853   4.326   8.862  1.4016 -1.4774 -3.8205
  105OSM   H15G10785   1.944   4.480   8.880 -0.9356  1.6028  0.6507
  105OSM   C16F10786   1.896   4.418   8.674  0.1246  0.3372  0.3479
  105OSM   H16F10787   1.905   4.521   8.634  0.0386 -0.2718 -1.3100
  105OSM   H16G10788   1.805   4.377   8.626  0.3413 -0.7952  0.8848
  105OSM   C17F10789   2.016   4.327   8.632 -0.3247 -0.4665 -0.0120
  105OSM   H17F10790   2.030   4.335   8.522  0.2481 -2.1590 -0.1015
  105OSM   H17G10791   1.997   4.219   8.648 -1.0872 -0.1435  1.4368
  105OSM   C18F10792   2.146   4.375   8.700  0.3325 -0.5978  0.0291
  105OSM   H18F10793   2.225   4.300   8.678  0.9025  0.4551 -1.6983
  105OSM   H18G10794   2.144   4.367   8.811  0.7155 -4.0054 -0.0960
  105OSM   H18H10795   2.171   4.478   8.666 -1.1692 -0.2358 -0.0537
  106OSM      N10796   2.485   3.282  10.842 -0.0241  0.4439 -0.1230
  106OSM    C1510797   2.539   3.310  10.984  0.5386 -0.1147  0.7538
  106OSM   H15A10798   2.465   3.295  11.061 -0.2849 -2.6440 -0.4285
  106OSM   H15B10799   2.576   3.411  10.995 -0.1333  0.1230  0.8326
  106OSM   H15C10800   2.622   3.245  11.008  1.6113  1.3147  1.0664
  106OSM    C1410801   2.601   3.277  10.748  0.9031  0.8614 -0.5544
  106OSM   H14A10802   2.571   3.256  10.646 -1.4421 -0.0412  0.2543
  106OSM   H14B10803   2.669   3.198  10.776  1.6872  2.0771  1.0833
  106OSM   H14C10804   2.651   3.372  10.741  0.7266  0.8665 -2.2126
  106OSM    C1310805   2.409   3.148  10.847 -0.2596  0.4556  0.0256
  106OSM   H13A10806   2.350   3.139  10.937 -0.4350 -0.5315 -0.1748
  106OSM   H13B10807   2.476   3.064  10.844  0.9851  1.3088  2.0263
  106OSM   H13C10808   2.350   3.145  10.757  0.3408 -0.3554 -0.3534
  106OSM    C1210809   2.396   3.399  10.816 -0.4173 -0.6519  0.0472
  106OSM   H12A10810   2.447   3.487  10.853 -1.7554 -0.8078  2.4795
  106OSM   H12B10811   2.308   3.395  10.878 -1.4875  2.4855 -1.0526
  106OSM    C1110812   2.357   3.418  10.663 -0.2350  0.5348 -0.0268
  106OSM   H11A10813   2.453   3.423  10.607  0.7714 -1.3721  1.4326
  106OSM   H11B10814   2.309   3.518  10.657  0.0332  0.5732 -3.0692
  106OSM      P10815   2.125   3.296  10.666  0.2608  0.0135 -0.1704
  106OSM    O1310816   2.108   3.145  10.687 -0.0606  0.0057  0.3513
  106OSM    O1410817   2.103   3.381  10.785 -0.0427 -0.7133  0.2603
  106OSM    O1110818   2.031   3.337  10.548  0.1142 -0.2094 -0.2593
  106OSM    O1210819   2.274   3.310  10.618  0.0959  0.5639  0.3401
  106OSM    C1S10820   2.075   3.324  10.412  0.7636 -0.1049  0.2283
  106OSM    H1S10821   2.185   3.334  10.400  0.6976  0.7920  0.2932
  106OSM    H1T10822   2.032   3.410  10.356  2.0486  1.5028  1.6216
  106OSM     NF10823   2.069   3.205  10.200  0.0265  0.6587  0.1780
  106OSM    HNF10824   1.986   3.202  10.145 -0.0482 -1.3004  0.3210
  106OSM    C2S10825   2.038   3.194  10.337 -0.5126 -0.1193 -0.3909
  106OSM    H2S10826   2.098   3.114  10.385 -2.1543 -0.5857  1.0012
  106OSM    C3S10827   1.889   3.156  10.361  0.0322  1.0100 -0.2263
  106OSM    H3S10828   1.824   3.240  10.330 -1.5400 -0.0609  0.0456
  106OSM     O310829   1.862   3.134  10.502 -0.4072 -0.0630 -0.2465
  106OSM    HO310830   1.947   3.137  10.546 -0.8564 -1.1487  0.7614
  106OSM    C4S10831   1.838   3.023  10.301  0.3705 -0.0204 -0.2495
  106OSM    H4S10832   1.881   2.933  10.349  1.9716  0.8409 -0.0151
  106OSM    C5S10833   1.744   2.997  10.206 -0.7231 -0.3346  0.2843
  106OSM    H5S10834   1.700   3.085  10.158 -1.0844 -0.0789  1.0591
  106OSM    C6S10835   1.694   2.870  10.151  0.3730  0.0139 -0.2256
  106OSM    H6S10836   1.583   2.871  10.162  0.1996  0.2286 -1.7564
  106OSM    H6T10837   1.722   2.776  10.203  0.5995 -0.6590 -1.5337
  106OSM    C7S10838   1.735   2.858  10.000 -0.0565  0.0540  0.2954
  106OSM    H7S10839   1.845   2.861   9.992  0.1702 -1.6738  2.1097
  106OSM    H7T10840   1.690   2.942   9.943  1.7947  1.3028  0.5852
  106OSM    C8S10841   1.675   2.735   9.929 -0.6479 -0.2325 -0.1377
  106OSM    H8S10842   1.565   2.748   9.930 -0.6799 -0.1644  2.6420
  106OSM    H8T10843   1.705   2.657  10.002  1.9771  0.2062 -0.6388
  106OSM    C9S10844   1.734   2.717   9.793  0.3389 -0.0584 -0.3472
  106OSM    H9S10845   1.708   2.611   9.772 -0.9855  0.2564 -0.3902
  106OSM    H9T10846   1.844   2.727   9.784  0.5731 -0.4971  1.5122
  106OSM   C10S10847   1.669   2.803   9.687 -0.0795 -0.0943  0.1227
  106OSM   H10S10848   1.697   2.909   9.705 -0.0537 -0.1123  0.1854
  106OSM   H10T10849   1.560   2.785   9.703 -0.1611  1.7102  1.8875
  106OSM   C11S10850   1.707   2.753   9.546  0.1023  0.0630  0.5743
  106OSM   H11S10851   1.656   2.654   9.545 -0.9575  0.5985  0.7081
  106OSM   H11T10852   1.817   2.752   9.529 -0.1348  0.3722 -1.1481
  106OSM   C12S10853   1.638   2.834   9.435 -0.4337  0.1785 -0.1044
  106OSM   H12S10854   1.677   2.938   9.426  0.0511 -0.1135 -1.7600
  106OSM   H12T10855   1.531   2.849   9.462  0.0132 -0.2493  2.0954
  106OSM   C13S10856   1.635   2.762   9.294 -0.1807  0.0083  0.1334
  106OSM   H13S10857   1.556   2.816   9.239  1.8337  2.6709 -0.3225
  106OSM   H13T10858   1.593   2.660   9.308  0.7711 -0.5507 -0.9208
  106OSM   C14S10859   1.772   2.756   9.221  0.2214 -0.5263 -0.0165
  106OSM   H14S10860   1.774   2.674   9.146  0.2999  0.2583 -0.9027
  106OSM   H14T10861   1.850   2.741   9.298 -0.4167  0.7443  0.9102
  106OSM   C15S10862   1.809   2.883   9.139  0.8041 -0.5936  0.5937
  106OSM   H15S10863   1.907   2.872   9.089  0.6969  1.8104 -0.2700
  106OSM   H15T10864   1.810   2.959   9.220 -0.8530  0.1357 -0.0270
  106OSM   C16S10865   1.699   2.937   9.039 -0.4865 -0.5672 -0.0288
  106OSM   H16S10866   1.599   2.940   9.086 -0.7308 -0.2426 -0.5548
  106OSM   H16T10867   1.699   2.855   8.963  1.1332  0.0629 -0.7542
  106OSM   C17S10868   1.740   3.074   8.990 -0.6427  0.4983 -0.3276
  106OSM   H17S10869   1.841   3.081   8.945 -1.2323  1.6173 -1.5758
  106OSM   H17T10870   1.731   3.142   9.077 -0.8240 -0.3327  0.3122
  106OSM   C18S10871   1.653   3.125   8.877  0.9024  0.0468  0.6897
  106OSM   H18S10872   1.689   3.068   8.789  0.5369 -2.3004  1.9874
  106OSM   H18T10873   1.667   3.235   8.865  0.5500  0.0643  0.4025
  106OSM   H18U10874   1.546   3.100   8.890  1.1252 -1.0299  0.5366
  106OSM    C1F10875   2.195   3.216  10.156 -0.0150 -0.1014  0.1662
  106OSM     OF10876   2.286   3.228  10.233  0.0341  0.4819  0.3324
  106OSM    C2F10877   2.213   3.224  10.007 -0.3323  0.0422  0.8292
  106OSM    H2F10878   2.129   3.286   9.971  0.4815  0.6544 -0.0749
  106OSM    H2G10879   2.218   3.117   9.977 -1.9824  0.6573 -1.8374
  106OSM    C3F10880   2.344   3.285   9.956  0.8010  0.4583  0.0063
  106OSM    H3F10881   2.430   3.243  10.013  0.8569  0.4207 -0.1054
  106OSM    H3G10882   2.343   3.396   9.965  1.2044  0.3005  3.3010
  106OSM    C4F10883   2.365   3.236   9.813 -1.1753  0.0045  0.1335
  106OSM    H4F10884   2.269   3.259   9.762 -0.7819 -0.6275 -0.9249
  106OSM    H4G10885   2.384   3.127   9.818  0.1563  0.2830  2.6138
  106OSM    C5F10886   2.487   3.303   9.753 -0.3530 -0.4659 -0.1201
  106OSM    H5F10887   2.572   3.318   9.823 -1.9177  0.2260  1.7165
  106OSM    H5G10888   2.455   3.407   9.728  2.4818  1.0502  1.9600
  106OSM    C6F10889   2.535   3.228   9.627 -0.0130  0.3298  0.1341
  106OSM    H6F10890   2.451   3.210   9.557  0.1238 -0.8065  0.2471
  106OSM    H6G10891   2.581   3.130   9.650  1.1089  0.4755 -1.3907
  106OSM    C7F10892   2.635   3.308   9.537  0.3799 -0.4728 -0.0151
  106OSM    H7F10893   2.734   3.277   9.577  0.3568  1.3358  1.6048
  106OSM    H7G10894   2.613   3.417   9.541 -0.0516 -0.5208 -0.7762
  106OSM    C8F10895   2.602   3.280   9.394 -0.3754  0.3627 -0.5254
  106OSM    H8F10896   2.500   3.323   9.383 -0.8450 -0.9513 -1.6328
  106OSM    H8G10897   2.573   3.174   9.377 -0.4092  0.3083 -0.1281
  106OSM    C9F10898   2.690   3.340   9.282  0.4387  0.2484 -0.2825
  106OSM    H9F10899   2.774   3.272   9.261 -0.4190 -0.6815 -0.7928
  106OSM   C10F10900   2.687   3.468   9.231 -0.3739  0.2140  0.2571
  106OSM   H10F10901   2.769   3.507   9.169 -0.3240  1.9075  1.3378
  106OSM   C11F10902   2.586   3.570   9.273 -0.1668  0.3472  0.1500
  106OSM   H11F10903   2.640   3.664   9.297  0.3361  0.1657 -0.2713
  106OSM   H11G10904   2.527   3.554   9.367 -1.8037  2.2054 -0.4851
  106OSM   C12F10905   2.495   3.600   9.148  1.1353  1.1512  0.2556
  106OSM   H12F10906   2.543   3.626   9.051 -0.3182 -0.2864 -0.9103
  106OSM   H12G10907   2.432   3.688   9.175  1.7080  1.0503  1.9920
  106OSM   C13F10908   2.398   3.477   9.127 -0.2660 -0.7567 -0.5602
  106OSM   H13F10909   2.353   3.454   9.226  0.8745 -1.7368 -0.2435
  106OSM   H13G10910   2.453   3.388   9.090 -1.0104 -0.5809 -2.1637
  106OSM   C14F10911   2.282   3.498   9.027  0.2937  0.3603 -0.6296
  106OSM   H14F10912   2.225   3.590   9.053 -1.2480 -1.2645  2.1950
  106OSM   H14G10913   2.221   3.406   9.038  0.8600 -0.2303 -2.1356
  106OSM   C15F10914   2.328   3.502   8.876  0.2738 -0.6132 -0.3523
  106OSM   H15F10915   2.406   3.424   8.859 -0.4804 -1.2352 -1.0226
  106OSM   H15G10916   2.374   3.603   8.873 -1.6281  0.3689  1.5154
  106OSM   C16F10917   2.220   3.497   8.766  0.4590  0.2489 -0.0435
  106OSM   H16F10918   2.266   3.541   8.675  1.2157 -0.9714 -0.2818
  106OSM   H16G10919   2.144   3.574   8.789  1.4718  0.6337  2.3116
  106OSM   C17F10920   2.155   3.361   8.736  0.6308  0.6308  0.4972
  106OSM   H17F10921   2.073   3.381   8.664  0.6721  0.6223  0.4481
  106OSM   H17G10922   2.106   3.321   8.828  1.0569 -2.5005 -0.5033
  106OSM   C18F10923   2.246   3.249   8.685  0.6109  0.3264  0.9096
  106OSM   H18F10924   2.302   3.278   8.594 -0.0781  3.4055  1.3543
  106OSM   H18G10925   2.187   3.159   8.659  1.1497  0.0142  0.7645
  106OSM   H18H10926   2.323   3.234   8.764  0.7605  2.2496  1.1741
  107OSM      N10927   3.021   6.676  11.455 -0.4332 -0.3597 -0.4512
  107OSM    C1510928   2.978   6.535  11.449  0.5879 -0.6045 -0.3348
  107OSM   H15A10929   3.022   6.469  11.524  0.6610 -0.0107  0.1539
  107OSM   H15B10930   2.991   6.486  11.354 -0.5248 -3.5448  0.9072
  107OSM   H15C10931   2.872   6.529  11.470 -0.3421  2.4152 -3.3028
  107OSM    C1410932   2.965   6.739  11.584 -0.4412  0.7419  0.3193
  107OSM   H14A10933   3.005   6.840  11.583  2.2833 -0.2357 -0.8089
  107OSM   H14B10934   3.006   6.675  11.661  1.8975  1.1109 -0.5285
  107OSM   H14C10935   2.858   6.744  11.592 -0.5925  1.3135 -1.6113
  107OSM    C1310936   3.172   6.682  11.447 -0.4121 -0.2228  0.1640
  107OSM   H13A10937   3.200   6.635  11.354  0.8540  0.4602  0.1796
  107OSM   H13B10938   3.216   6.628  11.529  0.9703  2.6182  1.4380
  107OSM   H13C10939   3.218   6.779  11.459 -0.5674 -0.1885  0.4782
  107OSM    C1210940   2.959   6.750  11.337  0.1793  0.3804  0.1430
  107OSM   H12A10941   2.853   6.733  11.338  0.3000 -0.4256  0.9347
  107OSM   H12B10942   2.985   6.699  11.245  0.6404 -0.2823  0.6230
  107OSM    C1110943   2.984   6.896  11.332 -0.0993  0.0901  0.5892
  107OSM   H11A10944   2.947   6.948  11.423  0.3125  1.3439  0.0681
  107OSM   H11B10945   2.922   6.944  11.253  0.0006  1.9247  1.5658
  107OSM      P10946   3.200   6.939  11.191 -0.1837  0.0044  0.1856
  107OSM    O1310947   3.340   6.983  11.225 -0.1797 -0.2370 -0.2684
  107OSM    O1410948   3.184   6.812  11.120 -0.1935 -0.1451  0.0324
  107OSM    O1110949   3.118   7.055  11.118  0.0487  0.5589  0.6327
  107OSM    O1210950   3.122   6.932  11.323 -0.2757 -0.4290  0.5781
  107OSM    C1S10951   3.145   7.097  10.984  0.1443 -0.4940 -0.4875
  107OSM    H1S10952   3.253   7.116  10.971  0.0319 -0.2546 -1.0944
  107OSM    H1T10953   3.101   7.198  10.970  0.5286  0.3153  3.0629
  107OSM     NF10954   3.140   7.052  10.734  0.3028  0.2761  0.4390
  107OSM    HNF10955   3.077   7.097  10.671  2.1988  0.9567 -1.0661
  107OSM    C2S10956   3.089   7.012  10.867  0.1580  0.0311  0.8369
  107OSM    H2S10957   3.126   6.908  10.877 -0.7274 -0.2972  0.8167
  107OSM    C3S10958   2.940   7.021  10.883  1.1106 -0.4275 -0.0832
  107OSM    H3S10959   2.906   7.117  10.839 -0.8526 -1.3690 -0.7116
  107OSM     O310960   2.887   7.036  11.018  0.1147 -0.4114 -0.0047
  107OSM    HO310961   2.959   7.043  11.081 -0.3033 -1.2400  0.5871
  107OSM    C4S10962   2.873   6.917  10.810  0.2712  0.3434  0.6303
  107OSM    H4S10963   2.845   6.955  10.710  1.4575  1.4581  0.6929
  107OSM    C5S10964   2.827   6.793  10.849 -0.4907  0.0804  0.3288
  107OSM    H5S10965   2.831   6.757  10.953 -0.8390  0.4875  0.4882
  107OSM    C6S10966   2.760   6.690  10.753  0.1069 -0.4203  0.2896
  107OSM    H6S10967   2.654   6.684  10.787 -0.7367  1.2843 -1.7454
  107OSM    H6T10968   2.801   6.589  10.773  0.4189 -0.5511 -0.9103
  107OSM    C7S10969   2.770   6.716  10.604 -0.4944  0.4733  0.0585
  107OSM    H7S10970   2.876   6.739  10.576 -0.2794 -1.6482 -1.0477
  107OSM    H7T10971   2.711   6.802  10.565 -0.7768 -0.0345 -0.6532
  107OSM    C8S10972   2.725   6.590  10.517  0.2030 -0.6213 -0.2372
  107OSM    H8S10973   2.616   6.575  10.533  0.1966  0.1958  0.6080
  107OSM    H8T10974   2.780   6.498  10.544  0.9419  0.0461  0.6178
  107OSM    C9S10975   2.745   6.621  10.367  0.2536 -0.0716 -1.5042
  107OSM    H9S10976   2.713   6.727  10.351  0.6725  0.2067 -0.5481
  107OSM    H9T10977   2.687   6.549  10.305  0.2865 -1.2421 -0.2119
  107OSM   C10S10978   2.888   6.625  10.319  0.4550  0.8310 -0.4801
  107OSM   H10S10979   2.931   6.531  10.361 -0.7378  0.0144 -1.0252
  107OSM   H10T10980   2.959   6.700  10.360  0.8574 -0.5131  1.4324
  107OSM   C11S10981   2.892   6.616  10.169  0.8420  0.8642  0.0868
  107OSM   H11S10982   2.839   6.706  10.131  1.5620  1.2172 -0.0925
  107OSM   H11T10983   2.833   6.529  10.133  1.8054  0.1312  0.2478
  107OSM   C12S10984   3.034   6.617  10.112  1.1993  0.0658 -0.3084
  107OSM   H12S10985   3.100   6.559  10.179 -0.8296 -2.0404 -0.0349
  107OSM   H12T10986   3.071   6.722  10.105 -0.9153  0.9517  0.6536
  107OSM   C13S10987   3.018   6.559   9.968 -0.0963 -0.4057 -0.9472
  107OSM   H13S10988   2.931   6.608   9.917 -3.0217 -2.7369  1.4308
  107OSM   H13T10989   3.007   6.449   9.963 -0.1833 -0.4623  0.2058
  107OSM   C14S10990   3.145   6.590   9.885 -0.3492  0.2423  0.0296
  107OSM   H14S10991   3.230   6.523   9.910  0.7466  1.4734 -0.2228
  107OSM   H14T10992   3.180   6.693   9.909  1.6620 -0.6418  1.0968
  107OSM   C15S10993   3.111   6.583   9.733  0.3081 -0.1782  0.2145
  107OSM   H15S10994   3.030   6.651   9.699 -0.3445 -1.5357 -1.0694
  107OSM   H15T10995   3.073   6.479   9.723 -0.3974 -0.2051  2.5396
  107OSM   C16S10996   3.231   6.595   9.639 -0.1256 -0.0524 -0.0997
  107OSM   H16S10997   3.288   6.504   9.669 -1.3215 -0.3896  1.2294
  107OSM   H16T10998   3.299   6.679   9.665  4.0478 -2.7341 -1.4374
  107OSM   C17S10999   3.188   6.575   9.493 -0.1838 -0.4119 -0.3637
  107OSM   H17S11000   3.119   6.658   9.468 -0.2229 -0.0440  0.9223
  107OSM   H17T11001   3.143   6.474   9.478 -0.1213 -0.4235 -0.4740
  107OSM   C18S11002   3.320   6.590   9.408  0.2288  0.0167  0.2767
  107OSM   H18S11003   3.297   6.603   9.300 -3.1099  0.2431  0.8860
  107OSM   H18T11004   3.374   6.495   9.428 -0.1267  0.2926  2.8703
  107OSM   H18U11005   3.374   6.678   9.448 -1.6551  1.3675  0.0295
  107OSM    C1F11006   3.263   7.034  10.689  0.6327  0.1783 -0.5073
  107OSM     OF11007   3.344   6.981  10.763  0.5387 -0.4805 -0.3061
  107OSM    C2F11008   3.295   7.084  10.556 -0.6116  1.0219  0.6629
  107OSM    H2F11009   3.228   7.163  10.516 -0.7246  0.4314 -0.3526
  107OSM    H2G11010   3.272   7.008  10.479 -1.8399  1.2636  0.7715
  107OSM    C3F11011   3.446   7.132  10.546  0.7852 -0.1360 -0.5490
  107OSM    H3F11012   3.512   7.045  10.565  1.4834  0.9666  2.8414
  107OSM    H3G11013   3.472   7.207  10.624  0.6796  0.2761 -0.9046
  107OSM    C4F11014   3.477   7.201  10.413 -0.3724  0.1835  0.6028
  107OSM    H4F11015   3.583   7.234  10.416 -0.2668  0.0284 -0.7994
  107OSM    H4G11016   3.418   7.295  10.404 -0.4142  0.0511 -0.5489
  107OSM    C5F11017   3.443   7.113  10.290 -0.1609 -0.2116  0.1157
  107OSM    H5F11018   3.335   7.085  10.289 -0.4559  0.8078 -1.6453
  107OSM    H5G11019   3.500   7.018  10.300 -0.2725 -0.1793  1.0651
  107OSM    C6F11020   3.464   7.174  10.151 -0.0383  0.6224 -0.0012
  107OSM    H6F11021   3.434   7.099  10.075 -3.0007 -0.7285  2.3001
  107OSM    H6G11022   3.573   7.195  10.137 -0.3437  1.3042 -1.6350
  107OSM    C7F11023   3.402   7.312  10.133 -0.2868  0.0562  0.2974
  107OSM    H7F11024   3.459   7.386  10.193 -1.5403 -0.7761  2.6862
  107OSM    H7G11025   3.298   7.305  10.172 -0.0066 -1.4787  0.8545
  107OSM    C8F11026   3.384   7.330   9.982 -0.3442 -0.2468 -0.1722
  107OSM    H8F11027   3.326   7.248   9.935 -0.0163 -1.1905  1.0237
  107OSM    H8G11028   3.482   7.316   9.931  0.1978  2.4282 -0.0229
  107OSM    C9F11029   3.324   7.465   9.961  0.2243  0.2330 -0.3074
  107OSM    H9F11030   3.271   7.502  10.049 -0.3819 -1.7365  0.2132
  107OSM   C10F11031   3.322   7.543   9.848 -0.4172  0.0437 -0.4473
  107OSM   H10F11032   3.277   7.644   9.846 -0.9256 -0.1767 -2.1338
  107OSM   C11F11033   3.390   7.503   9.723 -0.1938 -0.6229 -0.5258
  107OSM   H11F11034   3.310   7.449   9.669 -1.2498 -0.7201  1.0649
  107OSM   H11G11035   3.472   7.429   9.730 -0.2531 -0.7407 -1.0666
  107OSM   C12F11036   3.400   7.616   9.617 -0.0807 -0.6616  0.2748
  107OSM   H12F11037   3.488   7.678   9.645  1.1862 -0.9138 -2.7628
  107OSM   H12G11038   3.311   7.682   9.616  1.7682  2.1257 -2.5331
  107OSM   C13F11039   3.423   7.563   9.476 -0.1326 -0.0278 -0.0319
  107OSM   H13F11040   3.348   7.482   9.461 -0.9315  0.5858  0.5824
  107OSM   H13G11041   3.525   7.523   9.455 -0.3350  1.0327 -3.9913
  107OSM   C14F11042   3.404   7.668   9.357 -0.1566  0.0433 -0.2507
  107OSM   H14F11043   3.447   7.765   9.388 -0.5195 -0.0847  0.6861
  107OSM   H14G11044   3.295   7.677   9.341 -0.7378 -0.6921  2.6494
  107OSM   C15F11045   3.473   7.607   9.236  0.3722  0.4616  0.7442
  107OSM   H15F11046   3.431   7.505   9.218  1.6106  0.1341 -0.4761
  107OSM   H15G11047   3.583   7.601   9.250  0.6602  0.2454 -1.3071
  107OSM   C16F11048   3.454   7.682   9.096  0.6267 -0.1405  1.0988
  107OSM   H16F11049   3.500   7.625   9.012  0.3800 -0.7203  1.3457
  107OSM   H16G11050   3.506   7.780   9.092 -1.3741  0.9330  0.3955
  107OSM   C17F11051   3.310   7.708   9.039  0.4918  0.0814  0.3377
  107OSM   H17F11052   3.262   7.779   9.108 -0.7090 -0.8602  0.5060
  107OSM   H17G11053   3.248   7.616   9.043  0.2647  0.2916  3.2444
  107OSM   C18F11054   3.297   7.767   8.895 -1.7471  0.2768  0.4105
  107OSM   H18F11055   3.338   7.868   8.877 -0.4775 -0.6574 -2.5402
  107OSM   H18G11056   3.192   7.779   8.860 -1.8183  0.9092  0.8245
  107OSM   H18H11057   3.342   7.686   8.834  0.4776  0.2254  2.0089
  108OSM      N11058   5.102   6.006  11.102 -0.7475 -0.4024  0.0851
  108OSM    C1511059   5.233   6.068  11.142  1.0315 -0.2172  0.6028
  108OSM   H15A11060   5.273   6.006  11.221  0.5475 -1.0702  0.1901
  108OSM   H15B11061   5.225   6.172  11.168 -0.7563 -0.7110  2.1949
  108OSM   H15C11062   5.293   6.072  11.052  1.0657  0.5010  0.6471
  108OSM    C1411063   5.018   5.992  11.226  0.0176 -0.6925  0.8217
  108OSM   H14A11064   4.928   5.939  11.198 -0.1497  0.5269 -1.1501
  108OSM   H14B11065   4.993   6.089  11.265  2.1115  1.3339 -2.3512
  108OSM   H14C11066   5.070   5.935  11.301 -0.7063  1.9170  3.4741
  108OSM    C1311067   5.041   6.097  10.996  0.1645  0.0432 -1.1302
  108OSM   H13A11068   4.954   6.045  10.960 -1.6701  1.3862  1.0938
  108OSM   H13B11069   5.111   6.103  10.914 -1.6812  0.5429 -2.7493
  108OSM   H13C11070   5.019   6.198  11.024  1.2131  0.0936 -0.4324
  108OSM    C1211071   5.131   5.870  11.047 -0.2729  0.3296  0.7847
  108OSM   H12A11072   5.195   5.873  10.960 -2.8131  0.1183 -1.2092
  108OSM   H12B11073   5.038   5.824  11.017 -0.3368 -0.0445  1.5187
  108OSM    C1111074   5.192   5.766  11.146  0.3060 -0.0526 -0.7847
  108OSM   H11A11075   5.191   5.664  11.102  3.2971 -0.0987 -0.9508
  108OSM   H11B11076   5.130   5.755  11.238  1.1105 -0.3640 -0.2785
  108OSM      P11077   5.451   5.736  11.108 -0.0016 -0.7028 -0.0050
  108OSM    O1311078   5.577   5.806  11.145 -0.2588 -0.1367  0.2822
  108OSM    O1411079   5.446   5.595  11.141  0.4837 -0.0836 -0.0343
  108OSM    O1111080   5.408   5.760  10.956 -0.2814 -0.1515  0.2226
  108OSM    O1211081   5.330   5.796  11.181  0.0728  0.1854  0.4606
  108OSM    C1S11082   5.461   5.664  10.860  0.4764 -0.3104 -0.4744
  108OSM    H1S11083   5.383   5.585  10.852  0.4319 -0.6051  1.9776
  108OSM    H1T11084   5.562   5.627  10.887  1.3293  1.1815 -1.5141
  108OSM     NF11085   5.498   5.634  10.612 -0.2257  0.1050 -0.7352
  108OSM    HNF11086   5.591   5.629  10.575  0.4329  1.3756  0.6589
  108OSM    C2S11087   5.478   5.728  10.715  0.1666  0.0602 -0.5266
  108OSM    H2S11088   5.388   5.786  10.685  0.4050 -0.3557 -2.1460
  108OSM    C3S11089   5.592   5.833  10.723 -0.2906 -0.1195  0.4042
  108OSM    H3S11090   5.681   5.771  10.749 -0.8021 -0.3024  1.8342
  108OSM     O311091   5.583   5.934  10.825 -0.0470  0.4300  0.7232
  108OSM    HO311092   5.520   5.893  10.885 -1.8698  0.0029 -1.3512
  108OSM    C4S11093   5.616   5.899  10.586  0.4704  0.4443  1.1150
  108OSM    H4S11094   5.700   5.851  10.535  0.4220  0.9470  0.5520
  108OSM    C5S11095   5.558   6.001  10.523  0.1758 -0.5001 -0.3430
  108OSM    H5S11096   5.475   6.050  10.576  1.5610  2.3062 -0.5843
  108OSM    C6S11097   5.605   6.049  10.386 -0.2617  0.6163  0.2752
  108OSM    H6S11098   5.688   6.118  10.412 -0.1595  0.9267 -0.8157
  108OSM    H6T11099   5.527   6.110  10.337 -0.0354  1.5501  1.0525
  108OSM    C7S11100   5.655   5.932  10.296  0.4700 -0.3950 -0.9749
  108OSM    H7S11101   5.575   5.856  10.309 -2.1577  2.2003 -0.9545
  108OSM    H7T11102   5.751   5.898  10.341  0.1408  1.8452  1.7053
  108OSM    C8S11103   5.667   5.961  10.144 -0.1314  0.2585 -1.0768
  108OSM    H8S11104   5.688   5.864  10.094 -1.1825 -0.6502  0.1666
  108OSM    H8T11105   5.761   6.020  10.131 -0.6321  0.6793 -3.2019
  108OSM    C9S11106   5.549   6.024  10.073  0.5359  0.8083 -0.0837
  108OSM    H9S11107   5.537   6.126  10.116  2.0076  1.0445 -0.1913
  108OSM    H9T11108   5.459   5.963  10.096  0.5690  0.4151 -0.9844
  108OSM   C10S11109   5.558   6.025   9.923  0.2622  0.0962  0.0584
  108OSM   H10S11110   5.584   5.919   9.899 -1.0237 -0.7423  2.1320
  108OSM   H10T11111   5.641   6.091   9.891 -0.3574  0.6130 -0.5203
  108OSM   C11S11112   5.426   6.048   9.845  0.5041  0.9746  0.0741
  108OSM   H11S11113   5.394   6.152   9.865 -0.1334  0.7004  0.5014
  108OSM   H11T11114   5.347   5.981   9.885  0.4806  0.1501 -1.2960
  108OSM   C12S11115   5.426   6.022   9.688  0.2356 -0.2141 -0.1016
  108OSM   H12S11116   5.483   5.929   9.672  3.4184  0.9103  3.3688
  108OSM   H12T11117   5.487   6.105   9.646 -0.5873  0.3110 -0.2805
  108OSM   C13S11118   5.289   6.008   9.619 -0.7093  0.1229 -0.8667
  108OSM   H13S11119   5.223   6.096   9.636 -0.6302  0.7597 -3.3899
  108OSM   H13T11120   5.241   5.915   9.657 -0.2753  0.4887  0.6349
  108OSM   C14S11121   5.297   6.005   9.463 -0.7748  0.2107 -0.2849
  108OSM   H14S11122   5.358   5.920   9.425  0.8638  1.5473 -0.7986
  108OSM   H14T11123   5.355   6.093   9.425 -0.5798 -0.4056 -1.4791
  108OSM   C15S11124   5.162   5.997   9.384  0.0685 -0.2685  0.1441
  108OSM   H15S11125   5.115   6.097   9.392  0.9927  0.4517 -2.3887
  108OSM   H15T11126   5.087   5.926   9.425 -1.8332  1.5417 -0.0369
  108OSM   C16S11127   5.186   5.966   9.235 -0.5801 -0.4367 -1.0586
  108OSM   H16S11128   5.242   5.872   9.216  1.2982  0.6253 -1.0524
  108OSM   H16T11129   5.240   6.047   9.182 -1.3713 -1.1247 -3.0042
  108OSM   C17S11130   5.051   5.950   9.164  0.1889  0.9363  0.6575
  108OSM   H17S11131   5.028   6.047   9.116  0.1089  0.4786 -0.2684
  108OSM   H17T11132   4.958   5.935   9.223 -1.3636  0.5739 -1.7090
  108OSM   C18S11133   5.062   5.849   9.043 -0.3832 -0.0799  0.5409
  108OSM   H18S11134   4.957   5.827   9.012 -0.1874  0.4329 -0.5502
  108OSM   H18T11135   5.106   5.754   9.080  0.9251 -0.9731 -2.8836
  108OSM   H18U11136   5.115   5.888   8.953  1.6908  1.8999  2.4960
  108OSM    C1F11137   5.405   5.551  10.575 -0.0798 -0.6212  0.6597
  108OSM     OF11138   5.287   5.577  10.605 -0.4819  0.2171  0.2160
  108OSM    C2F11139   5.442   5.421  10.511 -0.2694  0.1691  0.0027
  108OSM    H2F11140   5.359   5.348  10.519  1.2972 -1.4912  2.8404
  108OSM    H2G11141   5.526   5.380  10.572  1.0916  0.7500 -1.4081
  108OSM    C3F11142   5.478   5.423  10.357  0.1615  0.2388 -0.2257
  108OSM    H3F11143   5.588   5.438  10.354  0.1641  0.2678  0.0555
  108OSM    H3G11144   5.425   5.506  10.305 -1.1819 -0.8721 -0.6898
  108OSM    C4F11145   5.436   5.306  10.276  0.0522  0.3174 -0.0039
  108OSM    H4F11146   5.326   5.316  10.274  0.0871  0.6546 -0.7056
  108OSM    H4G11147   5.473   5.215  10.328  0.3489  0.1114 -0.5605
  108OSM    C5F11148   5.514   5.299  10.145  0.2912 -0.6955 -0.1255
  108OSM    H5F11149   5.620   5.293  10.178  0.5515  2.0146 -0.2784
  108OSM    H5G11150   5.482   5.388  10.087 -1.0345 -1.0190  0.0800
  108OSM    C6F11151   5.478   5.188  10.048 -0.0544 -0.3771  0.4864
  108OSM    H6F11152   5.377   5.213  10.011  0.0135 -0.4794  0.2328
  108OSM    H6G11153   5.489   5.087  10.094 -2.1606 -0.5825  0.6439
  108OSM    C7F11154   5.571   5.198   9.926 -0.5142  1.0478 -0.3406
  108OSM    H7F11155   5.673   5.181   9.966 -0.8107 -0.3098 -0.0981
  108OSM    H7G11156   5.558   5.294   9.872 -3.0338 -0.6084 -3.0371
  108OSM    C8F11157   5.546   5.084   9.829  0.6895  0.6605  0.1922
  108OSM    H8F11158   5.512   4.999   9.893 -0.7240  0.6962 -0.4614
  108OSM    H8G11159   5.630   5.044   9.769 -0.7679 -1.1798 -0.7661
  108OSM    C9F11160   5.425   5.121   9.742 -0.0944 -0.5857  0.5570
  108OSM    H9F11161   5.326   5.122   9.790  0.7094  1.5007  2.3971
  108OSM   C10F11162   5.440   5.181   9.624 -0.1061  0.0329  0.2665
  108OSM   H10F11163   5.357   5.219   9.562  3.2111  1.9055 -3.4731
  108OSM   C11F11164   5.573   5.209   9.549 -0.6820 -0.1042 -0.1826
  108OSM   H11F11165   5.656   5.194   9.621 -1.7137 -1.3212  0.8065
  108OSM   H11G11166   5.568   5.316   9.518 -0.4181  0.6541  2.1796
  108OSM   C12F11167   5.597   5.116   9.429  0.1312 -0.0617  1.2427
  108OSM   H12F11168   5.602   5.014   9.475  0.0025  0.0372  1.4794
  108OSM   H12G11169   5.699   5.130   9.386  0.3471 -0.3003  1.6644
  108OSM   C13F11170   5.487   5.123   9.316 -1.0493  0.6056 -1.0537
  108OSM   H13F11171   5.503   5.211   9.251 -0.7286 -0.4139 -2.4092
  108OSM   H13G11172   5.385   5.130   9.359 -2.1494 -2.2399 -2.9321
  108OSM   C14F11173   5.480   4.986   9.243  0.1689  0.0531 -0.2581
  108OSM   H14F11174   5.387   4.980   9.183 -0.3999  1.2416  0.4777
  108OSM   H14G11175   5.490   4.903   9.316  0.5668  1.2661  1.0987
  108OSM   C15F11176   5.600   4.962   9.146  0.8404 -1.1748 -0.4191
  108OSM   H15F11177   5.687   4.946   9.213 -0.8077 -1.1510  1.8340
  108OSM   H15G11178   5.613   5.044   9.072  2.8242 -0.8049  0.2922
  108OSM   C16F11179   5.581   4.834   9.070  0.5174  0.5093  0.1216
  108OSM   H16F11180   5.513   4.853   8.985  1.9858  2.9317 -0.6046
  108OSM   H16G11181   5.532   4.768   9.145 -2.4226 -0.4504 -2.4569
  108OSM   C17F11182   5.715   4.773   9.031 -0.1895  0.4174  1.2053
  108OSM   H17F11183   5.690   4.672   8.993  0.6457  0.8478 -0.6333
  108OSM   H17G11184   5.780   4.747   9.118  1.5949 -1.2192 -0.5021
  108OSM   C18F11185   5.791   4.850   8.927 -0.4061 -0.6341 -0.5220
  108OSM   H18F11186   5.744   4.845   8.827  1.2311 -0.2876 -1.3299
  108OSM   H18G11187   5.893   4.808   8.923 -0.6072 -1.0420 -1.7188
  108OSM   H18H11188   5.793   4.959   8.950  0.8340 -0.4333 -1.4967
  109OSM      N11189   1.182   5.274  10.784 -0.2229  0.3250  0.1782
  109OSM    C1511190   1.104   5.180  10.874  0.8639 -0.4997 -0.3652
  109OSM   H15A11191   1.166   5.149  10.957  3.4438  0.2483 -1.8764
  109OSM   H15B11192   1.073   5.085  10.832 -1.5346  1.4531 -3.5359
  109OSM   H15C11193   1.016   5.231  10.908  1.4669 -1.1907  2.4409
  109OSM    C1411194   1.080   5.312  10.682  0.7402 -0.5296 -0.3457
  109OSM   H14A11195   1.133   5.358  10.600  2.1865 -0.1048  0.7737
  109OSM   H14B11196   0.990   5.363  10.712  0.0672 -1.9935  0.2610
  109OSM   H14C11197   1.029   5.222  10.650  0.2162 -0.1886 -0.4734
  109OSM    C1311198   1.230   5.390  10.862  0.0289  0.0516  0.5810
  109OSM   H13A11199   1.272   5.474  10.809  1.3955  0.0982  1.6794
  109OSM   H13B11200   1.312   5.366  10.927  0.9660  1.2126 -0.1298
  109OSM   H13C11201   1.158   5.439  10.926 -0.0926  0.4815  0.1293
  109OSM    C1211202   1.306   5.208  10.725 -0.7320  0.0765  0.5371
  109OSM   H12A11203   1.290   5.107  10.689  0.0984 -0.0915  0.6281
  109OSM   H12B11204   1.374   5.199  10.808  1.7643  2.3029 -1.0893
  109OSM    C1111205   1.377   5.276  10.605 -0.2315 -0.4586  0.3811
  109OSM   H11A11206   1.324   5.288  10.508  0.6016  2.1387  0.1824
  109OSM   H11B11207   1.464   5.214  10.576 -0.6480 -1.1297  0.5237
  109OSM      P11208   1.573   5.437  10.699 -0.0498  0.1845  0.0623
  109OSM    O1311209   1.555   5.510  10.826  0.2889  0.4423  0.1924
  109OSM    O1411210   1.664   5.319  10.711  0.2524  0.3849 -0.3919
  109OSM    O1111211   1.618   5.543  10.588  0.2347  0.4139 -0.1071
  109OSM    O1211212   1.434   5.405  10.650 -0.1914 -0.3852  0.4638
  109OSM    C1S11213   1.694   5.491  10.479 -0.2367  0.3844  0.3169
  109OSM    H1S11214   1.666   5.385  10.462  1.0749 -0.1977  1.5732
  109OSM    H1T11215   1.804   5.495  10.494 -0.0626 -0.0807 -0.7033
  109OSM     NF11216   1.705   5.494  10.228 -0.4868  0.0728  0.1617
  109OSM    HNF11217   1.792   5.524  10.190 -0.8134 -2.6095 -3.2384
  109OSM    C2S11218   1.663   5.568  10.346 -0.2062  0.4187  0.6135
  109OSM    H2S11219   1.553   5.564  10.330 -0.2263  3.6177 -0.7982
  109OSM    C3S11220   1.721   5.705  10.365 -0.3280 -0.0121 -0.2194
  109OSM    H3S11221   1.832   5.699  10.368 -0.2586  1.0411 -0.3825
  109OSM     O311222   1.698   5.762  10.495 -0.0248  0.1677  0.4936
  109OSM    HO311223   1.670   5.689  10.550 -1.8456  0.0954 -0.4553
  109OSM    C4S11224   1.669   5.791  10.255  0.1441  0.6467  0.0218
  109OSM    H4S11225   1.564   5.824  10.260  0.0067  0.0775  1.1881
  109OSM    C5S11226   1.747   5.852  10.167 -0.0603 -0.2544 -0.0150
  109OSM    H5S11227   1.855   5.849  10.189 -0.1771  0.3295  0.6568
  109OSM    C6S11228   1.706   5.949  10.059 -0.2855 -0.1481  1.0077
  109OSM    H6S11229   1.710   6.053  10.098  0.7635 -0.2383  1.1745
  109OSM    H6T11230   1.600   5.929  10.032  0.1195 -0.3642 -0.4612
  109OSM    C7S11231   1.796   5.930   9.938  0.0042 -0.3077  0.0209
  109OSM    H7S11232   1.819   5.823   9.919  2.5555  0.3522 -1.0442
  109OSM    H7T11233   1.893   5.983   9.948 -0.3887  1.1361 -2.6727
  109OSM    C8S11234   1.723   5.986   9.811 -0.3197 -0.2914  1.1124
  109OSM    H8S11235   1.692   6.091   9.828 -2.5436 -0.8241  0.7464
  109OSM    H8T11236   1.634   5.927   9.780 -0.5701 -0.3055  1.8489
  109OSM    C9S11237   1.820   5.981   9.695  0.1428 -0.4184 -0.4822
  109OSM    H9S11238   1.832   5.876   9.659  1.0577 -0.1846 -0.8789
  109OSM    H9T11239   1.918   6.020   9.730 -0.3961  1.6189 -1.1310
  109OSM   C10S11240   1.751   6.063   9.589  0.8344 -0.7154  0.5684
  109OSM   H10S11241   1.755   6.172   9.607 -1.2013 -0.4246 -0.3958
  109OSM   H10T11242   1.645   6.032   9.599  0.5915  0.3705  1.5920
  109OSM   C11S11243   1.791   6.028   9.442 -0.3549  0.3171 -0.3017
  109OSM   H11S11244   1.794   5.917   9.433 -0.0637  0.3433 -0.5563
  109OSM   H11T11245   1.890   6.071   9.416 -0.2713  1.3977  1.6256
  109OSM   C12S11246   1.700   6.076   9.335 -0.2058  0.2698  0.8327
  109OSM   H12S11247   1.597   6.065   9.375  0.6130  0.0270  3.0544
  109OSM   H12T11248   1.707   6.010   9.246  2.5298 -0.4998  1.5147
  109OSM   C13S11249   1.729   6.223   9.287  0.4076  0.5659  0.4897
  109OSM   H13S11250   1.835   6.225   9.257  0.1461 -2.4532 -1.0283
  109OSM   H13T11251   1.715   6.289   9.376  1.8318  1.5872 -0.0149
  109OSM   C14S11252   1.632   6.272   9.173 -0.5432 -0.5595 -0.0795
  109OSM   H14S11253   1.529   6.242   9.201 -0.3845 -1.4864 -0.4681
  109OSM   H14T11254   1.659   6.210   9.086 -0.6201  0.3871 -0.7974
  109OSM   C15S11255   1.647   6.426   9.128  0.4010  0.7166 -0.5168
  109OSM   H15S11256   1.610   6.478   9.219  1.5209  1.0384 -0.2307
  109OSM   H15T11257   1.575   6.435   9.044 -0.3528  1.6187  0.2082
  109OSM   C16S11258   1.783   6.465   9.070 -0.9172 -0.2247 -0.0959
  109OSM   H16S11259   1.873   6.435   9.128 -0.1811  1.2933 -0.4130
  109OSM   H16T11260   1.790   6.575   9.061 -0.5879 -0.1876  0.5583
  109OSM   C17S11261   1.797   6.417   8.924  0.5813 -0.3409  0.5846
  109OSM   H17S11262   1.723   6.462   8.854  2.8064  1.9059 -0.4818
  109OSM   H17T11263   1.769   6.309   8.920 -1.8365  0.1898  1.2714
  109OSM   C18S11264   1.932   6.447   8.873  0.1966 -0.1409 -0.0272
  109OSM   H18S11265   1.955   6.383   8.785 -1.7311 -1.2564  0.2254
  109OSM   H18T11266   2.012   6.422   8.946 -0.9650 -0.0408  1.3010
  109OSM   H18U11267   1.940   6.554   8.844 -1.2623 -0.9654 -4.1058
  109OSM    C1F11268   1.639   5.384  10.179 -0.9209 -0.4121  0.3677
  109OSM     OF11269   1.526   5.354  10.222 -0.5941 -0.1533 -0.6143
  109OSM    C2F11270   1.711   5.308  10.064 -0.3648  0.3861 -0.0572
  109OSM    H2F11271   1.643   5.230  10.022  0.7674 -1.4530  1.3552
  109OSM    H2G11272   1.801   5.263  10.111  0.8981  0.8705 -1.8924
  109OSM    C3F11273   1.776   5.396   9.949 -0.7088 -0.2985 -0.7808
  109OSM    H3F11274   1.805   5.325   9.868  0.0436 -2.0766  0.9645
  109OSM    H3G11275   1.856   5.461   9.990 -1.2330  0.6003 -1.1554
  109OSM    C4F11276   1.665   5.489   9.899 -0.2199  0.4481 -0.4890
  109OSM    H4F11277   1.668   5.580   9.963  1.7738 -0.9582  1.5994
  109OSM    H4G11278   1.565   5.442   9.910  0.5138 -1.5364 -1.8288
  109OSM    C5F11279   1.692   5.542   9.752  0.3633  0.3708  0.9425
  109OSM    H5F11280   1.800   5.567   9.741  0.3335 -0.5634 -3.3497
  109OSM    H5G11281   1.626   5.631   9.756 -0.9516 -0.6068  2.1778
  109OSM    C6F11282   1.644   5.453   9.633  1.1889 -0.0340 -1.1112
  109OSM    H6F11283   1.535   5.436   9.645  1.4409 -0.2699  1.3282
  109OSM    H6G11284   1.679   5.348   9.639 -2.0897 -1.2446 -0.8125
  109OSM    C7F11285   1.679   5.501   9.494 -0.9317 -0.9067 -0.4039
  109OSM    H7F11286   1.664   5.422   9.418  1.4448 -0.6428 -1.2449
  109OSM    H7G11287   1.789   5.517   9.496 -1.0092 -0.4019 -0.0544
  109OSM    C8F11288   1.603   5.626   9.445 -1.3074  0.6856 -0.4268
  109OSM    H8F11289   1.625   5.691   9.532  0.3308 -0.1667 -0.1690
  109OSM    H8G11290   1.496   5.596   9.450 -0.3247 -3.2966  0.4187
  109OSM    C9F11291   1.650   5.690   9.320  0.2946  1.2583  0.0171
  109OSM    H9F11292   1.760   5.690   9.315  0.3119  1.2182  0.3538
  109OSM   C10F11293   1.577   5.735   9.221 -0.9010 -0.1496  0.2255
  109OSM   H10F11294   1.641   5.779   9.144 -0.8174  0.4458  0.6258
  109OSM   C11F11295   1.429   5.734   9.202 -0.0740 -1.2392 -0.0754
  109OSM   H11F11296   1.398   5.839   9.221 -1.1346 -1.4181 -0.7556
  109OSM   H11G11297   1.382   5.668   9.277  0.2304 -1.7586 -0.3357
  109OSM   C12F11298   1.394   5.704   9.056 -0.3126  0.4767 -0.0497
  109OSM   H12F11299   1.443   5.789   9.003 -0.8427  0.7143 -0.1558
  109OSM   H12G11300   1.284   5.702   9.040 -0.2887  0.5412 -0.2308
  109OSM   C13F11301   1.459   5.576   8.992  0.0679  0.7953  0.7325
  109OSM   H13F11302   1.424   5.488   9.052  0.8516  0.4709  0.7299
  109OSM   H13G11303   1.570   5.576   8.989  0.0564 -0.0149 -0.8700
  109OSM   C14F11304   1.407   5.554   8.853  0.1944  0.1546 -0.4301
  109OSM   H14F11305   1.296   5.551   8.849  0.2133 -3.7276 -1.9421
  109OSM   H14G11306   1.429   5.448   8.829 -2.3486 -0.3633 -0.7800
  109OSM   C15F11307   1.449   5.658   8.755  0.7365 -0.6441 -0.1833
  109OSM   H15F11308   1.415   5.760   8.782  0.7081 -1.3224  2.6890
  109OSM   H15G11309   1.393   5.639   8.662 -2.2349 -0.6694  1.4874
  109OSM   C16F11310   1.599   5.666   8.721  0.1420 -0.5527  0.2643
  109OSM   H16F11311   1.630   5.564   8.689 -0.5269 -0.3063 -1.2516
  109OSM   H16G11312   1.660   5.705   8.806 -2.0917  0.2279  1.5920
  109OSM   C17F11313   1.625   5.767   8.607 -0.5099 -0.0101 -0.2805
  109OSM   H17F11314   1.613   5.870   8.646 -0.8097  1.1704 -3.2262
  109OSM   H17G11315   1.559   5.752   8.519 -1.7511 -0.1766  0.6649
  109OSM   C18F11316   1.774   5.753   8.558  0.0911 -0.1904  0.3494
  109OSM   H18F11317   1.844   5.757   8.644 -0.1750 -0.2960  0.5724
  109OSM   H18G11318   1.791   5.827   8.477 -1.3589 -1.5168 -1.2512
  109OSM   H18H11319   1.779   5.654   8.506  2.1194  0.1493 -0.1814
  110OSM      N11320   2.495   5.174  11.186 -0.1716 -0.6624  0.3086
  110OSM    C1511321   2.513   5.028  11.231  0.1602 -0.1624 -0.2649
  110OSM   H15A11322   2.612   4.984  11.226 -0.5327 -1.8509  0.3000
  110OSM   H15B11323   2.453   4.961  11.172  0.9218 -1.1181  0.0114
  110OSM   H15C11324   2.482   5.024  11.334  0.6750  0.8915 -0.0546
  110OSM    C1411325   2.359   5.217  11.223 -0.5355  0.1196  0.0619
  110OSM   H14A11326   2.289   5.161  11.163  0.5231  0.7605 -1.8419
  110OSM   H14B11327   2.344   5.322  11.205  1.0083  0.7820  2.1837
  110OSM   H14C11328   2.337   5.187  11.325 -0.4301 -2.2011 -0.5294
  110OSM    C1311329   2.589   5.259  11.261 -0.1426 -0.3812  0.0367
  110OSM   H13A11330   2.593   5.364  11.240 -0.1129 -0.1074  1.2915
  110OSM   H13B11331   2.691   5.224  11.252  0.1803  0.9018 -1.6823
  110OSM   H13C11332   2.573   5.246  11.367 -0.0653  1.6225  0.3264
  110OSM    C1211333   2.529   5.191  11.034 -0.6738  1.0373 -0.3042
  110OSM   H12A11334   2.634   5.184  11.010 -0.6400 -0.8126  0.2404
  110OSM   H12B11335   2.500   5.294  11.018 -0.1905  1.5805  1.9723
  110OSM    C1111336   2.440   5.111  10.928  0.2150 -0.1531 -0.0685
  110OSM   H11A11337   2.465   5.149  10.827 -1.6055  0.0258 -0.4761
  110OSM   H11B11338   2.336   5.147  10.937  0.8870  2.2064 -1.1410
  110OSM      P11339   2.593   4.895  10.916  0.0278  0.3667  0.1432
  110OSM    O1311340   2.708   4.940  10.999  0.0472  0.1436  0.0764
  110OSM    O1411341   2.564   4.754  10.939 -0.1425  0.0847 -0.6606
  110OSM    O1111342   2.624   4.913  10.769  0.1102  0.2459  0.0942
  110OSM    O1211343   2.452   4.971  10.942 -0.1575 -0.1857 -0.0914
  110OSM    C1S11344   2.522   4.889  10.669  0.0278  0.3576 -0.7584
  110OSM    H1S11345   2.450   4.974  10.662  0.7515  0.9508 -1.2360
  110OSM    H1T11346   2.463   4.796  10.680  0.4891  0.1219 -0.2381
  110OSM     NF11347   2.494   4.909  10.431  1.3207  0.1100 -0.1980
  110OSM    HNF11348   2.446   4.838  10.380 -1.0812  0.8338  0.9316
  110OSM    C2S11349   2.594   4.876  10.530 -0.1325 -0.1804 -0.2778
  110OSM    H2S11350   2.672   4.954  10.528  0.8965 -1.1274  1.2690
  110OSM    C3S11351   2.648   4.728  10.515  0.1095  0.0855 -0.1833
  110OSM    H3S11352   2.560   4.662  10.534 -0.0675  0.7095  1.3419
  110OSM     O311353   2.754   4.690  10.609  0.2958 -0.2446  0.4156
  110OSM    HO311354   2.750   4.759  10.676  0.3438  0.7496 -0.5917
  110OSM    C4S11355   2.690   4.699  10.381 -0.3077 -0.7765  0.0800
  110OSM    H4S11356   2.776   4.754  10.340 -3.2614  3.0345 -1.6433
  110OSM    C5S11357   2.633   4.609  10.306 -0.1712 -0.4132  0.1844
  110OSM    H5S11358   2.554   4.548  10.352  1.1536 -0.4230  2.6202
  110OSM    C6S11359   2.678   4.573  10.169 -0.2233 -0.4921  0.9331
  110OSM    H6S11360   2.730   4.476  10.181  0.2020 -0.3272  0.4213
  110OSM    H6T11361   2.762   4.639  10.142 -1.5711  0.6247 -0.7575
  110OSM    C7S11362   2.577   4.574  10.047 -0.2208 -0.1798 -0.3469
  110OSM    H7S11363   2.500   4.497  10.070 -0.7942  0.5242  0.1730
  110OSM    H7T11364   2.637   4.547   9.958 -0.7086 -1.7294 -0.2326
  110OSM    C8S11365   2.515   4.709  10.032  0.9660  0.7548 -0.3435
  110OSM    H8S11366   2.595   4.779   9.999  2.3385 -1.4287 -1.9405
  110OSM    H8T11367   2.466   4.745  10.125  0.8314  0.6439 -0.3718
  110OSM    C9S11368   2.408   4.727   9.919 -0.1644  0.8090  0.4956
  110OSM    H9S11369   2.455   4.695   9.823 -1.0197 -1.0207  0.6416
  110OSM    H9T11370   2.379   4.834   9.926  0.4180  1.0994 -1.0615
  110OSM   C10S11371   2.276   4.641   9.936 -0.0549  0.3846  0.6094
  110OSM   H10S11372   2.233   4.669  10.035  0.4144 -0.8967  1.2054
  110OSM   H10T11373   2.297   4.532   9.934 -0.9161  0.2294 -1.1487
  110OSM   C11S11374   2.160   4.676   9.838  0.4462 -0.4085 -0.6361
  110OSM   H11S11375   2.112   4.772   9.867 -1.1713 -1.3608 -0.0138
  110OSM   H11T11376   2.086   4.593   9.849  1.0734 -0.6517  2.9090
  110OSM   C12S11377   2.201   4.680   9.692  0.2019 -0.1959  0.4142
  110OSM   H12S11378   2.260   4.587   9.676  1.2892  0.2762  1.5302
  110OSM   H12T11379   2.272   4.765   9.679  0.4816 -0.2397  1.6114
  110OSM   C13S11380   2.078   4.694   9.599  0.5835 -0.5514 -0.6107
  110OSM   H13S11381   2.045   4.800   9.608  1.1954 -0.3358 -0.8061
  110OSM   H13T11382   1.989   4.638   9.634 -0.1290  0.8473 -0.1300
  110OSM   C14S11383   2.092   4.644   9.453 -0.1577 -0.2311  0.3680
  110OSM   H14S11384   2.076   4.534   9.445  0.1053 -0.2780  0.4697
  110OSM   H14T11385   2.193   4.669   9.413 -1.0818 -0.2137 -2.1232
  110OSM   C15S11386   1.999   4.720   9.360 -0.3807 -0.7284 -0.2032
  110OSM   H15S11387   2.006   4.821   9.407  2.2378 -0.9726  0.1230
  110OSM   H15T11388   1.895   4.684   9.372 -0.0144 -2.2212 -1.2796
  110OSM   C16S11389   2.043   4.730   9.209  0.2643  0.2569  0.3587
  110OSM   H16S11390   2.043   4.631   9.159 -2.1533 -0.3529  1.4239
  110OSM   H16T11391   2.149   4.764   9.212  0.6042 -0.4127 -1.9274
  110OSM   C17S11392   1.946   4.824   9.135  0.0867  0.8302  0.1705
  110OSM   H17S11393   1.949   4.923   9.186  1.0378  1.1053 -0.4043
  110OSM   H17T11394   1.844   4.780   9.144  1.8316 -3.1632  3.4446
  110OSM   C18S11395   1.978   4.845   8.987 -0.8760  0.3512 -0.3442
  110OSM   H18S11396   2.064   4.914   8.972 -1.6508  1.1828 -1.0663
  110OSM   H18T11397   1.893   4.894   8.935 -2.9135 -2.4694  0.0498
  110OSM   H18U11398   2.000   4.748   8.938 -0.0156  0.2095  0.2951
  110OSM    C1F11399   2.451   5.035  10.393 -0.4119  0.5052 -1.0163
  110OSM     OF11400   2.497   5.135  10.442 -0.9598 -0.1115 -1.2896
  110OSM    C2F11401   2.365   5.047  10.268  0.2895  0.2394  0.4348
  110OSM    H2F11402   2.316   4.948  10.254  1.6614 -0.1996 -1.7921
  110OSM    H2G11403   2.423   5.068  10.175 -1.4784 -1.4804 -1.1597
  110OSM    C3F11404   2.252   5.156  10.271 -0.3206  0.3204 -0.3001
  110OSM    H3F11405   2.291   5.260  10.270  0.6966 -0.0548 -0.9516
  110OSM    H3G11406   2.196   5.141  10.366 -1.2211  1.4024 -0.6292
  110OSM    C4F11407   2.152   5.139  10.158 -0.1656 -0.2156  0.2263
  110OSM    H4F11408   2.094   5.233  10.166  0.0754  0.0623 -1.1601
  110OSM    H4G11409   2.086   5.055  10.191  0.0425 -0.7152 -0.5916
  110OSM    C5F11410   2.216   5.112  10.018  0.9828 -0.0622 -0.8056
  110OSM    H5F11411   2.254   5.008  10.031 -1.3944 -0.7218  1.8856
  110OSM    H5G11412   2.280   5.201  10.002  1.6721 -0.4803 -0.4097
  110OSM    C6F11413   2.109   5.119   9.911 -0.2133  0.3105 -0.3599
  110OSM    H6F11414   2.063   5.220   9.912 -0.5654  0.1639 -1.1771
  110OSM    H6G11415   2.032   5.045   9.943  0.1025  0.2238  0.2242
  110OSM    C7F11416   2.162   5.103   9.775  0.0914 -0.1028  0.7369
  110OSM    H7F11417   2.226   5.012   9.768 -1.1779 -0.9906  0.3336
  110OSM    H7G11418   2.225   5.190   9.748 -0.0794 -0.5709 -1.3800
  110OSM    C8F11419   2.062   5.094   9.654 -0.2824 -0.1997  0.2966
  110OSM    H8F11420   1.999   5.003   9.666  0.6601 -0.7847  0.9877
  110OSM    H8G11421   2.131   5.084   9.568  0.2114  0.8687  0.5569
  110OSM    C9F11422   1.980   5.224   9.634  0.5344  0.6285 -0.1358
  110OSM    H9F11423   1.911   5.256   9.714 -2.7517 -1.1924 -2.0198
  110OSM   C10F11424   1.971   5.297   9.523  0.6021  0.2427  0.2539
  110OSM   H10F11425   1.910   5.388   9.518 -1.6838 -1.2341 -3.4233
  110OSM   C11F11426   2.031   5.278   9.384  0.1079 -0.6133 -0.1441
  110OSM   H11F11427   2.130   5.228   9.386  2.5425  3.7376 -0.6952
  110OSM   H11G11428   2.065   5.379   9.353 -2.1025  0.6568  1.2556
  110OSM   C12F11429   1.936   5.221   9.278  0.0097  0.5608  0.4331
  110OSM   H12F11430   1.845   5.284   9.272  0.2241  0.7300 -1.3398
  110OSM   H12G11431   1.907   5.118   9.305  2.0066 -0.0027  0.6515
  110OSM   C13F11432   1.997   5.219   9.139 -0.4721 -0.1421 -0.0747
  110OSM   H13F11433   2.082   5.148   9.146  0.0183  0.6050  4.4831
  110OSM   H13G11434   2.039   5.322   9.127  2.0148 -0.9872  0.8283
  110OSM   C14F11435   1.895   5.203   9.028  0.2517  0.3394  0.2059
  110OSM   H14F11436   1.843   5.300   9.037  2.1328  1.2871  1.4810
  110OSM   H14G11437   1.828   5.115   9.039  0.0427  0.5958  1.0264
  110OSM   C15F11438   1.959   5.198   8.889 -0.8249 -0.5298  0.0170
  110OSM   H15F11439   2.042   5.124   8.880  1.9123  2.0129  2.3973
  110OSM   H15G11440   2.033   5.280   8.881  1.7597 -2.7838 -0.8181
  110OSM   C16F11441   1.855   5.188   8.780 -0.6677 -0.5999 -0.9672
  110OSM   H16F11442   1.776   5.254   8.822 -0.8788 -0.5839 -1.3787
  110OSM   H16G11443   1.837   5.078   8.771 -0.3292 -0.9229  1.5275
  110OSM   C17F11444   1.899   5.243   8.649  0.3568  0.0158  0.1413
  110OSM   H17F11445   1.998   5.203   8.617  0.5730  1.0288 -0.5008
  110OSM   H17G11446   1.908   5.351   8.673 -0.5770 -0.2008  1.5953
  110OSM   C18F11447   1.792   5.226   8.537  0.1867 -0.3087 -0.7426
  110OSM   H18F11448   1.784   5.123   8.496 -2.4479  0.4683 -2.4162
  110OSM   H18G11449   1.801   5.303   8.458  0.7081 -0.0864 -0.4699
  110OSM   H18H11450   1.692   5.250   8.578  1.2784  0.0347  1.9079
  111OSM      N11451   2.255   1.285  11.330 -0.2870  0.5874  0.3855
  111OSM    C1511452   2.178   1.206  11.431  0.6577  0.4061  0.1924
  111OSM   H15A11453   2.096   1.258  11.477  0.4425 -0.7290  1.1655
  111OSM   H15B11454   2.245   1.179  11.512 -2.1575 -1.4088  2.0846
  111OSM   H15C11455   2.158   1.112  11.382  0.8789  0.2829  0.3340
  111OSM    C1411456   2.315   1.405  11.408 -1.3951 -0.0481 -0.1047
  111OSM   H14A11457   2.372   1.375  11.494 -0.1501 -0.8335 -1.1686
  111OSM   H14B11458   2.234   1.467  11.444  0.7726  2.4333  0.8922
  111OSM   H14C11459   2.383   1.460  11.344  1.3489 -3.2582 -0.2106
  111OSM    C1311460   2.360   1.182  11.287 -0.2087 -0.1665  0.5302
  111OSM   H13A11461   2.325   1.092  11.237  3.8609 -1.5403 -0.2511
  111OSM   H13B11462   2.415   1.144  11.371 -0.0069  1.5341  1.2029
  111OSM   H13C11463   2.437   1.230  11.228 -1.3220  1.5940  0.4259
  111OSM    C1211464   2.166   1.322  11.217  1.2150 -0.6693  0.8124
  111OSM   H12A11465   2.093   1.389  11.258  1.3330  0.0330 -0.1086
  111OSM   H12B11466   2.105   1.241  11.179 -1.6221  1.6868  0.0305
  111OSM    C1111467   2.231   1.384  11.091 -0.3330 -0.8878  0.2371
  111OSM   H11A11468   2.162   1.424  11.014  2.7844  3.8652 -0.5182
  111OSM   H11B11469   2.291   1.306  11.039  2.4627  0.4069  1.3306
  111OSM      P11470   2.309   1.634  11.090  0.2159  0.1203 -0.1660
  111OSM    O1311471   2.186   1.686  11.160  0.0105  0.1188  0.4364
  111OSM    O1411472   2.428   1.702  11.129 -0.1520  0.0037 -0.0848
  111OSM    O1111473   2.281   1.646  10.937 -0.4597  0.3064  0.3279
  111OSM    O1211474   2.327   1.477  11.122 -0.3586  0.0782 -0.6033
  111OSM    C1S11475   2.375   1.602  10.830  0.4757  0.1763  0.7064
  111OSM    H1S11476   2.408   1.501  10.862  0.4021  0.3733  1.4405
  111OSM    H1T11477   2.468   1.663  10.833 -1.2494  3.3700 -2.7862
  111OSM     NF11478   2.391   1.552  10.570 -0.8058 -0.0965  0.2005
  111OSM    HNF11479   2.419   1.626  10.509  0.9080  0.2034  1.2961
  111OSM    C2S11480   2.312   1.602  10.684  0.5791  0.1260  0.3538
  111OSM    H2S11481   2.228   1.532  10.707  0.8298  0.1766  1.4772
  111OSM    C3S11482   2.257   1.739  10.652  0.4423 -1.3822 -0.5532
  111OSM    H3S11483   2.335   1.817  10.666  1.0388 -2.2485  1.2982
  111OSM     O311484   2.156   1.776  10.747  0.3377  0.0087  0.0346
  111OSM    HO311485   2.175   1.721  10.823  1.2126  0.0578 -0.1361
  111OSM    C4S11486   2.198   1.750  10.512 -0.0696  0.4692  0.5051
  111OSM    H4S11487   2.287   1.750  10.446  0.9252  0.2986  1.7964
  111OSM    C5S11488   2.066   1.764  10.474 -0.2318 -0.3907 -0.0517
  111OSM    H5S11489   1.990   1.775  10.553  0.4006  0.6272  0.4299
  111OSM    C6S11490   2.004   1.782  10.339  0.1338 -0.3889  1.0632
  111OSM    H6S11491   1.927   1.862  10.338  1.0696  0.5282  0.8096
  111OSM    H6T11492   1.946   1.689  10.322 -0.0453 -0.5344  2.3336
  111OSM    C7S11493   2.101   1.797  10.218 -0.1460 -0.4087  0.2038
  111OSM    H7S11494   2.177   1.716  10.215  2.2076  1.6793 -0.4737
  111OSM    H7T11495   2.157   1.890  10.241 -1.3653 -0.1990  2.7530
  111OSM    C8S11496   2.047   1.794  10.076  0.6605  0.3612  0.6554
  111OSM    H8S11497   1.947   1.841  10.079 -0.0202 -0.9458 -0.4056
  111OSM    H8T11498   2.022   1.687  10.065  2.0789 -0.2278  2.5956
  111OSM    C9S11499   2.139   1.846   9.969  0.2885  0.7768  1.2325
  111OSM    H9S11500   2.236   1.794   9.961 -0.5964 -0.6959 -0.5185
  111OSM    H9T11501   2.157   1.954   9.991 -0.4876  1.0693  0.4821
  111OSM   C10S11502   2.075   1.851   9.829  0.5083 -0.2873  0.2207
  111OSM   H10S11503   1.992   1.924   9.840  0.6136  0.2264 -2.0175
  111OSM   H10T11504   2.028   1.758   9.791 -0.0609 -0.5590  1.5372
  111OSM   C11S11505   2.171   1.895   9.715 -0.2189 -0.2613  0.1765
  111OSM   H11S11506   2.244   1.812   9.704 -0.9591 -0.8646 -0.2758
  111OSM   H11T11507   2.240   1.980   9.735  1.1190 -0.9885 -1.1462
  111OSM   C12S11508   2.090   1.905   9.587  0.5230  1.1085  0.0613
  111OSM   H12S11509   1.999   1.967   9.600 -0.6423 -0.4211 -0.5551
  111OSM   H12T11510   2.049   1.804   9.570  0.2446  1.1864  0.2544
  111OSM   C13S11511   2.176   1.941   9.458 -0.1475  0.6341 -0.6414
  111OSM   H13S11512   2.240   1.851   9.447  1.1247  1.7465 -3.2261
  111OSM   H13T11513   2.248   2.021   9.484  1.5096 -1.2042  0.7168
  111OSM   C14S11514   2.101   1.955   9.324 -0.5060 -0.2015 -0.0190
  111OSM   H14S11515   2.082   2.063   9.304 -1.0941 -0.7622 -2.9181
  111OSM   H14T11516   2.008   1.895   9.324 -0.1184 -0.8351  1.6969
  111OSM   C15S11517   2.205   1.928   9.205  0.7208 -0.5314 -0.5768
  111OSM   H15S11518   2.246   1.825   9.216 -0.9734 -1.2238 -0.5788
  111OSM   H15T11519   2.284   2.004   9.225  0.0713 -0.1075  0.4520
  111OSM   C16S11520   2.141   1.922   9.066  1.0487 -0.1984 -0.1333
  111OSM   H16S11521   2.083   1.829   9.054 -1.7643  1.2369  1.3803
  111OSM   H16T11522   2.224   1.919   8.993  1.2804 -1.0262  0.1555
  111OSM   C17S11523   2.057   2.038   9.012 -0.5359 -0.4411  0.7647
  111OSM   H17S11524   2.104   2.126   9.062  0.4374  0.2409 -1.2130
  111OSM   H17T11525   1.950   2.027   9.037 -0.6351 -1.3546 -0.0059
  111OSM   C18S11526   2.080   2.071   8.861  0.3841  0.5854  0.1865
  111OSM   H18S11527   1.990   2.129   8.829 -0.6491 -0.6418  0.7966
  111OSM   H18T11528   2.083   1.976   8.804 -0.5778  1.0825 -0.7412
  111OSM   H18U11529   2.176   2.126   8.846  0.7835 -0.1278  0.0945
  111OSM    C1F11530   2.443   1.429  10.580  0.2461  0.4955  0.5705
  111OSM     OF11531   2.430   1.351  10.665 -0.1868 -0.2432 -0.7430
  111OSM    C2F11532   2.521   1.387  10.465 -0.8924  0.5793 -0.2106
  111OSM    H2F11533   2.630   1.389  10.490 -1.5517  0.4084  2.9913
  111OSM    H2G11534   2.502   1.467  10.390 -0.3001  0.7800 -0.1533
  111OSM    C3F11535   2.474   1.255  10.406  0.3394  0.2649 -0.3814
  111OSM    H3F11536   2.363   1.246  10.410  0.5156 -2.1602  2.0363
  111OSM    H3G11537   2.509   1.180  10.480 -3.6267  0.8612  2.4048
  111OSM    C4F11538   2.538   1.233  10.263 -0.5445  0.3402 -0.1702
  111OSM    H4F11539   2.646   1.207  10.274 -0.6699 -1.4672 -2.5016
  111OSM    H4G11540   2.537   1.337  10.224 -2.1313  1.2852  2.1219
  111OSM    C5F11541   2.453   1.153  10.171  0.3245 -0.1577 -0.1785
  111OSM    H5F11542   2.350   1.195  10.164  0.3579  0.2111  1.1851
  111OSM    H5G11543   2.443   1.047  10.206  0.0608  0.2163  0.9325
  111OSM    C6F11544   2.493   1.149  10.020  0.0061  0.6283  0.3186
  111OSM    H6F11545   2.596   1.106  10.023  0.2760  1.2784  0.4378
  111OSM    H6G11546   2.505   1.255   9.991 -2.3041  1.8741  3.3936
  111OSM    C7F11547   2.395   1.078   9.931  0.1552  0.0389 -0.0542
  111OSM    H7F11548   2.292   1.090   9.970  0.0060  1.9656 -0.8986
  111OSM    H7G11549   2.434   0.975   9.916  2.0414  0.7280 -0.2189
  111OSM    C8F11550   2.391   1.130   9.779 -0.3133  0.1138 -0.0786
  111OSM    H8F11551   2.364   1.237   9.779 -2.4848 -0.3903 -0.0559
  111OSM    H8G11552   2.311   1.090   9.714 -2.7456  1.5657  1.8575
  111OSM    C9F11553   2.527   1.115   9.706 -0.7449  0.4632  0.1914
  111OSM    H9F11554   2.616   1.114   9.771 -0.6437  2.8803  0.1706
  111OSM   C10F11555   2.557   1.101   9.573  0.2003  0.4115 -0.2036
  111OSM   H10F11556   2.663   1.106   9.544 -0.1159 -1.0376 -1.7516
  111OSM   C11F11557   2.464   1.087   9.456 -0.2394  0.3274 -0.7274
  111OSM   H11F11558   2.358   1.078   9.486  0.2224  2.7719  2.0405
  111OSM   H11G11559   2.485   0.987   9.412  0.3323  0.1540 -0.0615
  111OSM   C12F11560   2.481   1.185   9.344  0.6371 -0.5131  0.4662
  111OSM   H12F11561   2.502   1.291   9.369 -0.4808  0.3226 -1.8446
  111OSM   H12G11562   2.391   1.181   9.279  1.6452  1.4647 -1.1702
  111OSM   C13F11563   2.595   1.139   9.258  0.0075  0.6159 -1.1128
  111OSM   H13F11564   2.570   1.033   9.234 -0.9493  0.0789  1.7900
  111OSM   H13G11565   2.688   1.148   9.319  0.0524  1.2101 -1.2692
  111OSM   C14F11566   2.610   1.220   9.133 -0.0700  0.4743  0.4752
  111OSM   H14F11567   2.681   1.302   9.159 -1.3732  1.1222  2.2612
  111OSM   H14G11568   2.512   1.272   9.122 -0.4950  0.1403  2.2673
  111OSM   C15F11569   2.653   1.141   9.002 -0.0240  0.5584  0.0094
  111OSM   H15F11570   2.585   1.054   8.983  0.3548 -0.6807  3.5746
  111OSM   H15G11571   2.756   1.107   9.025 -0.4367  1.0628  3.0263
  111OSM   C16F11572   2.645   1.229   8.879 -0.3367 -0.3452 -0.8289
  111OSM   H16F11573   2.733   1.297   8.872  2.2043 -3.5797 -3.6468
  111OSM   H16G11574   2.555   1.292   8.894 -0.4699 -0.9141  1.0889
  111OSM   C17F11575   2.645   1.153   8.749 -0.0811  0.2348  0.7870
  111OSM   H17F11576   2.545   1.106   8.741 -0.6657  1.1293  2.3337
  111OSM   H17G11577   2.726   1.078   8.763 -0.5638 -0.3546  0.4533
  111OSM   C18F11578   2.672   1.230   8.620  0.0461  0.4872 -0.6787
  111OSM   H18F11579   2.624   1.181   8.532 -1.0109  0.1267  0.0748
  111OSM   H18G11580   2.781   1.239   8.600  0.0710  0.9326 -0.3546
  111OSM   H18H11581   2.628   1.332   8.618  1.0204  0.9126 -1.0852
  112OSM      N11582   3.914   6.056  11.419  0.8490  0.5794 -0.1443
  112OSM    C1511583   3.818   6.002  11.517 -0.8199  0.4305  0.5657
  112OSM   H15A11584   3.763   5.916  11.481 -0.7629 -1.3160  4.2326
  112OSM   H15B11585   3.740   6.076  11.532 -2.2394 -0.8461 -0.2413
  112OSM   H15C11586   3.868   5.973  11.608  1.4404  0.2793 -0.6520
  112OSM    C1411587   3.988   6.168  11.488 -0.3271  0.0722 -0.7438
  112OSM   H14A11588   4.030   6.127  11.580 -1.2095 -0.9604 -0.7814
  112OSM   H14B11589   3.923   6.252  11.504  0.3450  0.5653 -0.5410
  112OSM   H14C11590   4.069   6.205  11.428 -1.1103 -0.0638 -1.9085
  112OSM    C1311591   4.008   5.947  11.387 -0.2126 -0.0182  0.5729
  112OSM   H13A11592   4.050   5.921  11.483 -0.1231  2.3670  1.2307
  112OSM   H13B11593   4.091   5.965  11.320 -1.3708  2.0382 -0.4010
  112OSM   H13C11594   3.950   5.866  11.344  0.3211 -0.0612 -0.0818
  112OSM    C1211595   3.847   6.105  11.292 -0.0113 -0.5619 -0.3821
  112OSM   H12A11596   3.928   6.142  11.230 -0.6922  4.7814  1.3872
  112OSM   H12B11597   3.801   6.202  11.306  2.5099  1.0247 -2.1779
  112OSM    C1111598   3.752   6.010  11.217 -0.5095  0.0623 -0.3253
  112OSM   H11A11599   3.692   6.066  11.142 -0.9517  0.1830  0.1084
  112OSM   H11B11600   3.675   5.969  11.287  0.3636 -2.3511 -0.6942
  112OSM      P11601   3.873   5.904  11.016  0.3447  0.3881 -0.1011
  112OSM    O1311602   3.980   6.010  10.992 -0.8352  0.8315  0.0306
  112OSM    O1411603   3.915   5.768  10.975 -0.0727  0.0045  0.4208
  112OSM    O1111604   3.740   5.941  10.938 -0.7862  0.2610 -0.0767
  112OSM    O1211605   3.827   5.907  11.162 -0.1181 -0.0057  0.6888
  112OSM    C1S11606   3.736   5.985  10.805  0.3294 -0.3452  0.5553
  112OSM    H1S11607   3.821   6.054  10.786 -0.3902  0.3109 -0.3867
  112OSM    H1T11608   3.643   6.040  10.780  1.7207  1.7640 -0.3045
  112OSM     NF11609   3.758   5.925  10.561  0.3175  0.6757  0.3102
  112OSM    HNF11610   3.681   5.946  10.502 -0.1354  0.7630  0.9255
  112OSM    C2S11611   3.744   5.872  10.696 -0.0423 -0.0297 -0.4964
  112OSM    H2S11612   3.835   5.813  10.719  0.5248  1.5563  1.5888
  112OSM    C3S11613   3.622   5.782  10.731 -0.1875 -0.0776 -0.4505
  112OSM    H3S11614   3.536   5.852  10.724 -0.0093 -0.0334 -2.9603
  112OSM     O311615   3.621   5.712  10.855 -0.4297  0.2102 -0.1205
  112OSM    HO311616   3.693   5.749  10.907  0.3487 -2.2899  0.7236
  112OSM    C4S11617   3.600   5.670  10.642  0.4746  0.2872 -0.0047
  112OSM    H4S11618   3.673   5.588  10.640 -0.8639 -1.0070  1.4359
  112OSM    C5S11619   3.491   5.671  10.557 -0.9590 -0.7001  0.6193
  112OSM    H5S11620   3.420   5.754  10.549 -0.2398 -0.1260  0.0249
  112OSM    C6S11621   3.455   5.566  10.456 -0.3702  0.4795 -0.3201
  112OSM    H6S11622   3.428   5.618  10.361 -0.7815  0.1156 -0.4029
  112OSM    H6T11623   3.372   5.506  10.496 -1.8853  2.3948 -0.4188
  112OSM    C7S11624   3.561   5.467  10.391  0.2734  0.2094 -0.3699
  112OSM    H7S11625   3.521   5.406  10.308 -0.9550 -1.2678  1.2486
  112OSM    H7T11626   3.584   5.392  10.469 -1.2493 -1.7254 -1.6913
  112OSM    C8S11627   3.700   5.536  10.368 -0.7205 -0.2673 -0.0391
  112OSM    H8S11628   3.775   5.501  10.441  0.2398 -2.8046 -2.1022
  112OSM    H8T11629   3.705   5.645  10.390  1.2378 -0.2636 -0.3601
  112OSM    C9S11630   3.773   5.491  10.243 -0.3023 -0.4716 -0.1567
  112OSM    H9S11631   3.796   5.383  10.247  0.2066 -0.3303  2.7547
  112OSM    H9T11632   3.863   5.555  10.249 -0.6601  0.0773 -0.5498
  112OSM   C10S11633   3.700   5.533  10.120 -0.4984  0.0637 -0.4189
  112OSM   H10S11634   3.681   5.642  10.128 -2.2838 -0.2603  0.3574
  112OSM   H10T11635   3.601   5.483  10.116 -0.0545 -1.1913  2.2302
  112OSM   C11S11636   3.774   5.499   9.986  0.7928  0.5666 -0.0998
  112OSM   H11S11637   3.775   5.388   9.984 -0.0678  0.5599 -1.2588
  112OSM   H11T11638   3.876   5.543   9.981  0.2409  1.7998 -1.0324
  112OSM   C12S11639   3.687   5.536   9.866  0.6110  0.1287 -0.6468
  112OSM   H12S11640   3.659   5.644   9.870 -3.7945 -0.8152 -1.4152
  112OSM   H12T11641   3.589   5.485   9.872  0.4102  0.6558  1.4157
  112OSM   C13S11642   3.742   5.505   9.728  0.0473  0.6428  0.9182
  112OSM   H13S11643   3.829   5.570   9.704  0.1039  0.1593 -0.2441
  112OSM   H13T11644   3.663   5.522   9.652 -0.5986 -2.3386  0.8408
  112OSM   C14S11645   3.783   5.360   9.694 -0.0887  0.3254  0.0135
  112OSM   H14S11646   3.696   5.301   9.731 -0.5680  1.8042  1.3437
  112OSM   H14T11647   3.873   5.341   9.757  1.2684  1.4525 -1.5018
  112OSM   C15S11648   3.806   5.324   9.547  0.4414  0.0831 -0.1749
  112OSM   H15S11649   3.897   5.381   9.520 -0.0907  1.1717  0.2913
  112OSM   H15T11650   3.725   5.368   9.485 -0.1706 -1.4145 -0.4915
  112OSM   C16S11651   3.835   5.179   9.505 -0.1718 -0.2333 -0.5836
  112OSM   H16S11652   3.894   5.137   9.589  1.1078  2.7056  0.1179
  112OSM   H16T11653   3.892   5.172   9.410  1.4055 -0.3178  0.3417
  112OSM   C17S11654   3.714   5.097   9.483 -0.1374 -0.4405 -0.1272
  112OSM   H17S11655   3.676   5.121   9.381 -1.8408 -2.3170  0.0044
  112OSM   H17T11656   3.634   5.122   9.555 -0.0481  1.0722 -0.5193
  112OSM   C18S11657   3.744   4.946   9.494 -0.1538 -0.3136 -0.0811
  112OSM   H18S11658   3.820   4.922   9.417  1.3329  0.3776  1.1261
  112OSM   H18T11659   3.652   4.886   9.478 -1.4413  1.4234  0.5482
  112OSM   H18U11660   3.786   4.933   9.596 -0.0167  1.5574  0.1428
  112OSM    C1F11661   3.876   5.973  10.507 -0.7440  0.3957 -0.2787
  112OSM     OF11662   3.964   6.010  10.585 -0.1478 -0.0014  0.0193
  112OSM    C2F11663   3.888   5.992  10.354  0.3848 -0.2086  0.4519
  112OSM    H2F11664   3.991   5.968  10.319 -1.0125 -1.1031 -3.5351
  112OSM    H2G11665   3.868   6.100  10.337 -1.0810 -0.2505  1.6248
  112OSM    C3F11666   3.800   5.902  10.261  0.1830  0.5288 -0.9336
  112OSM    H3F11667   3.702   5.880  10.307 -0.2501  2.8767 -0.6096
  112OSM    H3G11668   3.845   5.801  10.255 -2.1730 -0.5642 -1.1960
  112OSM    C4F11669   3.781   5.974  10.128 -0.0465  0.0661 -0.2408
  112OSM    H4F11670   3.875   6.002  10.075 -0.0469 -1.0981 -0.8887
  112OSM    H4G11671   3.722   6.066  10.146 -1.3204 -0.7822  0.0051
  112OSM    C5F11672   3.708   5.880  10.033 -0.1916 -0.2456 -0.4615
  112OSM    H5F11673   3.605   5.865  10.072  0.2587  0.2077  0.9599
  112OSM    H5G11674   3.748   5.781  10.003  0.0092 -0.3851  0.2507
  112OSM    C6F11675   3.692   5.938   9.886 -0.3244 -0.1558 -0.0980
  112OSM    H6F11676   3.628   6.029   9.883 -0.0180  0.0360 -1.3258
  112OSM    H6G11677   3.635   5.862   9.828 -2.1809  0.1219  1.2825
  112OSM    C7F11678   3.829   5.964   9.824  0.1451 -0.4131  0.1644
  112OSM    H7F11679   3.914   5.905   9.863  1.4324  2.4160  1.9881
  112OSM    H7G11680   3.852   6.063   9.869  1.0563 -1.1674  1.4451
  112OSM    C8F11681   3.839   5.953   9.670 -0.6515  0.0797 -0.1600
  112OSM    H8F11682   3.745   5.998   9.631 -0.8083 -0.9107 -0.9776
  112OSM    H8G11683   3.839   5.845   9.643 -2.8531  0.0616 -0.3120
  112OSM    C9F11684   3.952   6.034   9.625 -0.4363  0.0531  0.1441
  112OSM    H9F11685   4.031   6.063   9.697 -1.8997  1.6328  1.1822
  112OSM   C10F11686   3.970   6.085   9.497  0.9889 -0.0195 -0.4365
  112OSM   H10F11687   4.069   6.128   9.475  0.5966  1.7975  1.0964
  112OSM   C11F11688   3.883   6.062   9.373  0.0514  0.2719  0.6252
  112OSM   H11F11689   3.809   6.145   9.367  0.3828  0.6126  1.1463
  112OSM   H11G11690   3.815   5.975   9.383 -0.0971  0.2536 -0.3921
  112OSM   C12F11691   3.944   6.050   9.235 -0.0310  0.6580  0.3139
  112OSM   H12F11692   4.007   6.139   9.214  0.4671  0.9408  2.6695
  112OSM   H12G11693   3.865   6.047   9.158 -2.3340 -0.6809  2.5810
  112OSM   C13F11694   4.030   5.917   9.222  0.0217 -0.1570  0.0567
  112OSM   H13F11695   3.978   5.822   9.248  1.9478 -1.1272  0.5049
  112OSM   H13G11696   4.112   5.926   9.296  0.0026 -0.8065  0.1707
  112OSM   C14F11697   4.090   5.904   9.083 -0.5594  0.6837 -0.3817
  112OSM   H14F11698   4.146   5.809   9.076 -1.3075  0.0533  1.6202
  112OSM   H14G11699   4.165   5.986   9.076 -1.1510  1.5743  2.4016
  112OSM   C15F11700   3.981   5.914   8.974  0.0011 -0.3534 -0.8504
  112OSM   H15F11701   3.935   6.015   8.973  0.0736 -0.1951  2.0164
  112OSM   H15G11702   3.910   5.834   9.004 -1.9934  0.9838 -1.7790
  112OSM   C16F11703   4.032   5.879   8.832 -0.3905  0.3108  0.0517
  112OSM   H16F11704   4.029   5.770   8.811  0.7292  0.6839 -2.3973
  112OSM   H16G11705   4.133   5.923   8.819 -0.9116  1.9032  1.1214
  112OSM   C17F11706   3.948   5.932   8.714 -0.2549 -0.1402 -0.0527
  112OSM   H17F11707   3.916   6.038   8.719  1.6568  0.4151  1.0623
  112OSM   H17G11708   3.848   5.883   8.716  0.5025 -1.7600 -0.0632
  112OSM   C18F11709   4.000   5.901   8.574 -0.6734  0.1472  0.5469
  112OSM   H18F11710   3.924   5.931   8.499 -1.7517 -1.7054  0.8429
  112OSM   H18G11711   4.015   5.793   8.554  2.4907  0.6635 -0.5282
  112OSM   H18H11712   4.089   5.963   8.550 -0.5378 -0.6269 -1.0421
  113OSM      N11713   0.155   2.512  10.920 -0.6011 -0.1557 -0.1947
  113OSM    C1511714   0.108   2.385  10.982 -0.0487 -0.7686  0.4558
  113OSM   H15A11715   0.187   2.330  11.030 -0.1225 -0.5824  0.8013
  113OSM   H15B11716   0.062   2.317  10.912  4.3623 -2.3292 -1.2498
  113OSM   H15C11717   0.035   2.409  11.059  1.8195  0.1534  2.0353
  113OSM    C1411718   0.192   2.600  11.037  0.3098 -0.0303 -0.2259
  113OSM   H14A11719   0.105   2.608  11.101  0.1049 -2.4999 -0.1222
  113OSM   H14B11720   0.219   2.698  11.000  0.7120  0.0997  0.3860
  113OSM   H14C11721   0.283   2.565  11.082  1.5018 -1.5587 -3.5317
  113OSM    C1311722   0.285   2.477  10.854  0.2257  0.6229 -0.0616
  113OSM   H13A11723   0.349   2.559  10.824  3.8099 -1.2746  1.6426
  113OSM   H13B11724   0.266   2.411  10.771  1.0277  0.0564  0.1908
  113OSM   H13C11725   0.355   2.419  10.913 -0.9456  0.5249  1.2680
  113OSM    C1211726   0.053   2.568  10.834  0.3337 -0.5211 -0.2855
  113OSM   H12A11727  -0.042   2.570  10.885  1.2586 -2.0190  1.6111
  113OSM   H12B11728   0.046   2.488  10.762  1.8387 -2.3330  1.4590
  113OSM    C1111729   0.075   2.710  10.764  0.0133 -0.5985 -0.2965
  113OSM   H11A11730  -0.005   2.726  10.689 -0.2565 -0.3576  0.0358
  113OSM   H11B11731   0.166   2.708  10.701  0.1954 -0.6310 -0.0352
  113OSM      P11732  -0.034   2.892  10.916 -0.3775 -0.2520 -0.3573
  113OSM    O1311733  -0.140   2.795  10.939  0.4135  0.2458  0.9534
  113OSM    O1411734  -0.003   2.988  11.024 -0.2018  0.1089 -0.4913
  113OSM    O1111735  -0.058   2.972  10.783 -0.2903 -0.0791 -0.2628
  113OSM    O1211736   0.091   2.813  10.866  0.1976  0.6131 -0.2348
  113OSM    C1S11737   0.049   3.028  10.704 -0.0380 -0.2863  1.0138
  113OSM    H1S11738   0.126   2.950  10.686 -0.1921 -0.2476  0.1858
  113OSM    H1T11739   0.096   3.115  10.756  0.7289 -0.5940  0.8582
  113OSM     NF11740   0.107   3.127  10.484 -0.8075  0.3815  0.0353
  113OSM    HNF11741   0.116   3.226  10.488 -1.3753  0.4945 -1.1307
  113OSM    C2S11742   0.001   3.073  10.558 -1.0288  0.4089  0.1867
  113OSM    H2S11743  -0.019   2.981  10.499  0.3541  0.4852 -0.4481
  113OSM    C3S11744  -0.127   3.159  10.564 -0.3136 -0.1292  0.0920
  113OSM    H3S11745  -0.101   3.253  10.619  0.3544  0.8301 -1.7818
  113OSM     O311746  -0.233   3.086  10.639 -0.1711  0.4761 -0.1041
  113OSM    HO311747  -0.173   3.030  10.690 -1.1514 -1.0285 -0.5391
  113OSM    C4S11748  -0.181   3.194  10.427 -0.7196 -0.2540  0.3885
  113OSM    H4S11749  -0.195   3.104  10.365  0.8083 -0.5236  0.4065
  113OSM    C5S11750  -0.220   3.312  10.376 -0.7213  0.1581  0.1447
  113OSM    H5S11751  -0.208   3.402  10.438 -2.8019  0.0207  0.8259
  113OSM    C6S11752  -0.271   3.327  10.232 -0.0466  0.1855 -1.0107
  113OSM    H6S11753  -0.333   3.419  10.225  0.5322  0.7247  0.5421
  113OSM    H6T11754  -0.332   3.235  10.212 -2.8286  1.4301  0.9612
  113OSM    C7S11755  -0.162   3.336  10.121  0.5346 -1.2642 -0.0256
  113OSM    H7S11756  -0.081   3.261  10.136  0.4380 -1.3831 -0.0952
  113OSM    H7T11757  -0.115   3.435  10.138  0.3511 -0.7144 -2.3659
  113OSM    C8S11758  -0.218   3.338   9.975  0.4440 -0.0281  0.0850
  113OSM    H8S11759  -0.304   3.408   9.967  0.0121 -0.7245 -1.5876
  113OSM    H8T11760  -0.266   3.242   9.949 -1.1082  0.9689 -0.9434
  113OSM    C9S11761  -0.114   3.377   9.869  0.1443 -0.3784  0.2835
  113OSM    H9S11762  -0.034   3.302   9.850 -0.0855 -0.0222 -2.4609
  113OSM    H9T11763  -0.055   3.461   9.911  0.8682 -0.1484 -1.1279
  113OSM   C10S11764  -0.185   3.433   9.742 -0.4526 -0.4185  0.0982
  113OSM   H10S11765  -0.260   3.508   9.775  1.6201  1.2934  1.1338
  113OSM   H10T11766  -0.251   3.351   9.705 -3.8869  0.9811  2.6250
  113OSM   C11S11767  -0.097   3.488   9.636  0.3667 -0.2479  0.8091
  113OSM   H11S11768  -0.027   3.406   9.610 -0.7155 -0.5100 -1.4837
  113OSM   H11T11769  -0.039   3.570   9.684  2.9299 -0.7765 -1.1510
  113OSM   C12S11770  -0.171   3.534   9.512 -0.3261 -0.2388 -0.0701
  113OSM   H12S11771  -0.237   3.620   9.536  0.3605  0.3326 -0.1992
  113OSM   H12T11772  -0.239   3.456   9.473  1.9290 -0.6591 -3.5511
  113OSM   C13S11773  -0.074   3.593   9.402 -0.7165  0.7610  0.1975
  113OSM   H13S11774  -0.032   3.499   9.361 -1.0761 -0.6777  2.8784
  113OSM   H13T11775   0.008   3.660   9.437  0.3118  0.8671 -2.2141
  113OSM   C14S11776  -0.146   3.672   9.296  0.0416 -0.8417  0.2204
  113OSM   H14S11777  -0.200   3.756   9.346 -0.3759 -0.1301 -1.3549
  113OSM   H14T11778  -0.227   3.607   9.257 -0.5770  0.5412 -0.9307
  113OSM   C15S11779  -0.059   3.727   9.189 -0.3844  0.5524  1.0942
  113OSM   H15S11780   0.016   3.789   9.243  0.8315  0.8731 -0.8510
  113OSM   H15T11781  -0.114   3.801   9.127 -1.3059 -0.2633  0.9207
  113OSM   C16S11782   0.007   3.618   9.105  0.2752 -0.0390 -0.4140
  113OSM   H16S11783  -0.068   3.552   9.055 -0.4327 -1.1090  1.9097
  113OSM   H16T11784   0.059   3.560   9.184  1.2027  2.1519  0.6735
  113OSM   C17S11785   0.102   3.674   9.011  0.6435  0.2533  0.7178
  113OSM   H17S11786   0.192   3.713   9.062  0.3473  1.1967  0.5412
  113OSM   H17T11787   0.057   3.764   8.963 -0.2025 -0.7657 -0.4445
  113OSM   C18S11788   0.153   3.576   8.907  0.3056 -0.6804 -0.4667
  113OSM   H18S11789   0.081   3.502   8.865  1.3473 -0.4758 -2.8020
  113OSM   H18T11790   0.237   3.519   8.951  0.5667  1.4414  1.9810
  113OSM   H18U11791   0.202   3.632   8.824  1.0000 -1.6528 -0.7271
  113OSM    C1F11792   0.201   3.055  10.418  0.2436  0.6242  0.3930
  113OSM     OF11793   0.197   2.932  10.419  0.2222  0.6505  0.1230
  113OSM    C2F11794   0.324   3.126  10.354 -0.3690 -0.2270  0.2297
  113OSM    H2F11795   0.399   3.157  10.429  0.5922 -3.1032  0.5707
  113OSM    H2G11796   0.282   3.213  10.299  0.2876 -0.6819 -1.0213
  113OSM    C3F11797   0.400   3.027  10.259  0.1124 -0.2878 -0.4909
  113OSM    H3F11798   0.322   2.981  10.195 -0.4489  0.2639 -0.2112
  113OSM    H3G11799   0.458   2.946  10.309 -0.0192 -0.5492 -0.7541
  113OSM    C4F11800   0.503   3.094  10.161 -0.3704 -0.5434  0.3148
  113OSM    H4F11801   0.547   3.011  10.100  1.1573  0.5918 -0.1950
  113OSM    H4G11802   0.582   3.145  10.220  0.3530 -1.2926  0.0077
  113OSM    C5F11803   0.441   3.202  10.072  0.1058 -0.3147  0.2544
  113OSM    H5F11804   0.384   3.290  10.109 -1.6385  0.6370 -4.0718
  113OSM    H5G11805   0.369   3.144  10.011  0.5381 -0.1921 -0.3787
  113OSM    C6F11806   0.547   3.249   9.983  0.2813 -0.2093  0.4387
  113OSM    H6F11807   0.577   3.162   9.920 -0.6297 -0.2944  0.1098
  113OSM    H6G11808   0.634   3.279  10.045  1.4385  2.6887 -2.3112
  113OSM    C7F11809   0.518   3.370   9.889 -0.0857  0.1886  0.3739
  113OSM    H7F11810   0.609   3.419   9.849 -0.4624  0.2732 -0.4041
  113OSM    H7G11811   0.470   3.448   9.952  2.8064  2.4545 -0.0110
  113OSM    C8F11812   0.422   3.337   9.780 -0.5870  0.3251  0.0310
  113OSM    H8F11813   0.320   3.332   9.825  0.9855 -2.3155  3.8018
  113OSM    H8G11814   0.440   3.238   9.733 -0.5048  0.8079 -0.9701
  113OSM    C9F11815   0.419   3.446   9.678 -0.5027 -0.3734 -0.0632
  113OSM    H9F11816   0.429   3.549   9.716  0.6832 -1.2037  2.0319
  113OSM   C10F11817   0.409   3.435   9.542  0.4644  0.9159  0.2342
  113OSM   H10F11818   0.416   3.525   9.479 -1.3729  1.5928  0.9168
  113OSM   C11F11819   0.394   3.309   9.457 -0.0835 -0.5068 -0.6227
  113OSM   H11F11820   0.338   3.234   9.518  0.4694  0.0177  0.5709
  113OSM   H11G11821   0.494   3.265   9.437 -0.8821 -1.8974 -1.7515
  113OSM   C12F11822   0.317   3.334   9.328 -0.2146 -0.0908  0.2088
  113OSM   H12F11823   0.215   3.376   9.348  0.5291  1.0151  1.9490
  113OSM   H12G11824   0.294   3.239   9.276  0.5324 -0.4623  0.5457
  113OSM   C13F11825   0.383   3.428   9.225  0.4860 -0.2592  0.4629
  113OSM   H13F11826   0.402   3.525   9.275 -1.4041  0.9033 -0.9576
  113OSM   H13G11827   0.310   3.442   9.143 -0.5722 -1.5905  1.1229
  113OSM   C14F11828   0.498   3.363   9.150 -0.6336  0.5173  0.5517
  113OSM   H14F11829   0.446   3.280   9.098  1.4098 -0.3982 -0.1277
  113OSM   H14G11830   0.569   3.314   9.219  0.3878  0.4518 -0.5184
  113OSM   C15F11831   0.572   3.439   9.034 -0.1360 -0.0253 -0.4510
  113OSM   H15F11832   0.639   3.516   9.078  0.3326 -0.8689  0.3507
  113OSM   H15G11833   0.488   3.487   8.979 -0.4933  0.2848  0.3646
  113OSM   C16F11834   0.642   3.347   8.923 -0.4054  0.6462 -0.1322
  113OSM   H16F11835   0.686   3.418   8.850  0.4514 -0.2606 -0.5189
  113OSM   H16G11836   0.570   3.283   8.868  0.7238  0.4037 -1.3928
  113OSM   C17F11837   0.768   3.269   8.967  0.0137 -0.0636 -0.1892
  113OSM   H17F11838   0.743   3.162   8.986 -1.9302 -0.1417 -2.7152
  113OSM   H17G11839   0.776   3.322   9.065  0.9075  1.7051 -1.1763
  113OSM   C18F11840   0.892   3.297   8.882  0.2362 -0.1725  0.3392
  113OSM   H18F11841   0.885   3.244   8.784  1.3377  0.0866  0.1057
  113OSM   H18G11842   0.985   3.258   8.927  0.8521  0.9470  0.0798
  113OSM   H18H11843   0.918   3.404   8.868 -0.9613  0.5853  3.2523
  114OSM      N11844   2.999   5.106  10.839 -0.1715  0.6541 -0.7487
  114OSM    C1511845   2.936   4.977  10.786  0.1145  0.2155  0.1543
  114OSM   H15A11846   2.937   4.977  10.678  0.6104 -2.4323  0.0999
  114OSM   H15B11847   2.840   4.959  10.832 -0.3736  3.0807  0.4420
  114OSM   H15C11848   2.999   4.894  10.814 -0.1012  0.4709  1.4625
  114OSM    C1411849   2.982   5.114  10.987  0.7548 -0.2443  0.9497
  114OSM   H14A11850   3.019   5.205  11.032  0.2565 -0.9475  2.8853
  114OSM   H14B11851   3.047   5.041  11.034  0.0196 -0.1809  2.0988
  114OSM   H14C11852   2.879   5.094  11.012  0.9063 -1.0910  0.9396
  114OSM    C1311853   3.147   5.092  10.816 -0.3988 -0.4062  0.0782
  114OSM   H13A11854   3.196   5.186  10.837  0.6661 -1.4059  2.3759
  114OSM   H13B11855   3.164   5.084  10.710  0.5611 -0.3752  0.2238
  114OSM   H13C11856   3.185   5.003  10.864  2.5771  0.7440  0.0126
  114OSM    C1211857   2.936   5.222  10.765  0.1348  0.1937 -0.8957
  114OSM   H12A11858   2.953   5.196  10.662  0.1422 -1.7250 -0.4380
  114OSM   H12B11859   3.000   5.306  10.788  0.5345 -0.2138 -0.5074
  114OSM    C1111860   2.786   5.258  10.783 -0.5232  0.4621 -0.1920
  114OSM   H11A11861   2.716   5.175  10.757 -0.8812  1.1057 -1.3576
  114OSM   H11B11862   2.756   5.335  10.709 -0.5573 -1.0085 -1.7801
  114OSM      P11863   2.812   5.433  10.976  0.1604 -0.0605  0.1198
  114OSM    O1311864   2.692   5.498  11.028  0.0690  0.0123 -0.4035
  114OSM    O1411865   2.926   5.412  11.077  0.0674  0.2474  0.9793
  114OSM    O1111866   2.878   5.517  10.859 -0.8202 -0.2828 -0.0015
  114OSM    O1211867   2.764   5.298  10.920 -0.2019  0.2404  0.1516
  114OSM    C1S11868   2.802   5.606  10.781  0.3457  0.7604 -0.3205
  114OSM    H1S11869   2.739   5.671  10.846 -0.3896  0.0220 -0.2800
  114OSM    H1T11870   2.731   5.544  10.722 -0.3002  1.6117 -0.4533
  114OSM     NF11871   2.809   5.758  10.604  0.4787  0.3636 -0.2652
  114OSM    HNF11872   2.771   5.703  10.530  1.0284 -2.2843  1.2689
  114OSM    C2S11873   2.900   5.687  10.693  0.8068 -0.2598  0.5872
  114OSM    H2S11874   2.952   5.760  10.759  0.7479 -1.6193  2.2200
  114OSM    C3S11875   3.007   5.591  10.623  0.2341 -0.0019 -0.5810
  114OSM    H3S11876   2.955   5.511  10.567  0.1333 -1.4593  1.4907
  114OSM     O311877   3.098   5.512  10.704 -0.0665 -0.4456  0.0251
  114OSM    HO311878   3.057   5.526  10.790 -1.2911 -0.8608 -0.4657
  114OSM    C4S11879   3.091   5.677  10.531 -0.4146 -0.3825  0.8375
  114OSM    H4S11880   3.117   5.774  10.574 -0.6357 -1.4849  3.6670
  114OSM    C5S11881   3.111   5.637  10.401 -0.3648 -0.0532 -0.2921
  114OSM    H5S11882   3.082   5.537  10.367 -1.3570  0.4894 -1.0979
  114OSM    C6S11883   3.176   5.721  10.295  0.3624 -0.0108 -0.0749
  114OSM    H6S11884   3.264   5.762  10.350  0.8501  1.0075 -1.5448
  114OSM    H6T11885   3.101   5.800  10.273  0.2122 -0.4167 -1.0719
  114OSM    C7S11886   3.209   5.651  10.166  0.1026  0.2391 -0.1549
  114OSM    H7S11887   3.118   5.601  10.127  1.6076 -1.7471 -1.3335
  114OSM    H7T11888   3.281   5.571  10.192 -0.7495 -0.5481 -0.1628
  114OSM    C8S11889   3.272   5.744  10.066  0.6275 -0.2332 -0.0140
  114OSM    H8S11890   3.338   5.822  10.110 -0.0780  1.2188 -1.4268
  114OSM    H8T11891   3.194   5.814  10.028 -0.5020 -1.1553  0.5478
  114OSM    C9S11892   3.335   5.679   9.941 -0.1976 -0.2376 -0.9538
  114OSM    H9S11893   3.257   5.608   9.904 -0.2522 -0.0538 -1.1921
  114OSM    H9T11894   3.434   5.631   9.955 -0.1153 -0.0493 -0.8862
  114OSM   C10S11895   3.360   5.787   9.838 -0.0298 -0.4777  0.6074
  114OSM   H10S11896   3.437   5.858   9.876  0.4442 -0.2701 -0.7178
  114OSM   H10T11897   3.265   5.842   9.824  0.4947  0.3495  0.2111
  114OSM   C11S11898   3.386   5.722   9.702 -0.2119  0.1151  0.4556
  114OSM   H11S11899   3.293   5.680   9.657  0.6494  0.5218 -1.8543
  114OSM   H11T11900   3.457   5.638   9.716  1.2734  1.0806 -0.8775
  114OSM   C12S11901   3.444   5.811   9.596  0.7673  0.0960 -0.5644
  114OSM   H12S11902   3.517   5.873   9.653 -0.1818  2.9212 -2.2189
  114OSM   H12T11903   3.361   5.876   9.561 -0.8284 -0.8704  1.2368
  114OSM   C13S11904   3.498   5.730   9.477 -0.0070  0.1205  0.2505
  114OSM   H13S11905   3.415   5.685   9.420  1.5410 -2.5362 -0.0490
  114OSM   H13T11906   3.557   5.641   9.506 -0.8531 -0.9858 -1.2684
  114OSM   C14S11907   3.580   5.817   9.377 -0.1464 -0.1161  0.3285
  114OSM   H14S11908   3.685   5.783   9.381  1.0585  2.9360 -1.7263
  114OSM   H14T11909   3.571   5.925   9.405 -4.9846  0.2486 -1.6086
  114OSM   C15S11910   3.535   5.795   9.233 -0.3756 -0.4582  0.0496
  114OSM   H15S11911   3.427   5.822   9.230 -0.7858 -1.9888  0.3638
  114OSM   H15T11912   3.545   5.692   9.194  0.3656 -0.5720  0.5501
  114OSM   C16S11913   3.614   5.889   9.140  0.4286  0.3469 -0.2243
  114OSM   H16S11914   3.719   5.852   9.145 -0.2554 -1.7618 -0.3313
  114OSM   H16T11915   3.608   5.994   9.177  2.3929  0.3888  0.0756
  114OSM   C17S11916   3.571   5.872   8.998 -0.3229  0.4994  0.4910
  114OSM   H17S11917   3.624   5.943   8.932  2.7399 -1.5749  0.5199
  114OSM   H17T11918   3.460   5.876   8.991 -0.5622 -3.3453 -0.3197
  114OSM   C18S11919   3.606   5.737   8.935  0.2772 -0.1491  0.3978
  114OSM   H18S11920   3.545   5.738   8.842  0.0938 -2.3206  0.4367
  114OSM   H18T11921   3.575   5.644   8.986 -0.5795 -0.2499 -0.2830
  114OSM   H18U11922   3.709   5.725   8.893  0.5260 -1.1835  1.2601
  114OSM    C1F11923   2.753   5.873  10.640  0.7450  0.3072 -0.4859
  114OSM     OF11924   2.806   5.939  10.724  0.3747  0.0687 -0.4686
  114OSM    C2F11925   2.622   5.914  10.577 -0.6603 -0.0883  0.4681
  114OSM    H2F11926   2.549   5.917  10.660 -1.9519 -1.5737 -0.5510
  114OSM    H2G11927   2.595   5.836  10.502 -1.1130 -0.6234  1.1720
  114OSM    C3F11928   2.613   6.057  10.522  0.2260 -0.7905 -0.8966
  114OSM    H3F11929   2.653   6.129  10.596  1.0465 -0.7599 -1.3528
  114OSM    H3G11930   2.508   6.090  10.510  0.8140  2.0612  0.9298
  114OSM    C4F11931   2.705   6.081  10.398 -0.1217 -0.2377 -0.5611
  114OSM    H4F11932   2.677   5.994  10.336 -1.4489 -0.4962  0.3642
  114OSM    H4G11933   2.812   6.075  10.428 -0.3714 -0.0375  0.4243
  114OSM    C5F11934   2.672   6.213  10.312  0.0066  0.3275  0.1298
  114OSM    H5F11935   2.700   6.302  10.373  1.6766 -0.7565  1.0234
  114OSM    H5G11936   2.564   6.220  10.290 -0.0390 -3.6645 -1.6351
  114OSM    C6F11937   2.760   6.216  10.192  0.0386  0.0216 -0.0946
  114OSM    H6F11938   2.864   6.250  10.206  0.1913 -0.2490 -0.5554
  114OSM    H6G11939   2.711   6.302  10.141 -1.4841 -0.6308  0.2092
  114OSM    C7F11940   2.745   6.099  10.095 -0.3373  0.4288 -0.2671
  114OSM    H7F11941   2.643   6.057  10.107  0.2104 -1.3423 -1.3676
  114OSM    H7G11942   2.818   6.027  10.139 -1.0031  0.5342  1.0471
  114OSM    C8F11943   2.761   6.124   9.944  0.1359 -0.0945 -0.8487
  114OSM    H8F11944   2.691   6.206   9.920 -2.2214 -0.7827  2.8721
  114OSM    H8G11945   2.732   6.032   9.889  0.9137 -0.7580 -0.1769
  114OSM    C9F11946   2.897   6.171   9.914  0.6083 -0.5986  0.6111
  114OSM    H9F11947   2.965   6.181  10.000 -0.2967  1.3803  1.1500
  114OSM   C10F11948   2.949   6.191   9.794 -0.1690  0.0508  0.9322
  114OSM   H10F11949   3.047   6.235   9.774 -1.7856  3.7928  0.3607
  114OSM   C11F11950   2.878   6.175   9.658  0.1760 -0.3682 -0.3250
  114OSM   H11F11951   2.773   6.140   9.670  1.2090 -4.1369 -1.0588
  114OSM   H11G11952   2.922   6.081   9.619 -0.1774 -0.8779  0.4676
  114OSM   C12F11953   2.899   6.295   9.563 -0.2867 -0.0601 -1.0632
  114OSM   H12F11954   2.867   6.239   9.473 -0.8317 -1.1165 -0.2379
  114OSM   H12G11955   3.004   6.333   9.564 -0.4126  0.3618  0.8819
  114OSM   C13F11956   2.805   6.410   9.579  0.1666  0.6958  0.1744
  114OSM   H13F11957   2.824   6.463   9.675  1.4387  0.9857 -0.2217
  114OSM   H13G11958   2.709   6.354   9.576  1.1439 -0.9804 -0.8380
  114OSM   C14F11959   2.799   6.505   9.453  0.3701 -0.6527  0.5386
  114OSM   H14F11960   2.897   6.551   9.429 -1.0999  2.4316 -0.1045
  114OSM   H14G11961   2.728   6.589   9.470 -1.4956 -1.5852 -2.0642
  114OSM   C15F11962   2.752   6.433   9.322  0.3252  0.0306 -0.1835
  114OSM   H15F11963   2.656   6.383   9.345 -0.6692  1.5044 -0.9877
  114OSM   H15G11964   2.830   6.359   9.294 -0.1049  0.3202 -2.3557
  114OSM   C16F11965   2.732   6.539   9.210 -0.2590  0.4982 -0.1730
  114OSM   H16F11966   2.832   6.587   9.212  0.9640 -1.8771 -1.1693
  114OSM   H16G11967   2.657   6.610   9.251  0.0042  0.6900 -0.0156
  114OSM   C17F11968   2.695   6.486   9.074 -0.0029 -0.0493  0.5078
  114OSM   H17F11969   2.620   6.405   9.081 -1.1821  0.9678  0.1478
  114OSM   H17G11970   2.789   6.439   9.038 -0.2375 -1.4764  1.6805
  114OSM   C18F11971   2.665   6.602   8.979  0.0357 -0.3542  0.4171
  114OSM   H18F11972   2.581   6.662   9.021  0.5749 -0.5980  1.9062
  114OSM   H18G11973   2.632   6.570   8.877  0.9538  1.3594 -0.4609
  114OSM   H18H11974   2.751   6.669   8.964 -0.3303 -0.0159 -0.2401
  115OSM      N11975   5.880   5.126  10.974 -0.6033 -0.9787  0.1156
  115OSM    C1511976   5.953   5.057  10.869  0.2374 -0.1685 -0.3445
  115OSM   H15A11977   5.998   5.133  10.807  1.8087 -2.3390 -2.0249
  115OSM   H15B11978   5.885   5.007  10.801 -0.7000 -2.3986  2.0527
  115OSM   H15C11979   6.023   4.979  10.896 -0.5644 -1.1882 -1.1379
  115OSM    C1411980   5.809   5.035  11.067  0.1362  0.5098 -0.1521
  115OSM   H14A11981   5.872   4.952  11.098  0.5107  0.2194 -1.6014
  115OSM   H14B11982   5.724   4.986  11.022 -1.4610  1.6658  1.4703
  115OSM   H14C11983   5.766   5.084  11.153 -0.0398  1.3097 -0.6824
  115OSM    C1311984   5.991   5.202  11.050  0.9666 -0.3337  0.3886
  115OSM   H13A11985   5.939   5.253  11.130 -1.1272 -1.8558  0.0857
  115OSM   H13B11986   6.025   5.281  10.985 -1.1354  0.7616  0.5440
  115OSM   H13C11987   6.071   5.139  11.087  2.1473  1.7405  1.5506
  115OSM    C1211988   5.781   5.225  10.908 -0.6802 -0.3035 -0.1312
  115OSM   H12A11989   5.749   5.287  10.991 -1.3771  1.6426 -1.7792
  115OSM   H12B11990   5.704   5.162  10.866 -1.1214 -1.0795  1.7497
  115OSM    C1111991   5.821   5.327  10.795 -0.3087 -0.8892 -0.2602
  115OSM   H11A11992   5.730   5.388  10.778  0.4500  0.4045  0.2256
  115OSM   H11B11993   5.837   5.277  10.697 -1.5859  0.1682 -1.0469
  115OSM      P11994   5.941   5.555  10.868  0.3466  0.0037  0.2634
  115OSM    O1311995   5.840   5.572  10.975 -0.0788  0.2825 -0.5125
  115OSM    O1411996   6.077   5.590  10.907  0.3666 -0.0882  0.7466
  115OSM    O1111997   5.891   5.633  10.740 -0.2917  0.5806 -0.7099
  115OSM    O1211998   5.938   5.407  10.825  0.8755  0.5750  0.2828
  115OSM    C1S11999   5.987   5.698  10.655 -0.3043 -0.4127  1.1445
  115OSM    H1S12000   6.086   5.723  10.698 -0.0953 -0.5499  0.7504
  115OSM    H1T12001   5.938   5.789  10.614  0.3956 -0.9136 -0.9086
  115OSM     NF12002   6.108   5.690  10.436 -0.1338  0.7350  1.0124
  115OSM    HNF12003   6.084   5.737  10.351  1.0410  0.1643  0.3422
  115OSM    C2S12004   6.004   5.624  10.519  0.7503 -0.1048  0.2498
  115OSM    H2S12005   6.029   5.517  10.537 -1.6177 -0.5161  1.4977
  115OSM    C3S12006   5.862   5.627  10.448 -0.2005  0.1931  0.0175
  115OSM    H3S12007   5.829   5.729  10.419  0.6638  1.4894  3.2548
  115OSM     O312008   5.763   5.564  10.530 -0.8797  0.3345  0.3678
  115OSM    HO312009   5.816   5.530  10.603  2.5233  3.3149 -0.4425
  115OSM    C4S12010   5.866   5.546  10.321  0.4504  0.4216 -0.1177
  115OSM    H4S12011   5.868   5.437  10.331  1.8595  0.4182 -0.2839
  115OSM    C5S12012   5.864   5.601  10.198  0.7149  0.6454  0.4920
  115OSM    H5S12013   5.872   5.710  10.190  2.8389  0.4864 -0.1017
  115OSM    C6S12014   5.851   5.525  10.070 -0.1176  0.1150 -0.2568
  115OSM    H6S12015   5.787   5.436  10.086  1.0390 -0.7424 -0.2734
  115OSM    H6T12016   5.953   5.493  10.040  0.2267  0.3636  0.6201
  115OSM    C7S12017   5.806   5.605   9.946 -0.1536  0.0375 -0.1183
  115OSM    H7S12018   5.883   5.685   9.946  1.7810 -1.6957  1.1259
  115OSM    H7T12019   5.704   5.644   9.961  0.5659  1.4806  1.3711
  115OSM    C8S12020   5.810   5.525   9.817  0.5344  0.7576 -0.9378
  115OSM    H8S12021   5.739   5.439   9.826  1.8567 -0.1785  1.9077
  115OSM    H8T12022   5.909   5.478   9.798 -0.0091 -0.0269 -1.9639
  115OSM    C9S12023   5.768   5.604   9.696  0.1721 -0.1644 -0.3268
  115OSM    H9S12024   5.825   5.699   9.683  0.4703  0.0585  2.0350
  115OSM    H9T12025   5.663   5.639   9.707  0.5318  0.1473  3.6785
  115OSM   C10S12026   5.779   5.525   9.564  0.1198  0.4588  0.0801
  115OSM   H10S12027   5.724   5.429   9.574  1.4556 -0.4731 -1.1848
  115OSM   H10T12028   5.885   5.518   9.533  0.2447 -0.6703  0.7032
  115OSM   C11S12029   5.700   5.603   9.450  0.0167  0.1795  0.2831
  115OSM   H11S12030   5.745   5.702   9.427 -1.2071  0.4588 -1.0733
  115OSM   H11T12031   5.595   5.621   9.483 -0.8888 -0.3969 -2.1141
  115OSM   C12S12032   5.688   5.529   9.321 -0.2340 -0.4667 -0.0938
  115OSM   H12S12033   5.622   5.579   9.247 -0.6264 -1.1605 -0.2211
  115OSM   H12T12034   5.626   5.438   9.339 -1.0083  0.2757  1.1736
  115OSM   C13S12035   5.828   5.497   9.256  0.6198 -0.1016 -0.0284
  115OSM   H13S12036   5.871   5.408   9.308 -0.5646 -0.8106 -0.2371
  115OSM   H13T12037   5.895   5.582   9.281 -1.7117  0.6082  4.8791
  115OSM   C14S12038   5.828   5.483   9.107 -0.2345 -0.4868 -0.0524
  115OSM   H14S12039   5.934   5.476   9.075  0.1820  1.3575  0.7574
  115OSM   H14T12040   5.781   5.573   9.062 -1.1526 -1.7124 -1.6354
  115OSM   C15S12041   5.739   5.371   9.054 -0.4743  0.5088 -0.2958
  115OSM   H15S12042   5.637   5.382   9.096  0.0386  2.1182  0.6087
  115OSM   H15T12043   5.772   5.273   9.095  0.4435  0.5469 -0.9208
  115OSM   C16S12044   5.727   5.366   8.905 -0.1174 -0.1363  0.7227
  115OSM   H16S12045   5.830   5.347   8.866 -0.0967  0.9222  0.2257
  115OSM   H16T12046   5.705   5.471   8.877 -0.6148 -0.2980  0.4949
  115OSM   C17S12047   5.631   5.263   8.855  0.2771 -0.0011  0.7068
  115OSM   H17S12048   5.531   5.277   8.901 -1.0411 -0.6330 -1.7899
  115OSM   H17T12049   5.669   5.162   8.884 -1.6403 -0.4860  1.7589
  115OSM   C18S12050   5.621   5.257   8.700 -0.4757 -0.2763 -0.2100
  115OSM   H18S12051   5.724   5.226   8.672 -0.2377  0.3067  0.0122
  115OSM   H18T12052   5.600   5.354   8.650  0.5289 -0.5864 -1.2848
  115OSM   H18U12053   5.546   5.176   8.683  0.0266 -0.9551  0.7056
  115OSM    C1F12054   6.238   5.673  10.478  0.6917  0.1674 -0.6153
  115OSM     OF12055   6.262   5.623  10.588  0.0425  0.1217  0.4377
  115OSM    C2F12056   6.344   5.721  10.388  0.6854  0.2849  0.0261
  115OSM    H2F12057   6.405   5.794  10.446  0.9197 -2.4369  3.5909
  115OSM    H2G12058   6.313   5.785  10.303 -1.0417  2.4176  2.1311
  115OSM    C3F12059   6.431   5.607  10.326  0.2525 -0.6028 -1.0968
  115OSM    H3F12060   6.486   5.561  10.411 -0.1787  0.7795 -0.0201
  115OSM    H3G12061   6.510   5.646  10.258 -1.2284 -0.4344 -2.7981
  115OSM    C4F12062   6.359   5.504  10.239  0.4186 -0.3508 -0.0183
  115OSM    H4F12063   6.259   5.473  10.275  0.4432  0.0536  0.3979
  115OSM    H4G12064   6.424   5.416  10.218 -0.2846 -0.6575 -1.0148
  115OSM    C5F12065   6.339   5.571  10.097  0.0988 -0.0672 -0.6528
  115OSM    H5F12066   6.429   5.628  10.063 -1.3078  2.3327 -0.5968
  115OSM    H5G12067   6.271   5.657  10.113  0.0320 -0.0397 -1.0606
  115OSM    C6F12068   6.288   5.466  10.002 -0.0928  0.4231 -0.8626
  115OSM    H6F12069   6.194   5.425  10.045 -0.8142  1.0346 -1.7957
  115OSM    H6G12070   6.368   5.391   9.984 -1.8284 -2.0750  1.1816
  115OSM    C7F12071   6.246   5.533   9.868  0.3762  0.8422  1.1274
  115OSM    H7F12072   6.327   5.600   9.831  2.8411 -1.9455  1.0954
  115OSM    H7G12073   6.154   5.595   9.873 -0.9217 -0.8430 -0.4619
  115OSM    C8F12074   6.208   5.420   9.755 -0.2139 -0.7179 -0.2988
  115OSM    H8F12075   6.132   5.472   9.694 -0.2520 -2.0706 -1.4498
  115OSM    H8G12076   6.142   5.339   9.794 -0.4009 -0.8130 -0.8101
  115OSM    C9F12077   6.329   5.372   9.688 -0.6113  0.6422  0.3626
  115OSM    H9F12078   6.402   5.307   9.738  0.0746  2.3082  1.6434
  115OSM   C10F12079   6.366   5.410   9.560 -0.2245  0.1117  0.3574
  115OSM   H10F12080   6.467   5.383   9.527 -0.3346 -0.2301  0.2971
  115OSM   C11F12081   6.290   5.498   9.460  0.2113  0.2754 -0.4229
  115OSM   H11F12082   6.330   5.602   9.455  1.8402 -0.1972  1.6347
  115OSM   H11G12083   6.198   5.524   9.517  0.0901  0.0019 -0.4940
  115OSM   C12F12084   6.255   5.429   9.331  0.9657  1.0076 -0.3956
  115OSM   H12F12085   6.168   5.483   9.288  1.7037  2.4000 -0.2069
  115OSM   H12G12086   6.241   5.322   9.356 -1.3092  1.6456  1.3803
  115OSM   C13F12087   6.372   5.436   9.231 -0.1882  0.2190  0.1738
  115OSM   H13F12088   6.396   5.328   9.220 -2.0000 -0.3048  1.0143
  115OSM   H13G12089   6.475   5.471   9.252  0.8170 -0.5794 -2.9660
  115OSM   C14F12090   6.331   5.481   9.091  0.4919 -0.4642 -0.3335
  115OSM   H14F12091   6.274   5.576   9.095  0.7039 -0.3349 -0.3665
  115OSM   H14G12092   6.267   5.397   9.056  0.0869 -0.4583  0.3773
  115OSM   C15F12093   6.449   5.506   9.005 -0.3111 -0.0489  0.9813
  115OSM   H15F12094   6.531   5.432   9.017  1.7888  2.0339  0.0582
  115OSM   H15G12095   6.489   5.607   9.027 -1.1126  1.2357 -2.8056
  115OSM   C16F12096   6.423   5.517   8.853  0.4779  0.7810  0.8061
  115OSM   H16F12097   6.521   5.531   8.803  0.4219  0.7999  0.6980
  115OSM   H16G12098   6.363   5.607   8.825  0.7521 -0.0301 -2.9954
  115OSM   C17F12099   6.362   5.390   8.798 -0.0402  0.6753 -0.2022
  115OSM   H17F12100   6.258   5.402   8.835  0.1725  1.6158  0.1250
  115OSM   H17G12101   6.409   5.302   8.847 -1.0274 -0.8582 -1.8745
  115OSM   C18F12102   6.347   5.371   8.646  0.2826 -0.7181 -0.4892
  115OSM   H18F12103   6.282   5.450   8.603 -0.4938 -1.6371 -1.0194
  115OSM   H18G12104   6.321   5.268   8.616  0.5993 -0.7189 -0.7700
  115OSM   H18H12105   6.448   5.386   8.600  0.5973 -1.2172  0.0268
  116OSM      N12106   0.909   2.207  10.959 -0.1446  0.0768 -0.4305
  116OSM    C1512107   0.934   2.299  10.847 -0.2165 -0.5567  0.8007
  116OSM   H15A12108   0.953   2.233  10.764 -2.1014  0.0879 -0.1821
  116OSM   H15B12109   1.023   2.360  10.856  0.2303 -1.4536  3.4208
  116OSM   H15C12110   0.848   2.360  10.826  0.1722 -0.3720 -0.2894
  116OSM    C1412111   0.789   2.124  10.933 -0.3176 -0.8200  0.2798
  116OSM   H14A12112   0.775   2.038  10.997  3.2247 -1.0062  0.9745
  116OSM   H14B12113   0.781   2.087  10.832 -1.7061  0.2748 -0.0457
  116OSM   H14C12114   0.699   2.183  10.930 -1.8398 -3.0278 -0.3534
  116OSM    C1312115   1.031   2.118  10.983  0.3982 -0.2395  0.4298
  116OSM   H13A12116   1.055   2.039  10.912  3.6261  0.8966  0.1023
  116OSM   H13B12117   1.004   2.063  11.073 -0.9620  0.5409  0.5149
  116OSM   H13C12118   1.120   2.174  11.006  0.6166 -1.1856  2.0854
  116OSM    C1212119   0.893   2.293  11.078  0.3359 -0.2888 -0.1100
  116OSM   H12A12120   0.903   2.236  11.169  0.7375  1.5240  1.0148
  116OSM   H12B12121   0.790   2.328  11.080  0.2064 -0.6274 -0.5514
  116OSM    C1112122   0.985   2.412  11.098  0.0475  0.4779  0.1499
  116OSM   H11A12123   0.971   2.456  11.199 -0.7439  2.0076 -0.5920
  116OSM   H11B12124   0.954   2.487  11.022  3.0206  1.9573  0.2639
  116OSM      P12125   1.230   2.496  11.062  0.1834 -0.0438 -0.2578
  116OSM    O1312126   1.223   2.612  11.153 -0.4212 -0.4488 -0.5456
  116OSM    O1412127   1.367   2.432  11.044  0.2413  0.4130  0.2274
  116OSM    O1112128   1.190   2.543  10.914  0.2869 -0.3407 -0.1079
  116OSM    O1212129   1.125   2.381  11.085  0.6667  0.3384 -0.2631
  116OSM    C1S12130   1.283   2.521  10.802 -0.7148  0.4319  0.2810
  116OSM    H1S12131   1.322   2.417  10.804  1.6246  1.2206 -0.7766
  116OSM    H1T12132   1.366   2.593  10.815  0.5690 -0.8205 -0.5379
  116OSM     NF12133   1.326   2.532  10.565  0.4858 -0.3155 -0.2663
  116OSM    HNF12134   1.369   2.614  10.528  0.1911 -0.2101 -0.3820
  116OSM    C2S12135   1.227   2.548  10.662 -0.2103  0.3042  0.7861
  116OSM    H2S12136   1.144   2.478  10.639  0.6233 -0.1533 -1.0120
  116OSM    C3S12137   1.159   2.695  10.664 -0.2846  0.6122 -0.3611
  116OSM    H3S12138   1.234   2.774  10.688  1.7947 -1.2409 -0.3799
  116OSM     O312139   1.057   2.703  10.765 -0.7198 -0.1451  0.0898
  116OSM    HO312140   1.080   2.632  10.826 -0.7017 -1.1207 -1.0256
  116OSM    C4S12141   1.106   2.727  10.524  0.2499  0.8185 -0.1851
  116OSM    H4S12142   1.039   2.655  10.475 -0.0727 -1.1291  2.8986
  116OSM    C5S12143   1.141   2.833  10.453  0.2724  0.2036  0.6243
  116OSM    H5S12144   1.198   2.914  10.501 -0.9495  1.0555  0.7065
  116OSM    C6S12145   1.092   2.870  10.323 -0.0217  0.1953  0.7212
  116OSM    H6S12146   1.106   2.979  10.309  1.0582  0.0484  0.5544
  116OSM    H6T12147   0.984   2.848  10.309  0.4906 -0.1726 -5.5295
  116OSM    C7S12148   1.177   2.786  10.221 -0.1391  0.4012 -0.4708
  116OSM    H7S12149   1.135   2.684  10.236 -0.4473  0.6624  0.4909
  116OSM    H7T12150   1.287   2.794  10.237 -0.2135  2.0956 -0.6112
  116OSM    C8S12151   1.161   2.835  10.080 -0.3999 -0.2383 -0.1780
  116OSM    H8S12152   1.178   2.944  10.070 -1.0769 -0.2561 -1.7398
  116OSM    H8T12153   1.058   2.812  10.046 -0.3835 -0.0671 -0.3383
  116OSM    C9S12154   1.246   2.747   9.982  0.2288  0.6009  0.1592
  116OSM    H9S12155   1.208   2.643   9.986 -0.2436  0.8115  2.1648
  116OSM    H9T12156   1.353   2.742  10.013 -0.5786  2.3230  3.7814
  116OSM   C10S12157   1.222   2.791   9.834  0.0333  0.4428  0.9985
  116OSM   H10S12158   1.270   2.890   9.847 -0.0123  0.2327  3.2732
  116OSM   H10T12159   1.114   2.807   9.813 -0.2962 -1.2078  1.3190
  116OSM   C11S12160   1.289   2.695   9.738 -0.2721  0.1135  0.4137
  116OSM   H11S12161   1.217   2.612   9.723 -0.4407  0.3663 -0.2592
  116OSM   H11T12162   1.384   2.658   9.783  1.0821  0.0093 -2.2739
  116OSM   C12S12163   1.314   2.752   9.596  0.0565  0.7409 -0.1414
  116OSM   H12S12164   1.369   2.675   9.537 -2.4144 -0.3575 -1.1535
  116OSM   H12T12165   1.381   2.839   9.611  3.4760 -1.6470 -0.4820
  116OSM   C13S12166   1.185   2.800   9.529 -0.2959  0.2309  0.0644
  116OSM   H13S12167   1.129   2.869   9.596 -0.0685 -0.2828  0.7971
  116OSM   H13T12168   1.113   2.718   9.510 -0.1537 -0.5449  2.4855
  116OSM   C14S12169   1.220   2.864   9.392 -0.5154  0.2560 -0.7608
  116OSM   H14S12170   1.266   2.782   9.334 -1.3374 -1.0261  0.3368
  116OSM   H14T12171   1.302   2.938   9.400  1.4962 -2.0182  1.1349
  116OSM   C15S12172   1.104   2.928   9.323 -0.2909 -0.3586 -0.1581
  116OSM   H15S12173   1.046   2.986   9.397  1.6513  1.6056 -0.0673
  116OSM   H15T12174   1.043   2.842   9.287  2.4617 -2.2274 -0.6950
  116OSM   C16S12175   1.127   3.028   9.206 -0.1043 -0.0593  0.2628
  116OSM   H16S12176   1.170   3.123   9.246 -0.5112  0.6566 -0.9509
  116OSM   H16T12177   1.027   3.033   9.157 -0.3216  2.3489  0.8157
  116OSM   C17S12178   1.223   2.974   9.102 -0.3420  0.4420  0.0497
  116OSM   H17S12179   1.203   2.867   9.080 -2.7451  0.9933 -0.7341
  116OSM   H17T12180   1.321   2.977   9.153  0.6154  2.7979 -1.7280
  116OSM   C18S12181   1.239   3.047   8.968  0.7288  0.1498 -0.4609
  116OSM   H18S12182   1.317   2.997   8.906 -0.5711 -1.5157 -0.8242
  116OSM   H18T12183   1.265   3.150   9.000  1.9423  0.1041 -1.2330
  116OSM   H18U12184   1.146   3.050   8.907  0.3869 -2.3470 -0.1549
  116OSM    C1F12185   1.366   2.413  10.526 -0.1936  0.4997  0.2199
  116OSM     OF12186   1.324   2.316  10.586  0.1033  0.8939  0.0138
  116OSM    C2F12187   1.457   2.403  10.413 -0.1728  0.2086 -0.1524
  116OSM    H2F12188   1.432   2.307  10.364  2.7517 -0.1400 -1.2104
  116OSM    H2G12189   1.564   2.386  10.438 -0.2309 -1.4238 -0.8627
  116OSM    C3F12190   1.433   2.507  10.309  0.2850  0.6171 -0.3143
  116OSM    H3F12191   1.457   2.603  10.359  4.6420  0.7678 -2.1805
  116OSM    H3G12192   1.327   2.517  10.280 -0.1579 -0.4114  0.8833
  116OSM    C4F12193   1.525   2.497  10.181  0.0297 -0.1360  0.1789
  116OSM    H4F12194   1.629   2.462  10.197 -0.0204 -1.2714 -1.5822
  116OSM    H4G12195   1.523   2.598  10.134  1.4301  0.2137  0.8160
  116OSM    C5F12196   1.470   2.388  10.089 -0.4888 -1.3286 -0.4435
  116OSM    H5F12197   1.361   2.406  10.077 -0.2916  0.7300  0.3033
  116OSM    H5G12198   1.482   2.289  10.137  1.1861 -0.0953  1.9215
  116OSM    C6F12199   1.550   2.395   9.962  0.3350 -0.3288 -0.0513
  116OSM    H6F12200   1.656   2.375   9.987 -0.3025 -0.0527  3.3084
  116OSM    H6G12201   1.545   2.499   9.923 -1.4844  0.0421  1.0528
  116OSM    C7F12202   1.510   2.288   9.860 -0.3132  0.4502 -0.6869
  116OSM    H7F12203   1.521   2.187   9.905  2.4775  1.3546  0.9740
  116OSM    H7G12204   1.590   2.287   9.783  2.3637 -1.3014  1.8735
  116OSM    C8F12205   1.372   2.307   9.796  0.2859  0.1851 -0.6358
  116OSM    H8F12206   1.352   2.414   9.774 -0.1891  0.5618  1.4086
  116OSM    H8G12207   1.302   2.280   9.879  0.4139 -0.5982 -0.7679
  116OSM    C9F12208   1.355   2.213   9.674  0.3061  0.1068 -0.6321
  116OSM    H9F12209   1.320   2.109   9.678 -0.3177  0.3143 -0.6997
  116OSM   C10F12210   1.377   2.258   9.547  0.7145 -0.1824 -0.2682
  116OSM   H10F12211   1.382   2.177   9.472  4.2580  0.6968 -1.1739
  116OSM   C11F12212   1.413   2.395   9.497 -0.4786  0.5545  0.0734
  116OSM   H11F12213   1.518   2.401   9.462 -1.0334  0.1132 -1.7687
  116OSM   H11G12214   1.388   2.472   9.574 -0.9623  0.6922 -0.2175
  116OSM   C12F12215   1.329   2.426   9.366 -0.3769 -0.2436 -0.1182
  116OSM   H12F12216   1.325   2.537   9.360  0.7565  0.4109  5.7356
  116OSM   H12G12217   1.228   2.381   9.375 -0.7840  0.0686 -2.3641
  116OSM   C13F12218   1.409   2.371   9.241 -0.3733 -0.2789  0.0966
  116OSM   H13F12219   1.431   2.263   9.257  1.3994 -0.0995 -0.9690
  116OSM   H13G12220   1.506   2.425   9.243 -0.6607  0.2376  0.1677
  116OSM   C14F12221   1.328   2.373   9.108 -0.0770 -0.0717  0.1197
  116OSM   H14F12222   1.223   2.343   9.127 -0.1201  0.5904  0.9963
  116OSM   H14G12223   1.365   2.308   9.025  0.0554 -0.2635  0.3294
  116OSM   C15F12224   1.314   2.510   9.036 -0.0211  0.2306 -0.7696
  116OSM   H15F12225   1.305   2.589   9.114  1.6229  1.2104 -1.5467
  116OSM   H15G12226   1.223   2.514   8.972  0.4255 -2.2168 -1.6863
  116OSM   C16F12227   1.432   2.532   8.936  0.0746 -0.1647 -0.4446
  116OSM   H16F12228   1.425   2.453   8.858 -0.7528 -1.6978  1.1115
  116OSM   H16G12229   1.525   2.513   8.994 -0.1437  0.8913  0.2833
  116OSM   C17F12230   1.455   2.675   8.886  0.1113  1.0124  0.3875
  116OSM   H17F12231   1.484   2.740   8.971  0.0885 -2.4378  3.2696
  116OSM   H17G12232   1.356   2.698   8.841  0.1529 -1.7402 -1.3518
  116OSM   C18F12233   1.559   2.680   8.769  0.0188  0.1854  0.5881
  116OSM   H18F12234   1.572   2.780   8.724 -0.0745 -0.6002 -1.3107
  116OSM   H18G12235   1.530   2.611   8.686 -1.4851 -1.0103  2.0412
  116OSM   H18H12236   1.654   2.636   8.807  0.5553 -0.6189 -1.5164
  117OSM      N12237   5.933   2.129  11.214  0.4566  0.5640 -0.1225
  117OSM    C1512238   5.821   2.237  11.206 -0.3526  0.6361  0.6938
  117OSM   H15A12239   5.746   2.214  11.132  1.0592  2.0809 -1.2976
  117OSM   H15B12240   5.866   2.328  11.168  1.4093 -0.2493  0.5556
  117OSM   H15C12241   5.783   2.257  11.305 -0.2928  1.1333  0.6172
  117OSM    C1412242   6.049   2.175  11.299  0.5949  0.5632  0.1967
  117OSM   H14A12243   6.113   2.096  11.335 -1.8203 -2.4041 -1.5067
  117OSM   H14B12244   6.006   2.218  11.388 -0.7668 -2.0740  0.9203
  117OSM   H14C12245   6.107   2.251  11.250 -1.5720  0.0166 -3.6344
  117OSM    C1312246   5.877   2.010  11.292 -0.2046  0.8154 -0.3433
  117OSM   H13A12247   5.868   2.037  11.396  0.0528  1.2142 -0.4216
  117OSM   H13B12248   5.933   1.918  11.283 -0.3769  0.6788 -0.0419
  117OSM   H13C12249   5.777   1.984  11.261 -1.0768 -3.1588  4.6065
  117OSM    C1212250   5.977   2.089  11.074  0.7165 -0.6950  0.0785
  117OSM   H12A12251   5.899   2.034  11.025  0.7328  1.9604 -3.2535
  117OSM   H12B12252   6.062   2.022  11.074  0.6448 -0.7910 -0.5376
  117OSM    C1112253   6.017   2.206  10.979 -0.3863  0.4829  0.4997
  117OSM   H11A12254   5.927   2.269  10.966 -1.0062 -0.0759  1.8403
  117OSM   H11B12255   6.042   2.160  10.881 -0.9486 -0.7919  0.9235
  117OSM      P12256   6.143   2.432  11.002 -0.0083 -0.1115 -0.3988
  117OSM    O1312257   6.049   2.517  11.079 -0.1611  0.8426 -0.6437
  117OSM    O1412258   6.284   2.466  11.011 -0.1375 -0.2688  0.4500
  117OSM    O1112259   6.108   2.435  10.850 -0.1260 -0.2709 -0.2254
  117OSM    O1212260   6.128   2.277  11.034 -0.4293 -0.4201  0.0096
  117OSM    C1S12261   6.203   2.374  10.754  0.3891  0.6838 -0.6477
  117OSM    H1S12262   6.219   2.264  10.758  1.1114  0.7405 -1.5863
  117OSM    H1T12263   6.301   2.426  10.765  0.0442  0.8649  2.4970
  117OSM     NF12264   6.281   2.403  10.513  0.0150  0.1803  1.1768
  117OSM    HNF12265   6.333   2.485  10.491 -1.6650  0.7677 -0.8905
  117OSM    C2S12266   6.171   2.416  10.602 -0.3022 -0.3672  0.5893
  117OSM    H2S12267   6.087   2.349  10.575 -1.7275  2.0579 -1.4620
  117OSM    C3S12268   6.112   2.569  10.601 -0.1654  0.4770  0.2748
  117OSM    H3S12269   6.190   2.631  10.650  0.0776  0.1855  0.2632
  117OSM     O312270   5.994   2.589  10.674 -0.4103 -0.0405  0.2847
  117OSM    HO312271   5.996   2.520  10.740  1.2874  0.3594  0.6933
  117OSM    C4S12272   6.093   2.611  10.460  0.3989 -0.6437 -1.0893
  117OSM    H4S12273   6.036   2.534  10.405  0.4137 -2.1039  0.8352
  117OSM    C5S12274   6.135   2.725  10.399 -0.3241 -0.1058 -0.1981
  117OSM    H5S12275   6.182   2.807  10.457  1.5128 -0.3633 -1.2423
  117OSM    C6S12276   6.125   2.747  10.250 -1.0508  0.3977  0.2205
  117OSM    H6S12277   6.209   2.813  10.222  1.3574 -2.7125 -0.4557
  117OSM    H6T12278   6.028   2.798  10.232 -0.4435  1.7840  0.7543
  117OSM    C7S12279   6.116   2.620  10.154 -0.2881  0.2264 -0.1388
  117OSM    H7S12280   6.024   2.562  10.179 -1.5756  2.6260  1.0110
  117OSM    H7T12281   6.204   2.559  10.183 -0.6626 -1.2401 -1.8657
  117OSM    C8S12282   6.109   2.652  10.006 -1.0821 -0.9282  0.4334
  117OSM    H8S12283   6.014   2.693   9.967 -0.4949 -0.2494 -0.3257
  117OSM    H8T12284   6.129   2.555   9.956 -3.1586 -1.0164 -0.3038
  117OSM    C9S12285   6.222   2.749   9.970  0.6412 -0.1343  0.3712
  117OSM    H9S12286   6.318   2.726  10.021  0.7060 -0.8939 -0.0835
  117OSM    H9T12287   6.180   2.848  10.000  0.7204 -0.8246  2.9337
  117OSM   C10S12288   6.244   2.755   9.817 -0.0366 -0.5594 -0.0955
  117OSM   H10S12289   6.146   2.781   9.770  1.2303  0.4651 -2.3658
  117OSM   H10T12290   6.281   2.656   9.784  1.9457  0.1666 -0.1724
  117OSM   C11S12291   6.347   2.863   9.776  0.3366 -0.5271 -0.5740
  117OSM   H11S12292   6.442   2.841   9.829  0.9812 -1.0636 -1.9060
  117OSM   H11T12293   6.316   2.964   9.808 -0.2452 -1.3568  1.6640
  117OSM   C12S12294   6.375   2.867   9.628  0.1980  0.3670 -0.6254
  117OSM   H12S12295   6.284   2.866   9.564 -0.0209 -1.5953 -0.3205
  117OSM   H12T12296   6.422   2.770   9.603 -0.1751  0.1502 -0.4931
  117OSM   C13S12297   6.478   2.974   9.583 -1.4321 -0.1798 -0.4699
  117OSM   H13S12298   6.579   2.953   9.626 -1.9313 -1.7573 -0.0150
  117OSM   H13T12299   6.446   3.072   9.624  1.5655  0.8935 -0.4339
  117OSM   C14S12300   6.503   2.993   9.437 -0.1050 -0.0073  0.8454
  117OSM   H14S12301   6.400   2.998   9.397  0.0520 -1.0008  0.2822
  117OSM   H14T12302   6.556   2.902   9.402 -0.1620 -0.2731  1.4420
  117OSM   C15S12303   6.584   3.113   9.397 -0.8256  0.2564 -0.4352
  117OSM   H15S12304   6.664   3.138   9.470 -0.6609 -1.4795  0.0261
  117OSM   H15T12305   6.522   3.205   9.386 -0.3043  0.5372 -1.0889
  117OSM   C16S12306   6.650   3.110   9.254 -0.9196  0.4018 -0.5316
  117OSM   H16S12307   6.560   3.102   9.189 -1.3569 -0.3841  0.1557
  117OSM   H16T12308   6.697   3.010   9.251 -1.9502 -0.2184  1.8411
  117OSM   C17S12309   6.742   3.224   9.225 -0.2985 -0.1846  0.6873
  117OSM   H17S12310   6.818   3.233   9.306 -0.5489 -0.9146  1.0141
  117OSM   H17T12311   6.677   3.314   9.229  0.6435  0.4894  2.9928
  117OSM   C18S12312   6.824   3.208   9.097 -0.5609  0.0239 -0.0904
  117OSM   H18S12313   6.849   3.312   9.069 -0.9862 -0.2621 -1.5973
  117OSM   H18T12314   6.758   3.159   9.022  0.3991  0.1353 -1.0396
  117OSM   H18U12315   6.919   3.155   9.121  0.6374  2.4735  0.8866
  117OSM    C1F12316   6.333   2.285  10.477 -0.1436 -0.1626 -0.5796
  117OSM     OF12317   6.271   2.184  10.516  0.2551 -0.1164  0.1720
  117OSM    C2F12318   6.466   2.285  10.392  0.4740  0.2146 -0.7688
  117OSM    H2F12319   6.540   2.340  10.454 -0.3437  1.3048 -0.7335
  117OSM    H2G12320   6.449   2.335  10.295 -0.6485 -0.2158 -0.8030
  117OSM    C3F12321   6.520   2.138  10.365  0.0982 -0.8373  0.3275
  117OSM    H3F12322   6.448   2.076  10.307 -1.4937  0.9975  0.2353
  117OSM    H3G12323   6.533   2.090  10.464  0.9523  0.3152  0.7981
  117OSM    C4F12324   6.657   2.140  10.288 -0.0365  1.6019 -0.0416
  117OSM    H4F12325   6.684   2.033  10.273 -0.9772  1.3400  0.0111
  117OSM    H4G12326   6.726   2.194  10.355 -2.5959  5.2067 -0.0297
  117OSM    C5F12327   6.656   2.213  10.156  0.6202  0.3019 -0.4823
  117OSM    H5F12328   6.757   2.197  10.114  0.5908  0.6385 -0.6792
  117OSM    H5G12329   6.644   2.320  10.180  2.7765  0.5174 -0.1158
  117OSM    C6F12330   6.558   2.161  10.044  0.1107 -0.2558 -0.5941
  117OSM    H6F12331   6.479   2.091  10.081  0.6191  0.3130  1.7137
  117OSM    H6G12332   6.634   2.118   9.976  2.4340  1.7813  0.5504
  117OSM    C7F12333   6.480   2.272   9.977  0.0200 -0.3612 -0.1291
  117OSM    H7F12334   6.553   2.338   9.925  2.7027 -2.7747  0.3251
  117OSM    H7G12335   6.426   2.335  10.051 -0.1049  2.0607 -2.1390
  117OSM    C8F12336   6.365   2.226   9.886 -0.0065  0.3144  0.8647
  117OSM    H8F12337   6.280   2.180   9.941 -0.9023  1.0824  0.1584
  117OSM    H8G12338   6.411   2.142   9.828  4.9484  1.7122  2.2490
  117OSM    C9F12339   6.320   2.342   9.800  0.5200  0.0759  0.8163
  117OSM    H9F12340   6.232   2.400   9.831 -0.1200 -0.8356  0.7584
  117OSM   C10F12341   6.389   2.396   9.700 -0.0523  0.7182  0.3344
  117OSM   H10F12342   6.343   2.468   9.631  0.4070 -1.2926 -2.2663
  117OSM   C11F12343   6.524   2.348   9.651  0.2462 -0.1889  0.3349
  117OSM   H11F12344   6.590   2.328   9.738  1.7857  2.9915  0.0455
  117OSM   H11G12345   6.581   2.429   9.601 -0.5450 -0.7429 -1.5531
  117OSM   C12F12346   6.521   2.227   9.556  0.0928  0.4141  0.5647
  117OSM   H12F12347   6.497   2.136   9.615  0.8997  0.0440  0.3401
  117OSM   H12G12348   6.620   2.210   9.509 -0.4210  0.5431 -0.6018
  117OSM   C13F12349   6.426   2.239   9.434 -0.3256 -0.6012  0.1519
  117OSM   H13F12350   6.321   2.228   9.469 -0.2227 -3.6854 -0.2357
  117OSM   H13G12351   6.441   2.152   9.367 -1.2426  0.1129 -1.0243
  117OSM   C14F12352   6.447   2.363   9.348 -0.1124 -0.4284 -0.7864
  117OSM   H14F12353   6.549   2.364   9.304  0.0717  0.4143 -0.3634
  117OSM   H14G12354   6.442   2.452   9.414  0.6657 -1.2534  0.4280
  117OSM   C15F12355   6.348   2.370   9.237 -0.2885  0.6148  0.1694
  117OSM   H15F12356   6.242   2.360   9.270 -0.1487 -1.2729  0.1284
  117OSM   H15G12357   6.362   2.281   9.172  0.2016  0.1006  0.9664
  117OSM   C16F12358   6.355   2.493   9.141  0.5032  0.4038  0.3335
  117OSM   H16F12359   6.272   2.489   9.068  1.7782 -0.7425 -1.1121
  117OSM   H16G12360   6.443   2.477   9.076 -0.1221 -1.2609 -0.1533
  117OSM   C17F12361   6.363   2.630   9.209  0.1526 -0.0778  0.4713
  117OSM   H17F12362   6.387   2.699   9.125  0.0413 -1.4889 -0.7478
  117OSM   H17G12363   6.458   2.630   9.267  0.1456 -0.4134  0.4838
  117OSM   C18F12364   6.246   2.682   9.289  0.7126  0.5549  0.3523
  117OSM   H18F12365   6.280   2.738   9.378  0.2444 -1.3258  1.7722
  117OSM   H18G12366   6.188   2.609   9.349  1.4278  1.4477  2.1810
  117OSM   H18H12367   6.196   2.748   9.214  1.9121 -2.6034 -3.5831
  118OSM      N12368   6.248   2.861  11.032  0.6991 -0.3043 -0.2333
  118OSM    C1512369   6.244   2.754  11.139  0.0421 -0.2238 -0.5001
  118OSM   H15A12370   6.256   2.794  11.239  0.8268  2.0743 -1.4479
  118OSM   H15B12371   6.310   2.673  11.112  0.8062  0.6394 -1.2905
  118OSM   H15C12372   6.147   2.708  11.133  0.1285 -0.2437 -2.3805
  118OSM    C1412373   6.219   2.784  10.907  0.4714  0.4288  0.1672
  118OSM   H14A12374   6.300   2.722  10.873 -0.3359 -0.2028 -0.6430
  118OSM   H14B12375   6.196   2.854  10.829 -0.0793  1.5680  1.3156
  118OSM   H14C12376   6.139   2.716  10.932 -0.0511  1.2169  0.6675
  118OSM    C1312377   6.134   2.950  11.045  1.3892  0.0632 -0.5061
  118OSM   H13A12378   6.045   2.904  11.085  1.4914  0.3273  0.0307
  118OSM   H13B12379   6.099   3.010  10.963 -2.1459 -1.4267 -0.2474
  118OSM   H13C12380   6.158   3.023  11.121 -0.7691 -0.0151  0.3114
  118OSM    C1212381   6.386   2.934  11.035 -0.6866 -0.8100 -0.4019
  118OSM   H12A12382   6.388   3.013  10.962  0.0963  1.3405  1.8228
  118OSM   H12B12383   6.460   2.863  11.002 -0.4598 -1.4414  1.3407
  118OSM    C1112384   6.431   3.009  11.168  0.1372 -0.2834  0.6290
  118OSM   H11A12385   6.517   3.071  11.137 -0.4616  2.0944  3.3736
  118OSM   H11B12386   6.463   2.928  11.237  0.0059 -1.2167 -0.3712
  118OSM      P12387   6.345   3.251  11.206 -0.1643 -0.2200 -0.2114
  118OSM    O1312388   6.240   3.328  11.279 -0.7999  0.5178  0.8018
  118OSM    O1412389   6.483   3.282  11.247  0.3906 -0.3031 -0.4216
  118OSM    O1112390   6.323   3.282  11.052  0.3337 -0.5720 -0.4023
  118OSM    O1212391   6.326   3.100  11.223  0.5769  0.1897 -0.0279
  118OSM    C1S12392   6.354   3.415  10.995  0.6545  0.3580  0.3728
  118OSM    H1S12393   6.462   3.440  11.001  0.8222  0.9306 -3.2030
  118OSM    H1T12394   6.294   3.493  11.046  0.4840  0.6724 -0.2987
  118OSM     NF12395   6.314   3.562  10.796  0.4643  0.5211 -0.0734
  118OSM    HNF12396   6.229   3.591  10.753  0.7755  2.9321  0.7824
  118OSM    C2S12397   6.327   3.425  10.843 -0.4362  1.3817 -0.2246
  118OSM    H2S12398   6.412   3.378  10.788  0.3990  3.8467 -1.2387
  118OSM    C3S12399   6.195   3.347  10.799  0.4694  0.8980 -0.1190
  118OSM    H3S12400   6.107   3.390  10.852  1.5806  2.6035  0.4594
  118OSM     O312401   6.208   3.206  10.829 -0.0242  0.7824  0.8823
  118OSM    HO312402   6.261   3.202  10.909  0.3474 -1.7867  0.5964
  118OSM    C4S12403   6.174   3.352  10.647 -0.6674 -0.5404 -0.0903
  118OSM    H4S12404   6.249   3.305  10.582 -2.2044  0.3546 -2.6677
  118OSM    C5S12405   6.072   3.422  10.582 -0.4947 -0.4447 -0.5379
  118OSM    H5S12406   5.986   3.460  10.638  1.1300  0.4862  1.4420
  118OSM    C6S12407   6.046   3.446  10.436  0.6730  0.2592  0.0152
  118OSM    H6S12408   6.014   3.551  10.418 -1.3092 -0.0322  1.4558
  118OSM    H6T12409   5.952   3.391  10.414  0.2048  0.5155  1.3070
  118OSM    C7S12410   6.151   3.386  10.340 -0.1722  0.0546 -0.0818
  118OSM    H7S12411   6.171   3.278  10.353 -2.8194 -0.3652  1.0932
  118OSM    H7T12412   6.245   3.445  10.345 -0.1527 -0.0633  1.5140
  118OSM    C8S12413   6.096   3.404  10.197 -0.2239 -0.9319 -0.5993
  118OSM    H8S12414   6.091   3.514  10.177 -0.2314 -0.8029  0.1056
  118OSM    H8T12415   5.992   3.367  10.198  0.1704 -2.0599  0.2349
  118OSM    C9S12416   6.162   3.319  10.084  0.4507 -0.6258 -0.3312
  118OSM    H9S12417   6.136   3.212  10.099 -2.1615 -0.2264 -1.4156
  118OSM    H9T12418   6.271   3.335  10.096  0.6194 -0.3816 -1.9565
  118OSM   C10S12419   6.128   3.368   9.944 -0.4814 -0.5294  0.4010
  118OSM   H10S12420   6.146   3.477   9.931  0.3795 -0.8772 -1.6855
  118OSM   H10T12421   6.020   3.344   9.939  0.0515 -3.5033  0.9610
  118OSM   C11S12422   6.206   3.293   9.840  0.3479  0.3712  0.2573
  118OSM   H11S12423   6.207   3.182   9.844 -0.2135  0.3112 -0.8359
  118OSM   H11T12424   6.310   3.333   9.844  0.3292  0.2847  2.6432
  118OSM   C12S12425   6.140   3.322   9.701 -0.5021 -0.3118 -0.3637
  118OSM   H12S12426   6.032   3.296   9.702 -1.1991  2.2116 -1.9129
  118OSM   H12T12427   6.189   3.253   9.629 -2.4362  1.2006 -3.3136
  118OSM   C13S12428   6.167   3.459   9.642  0.0968  0.2671 -0.6626
  118OSM   H13S12429   6.268   3.489   9.678 -0.2458  1.5108 -0.7234
  118OSM   H13T12430   6.099   3.531   9.693 -0.0541  1.9928 -3.1784
  118OSM   C14S12431   6.161   3.457   9.493  0.4496  0.3946  0.0056
  118OSM   H14S12432   6.072   3.400   9.458  0.2752  0.5987  0.1178
  118OSM   H14T12433   6.250   3.393   9.472 -0.9828 -1.8833  0.4702
  118OSM   C15S12434   6.189   3.588   9.418  0.5324 -0.1763 -0.2855
  118OSM   H15S12435   6.272   3.633   9.476  0.4061 -1.1933  0.7127
  118OSM   H15T12436   6.109   3.665   9.416  1.9089  1.3560  0.3205
  118OSM   C16S12437   6.215   3.562   9.265  0.6198  0.2494 -0.2511
  118OSM   H16S12438   6.138   3.492   9.226  0.5472  1.0609 -1.6563
  118OSM   H16T12439   6.310   3.504   9.260  1.3046  0.9711  2.5089
  118OSM   C17S12440   6.220   3.690   9.184 -0.0934  0.3960 -0.3429
  118OSM   H17S12441   6.302   3.752   9.226  0.7323 -0.7174 -0.2994
  118OSM   H17T12442   6.127   3.747   9.208  1.3423  2.5127  0.5716
  118OSM   C18S12443   6.230   3.684   9.029  0.7188 -0.1141  0.0575
  118OSM   H18S12444   6.187   3.766   8.969 -0.9087  0.5022  1.9460
  118OSM   H18T12445   6.168   3.598   8.996  3.0422 -2.9614  2.5069
  118OSM   H18U12446   6.333   3.654   9.000  0.3314 -1.0804 -0.3867
  118OSM    C1F12447   6.413   3.651  10.805 -0.7146  0.1460 -0.0825
  118OSM     OF12448   6.528   3.622  10.837  0.0252 -0.6191  0.3395
  118OSM    C2F12449   6.382   3.790  10.754 -0.4603  0.8280 -0.2264
  118OSM    H2F12450   6.386   3.860  10.840 -0.8233 -0.6532  1.0518
  118OSM    H2G12451   6.281   3.786  10.706  0.3523 -1.3591 -1.9645
  118OSM    C3F12452   6.489   3.844  10.658  0.0055 -0.2769 -0.2575
  118OSM    H3F12453   6.578   3.861  10.723 -0.4201  0.3727  0.1708
  118OSM    H3G12454   6.455   3.947  10.635  0.4607 -0.2804 -0.9650
  118OSM    C4F12455   6.508   3.768  10.527 -0.1145 -0.7891 -0.3693
  118OSM    H4F12456   6.548   3.667  10.550 -0.2425 -1.0086 -1.0755
  118OSM    H4G12457   6.593   3.807  10.467 -1.1339  2.3419  0.0018
  118OSM    C5F12458   6.380   3.752  10.447 -0.4939  0.9043  0.1273
  118OSM    H5F12459   6.335   3.851  10.425 -2.4344  0.0399  0.0227
  118OSM    H5G12460   6.311   3.683  10.500  1.6319 -3.6282 -2.3780
  118OSM    C6F12461   6.415   3.679  10.316 -0.0383  0.5915 -0.2500
  118OSM    H6F12462   6.324   3.630  10.276  0.0915 -0.6696  0.9256
  118OSM    H6G12463   6.489   3.597  10.331 -3.5959 -3.1728 -1.3626
  118OSM    C7F12464   6.469   3.775  10.214 -0.5363 -0.3893  0.0148
  118OSM    H7F12465   6.564   3.823  10.246 -1.2051 -0.1062  1.6591
  118OSM    H7G12466   6.397   3.859  10.207  1.5668  1.7166  1.8095
  118OSM    C8F12467   6.485   3.716  10.066  0.3866 -0.0163  0.0424
  118OSM    H8F12468   6.387   3.680  10.028  0.1000 -0.8201  1.4699
  118OSM    H8G12469   6.539   3.620  10.076 -1.7501 -1.2866  0.0558
  118OSM    C9F12470   6.549   3.825   9.983 -0.0104  0.0881  0.9632
  118OSM    H9F12471   6.657   3.832   9.999  0.0056 -0.2200  1.0097
  118OSM   C10F12472   6.507   3.895   9.878 -0.6152  0.2954  0.3095
  118OSM   H10F12473   6.570   3.962   9.818 -0.5186  0.8518  1.0218
  118OSM   C11F12474   6.365   3.888   9.820 -0.7247 -0.0227 -0.3326
  118OSM   H11F12475   6.316   3.988   9.817 -0.7908 -0.0450 -3.2592
  118OSM   H11G12476   6.297   3.822   9.878 -0.5674  0.9959  1.0548
  118OSM   C12F12477   6.369   3.840   9.675 -0.5295 -0.1070  0.5443
  118OSM   H12F12478   6.295   3.759   9.655 -1.3241 -0.3465  3.8250
  118OSM   H12G12479   6.466   3.788   9.659  0.5867  1.3174  2.2821
  118OSM   C13F12480   6.355   3.963   9.577  0.2002 -0.1280  0.5232
  118OSM   H13F12481   6.448   4.022   9.595  0.0032 -0.3152  2.2907
  118OSM   H13G12482   6.266   4.022   9.609 -1.3387  0.7268 -4.4739
  118OSM   C14F12483   6.353   3.941   9.427  0.4300 -0.0009  0.0103
  118OSM   H14F12484   6.280   3.860   9.403 -0.7007  1.6089 -2.3307
  118OSM   H14G12485   6.450   3.907   9.386 -0.7180 -0.3714 -2.6048
  118OSM   C15F12486   6.337   4.079   9.361  0.4748  0.1254 -0.2321
  118OSM   H15F12487   6.428   4.139   9.383 -1.7327  3.8185 -0.1815
  118OSM   H15G12488   6.243   4.125   9.400  1.5256  0.9395  1.4475
  118OSM   C16F12489   6.318   4.065   9.202 -0.4941  0.5478 -0.4873
  118OSM   H16F12490   6.294   4.171   9.176 -1.0919  0.8029  0.9803
  118OSM   H16G12491   6.231   4.001   9.176  1.6203 -4.1392  2.5545
  118OSM   C17F12492   6.456   4.021   9.148  0.0709 -0.4221 -0.1279
  118OSM   H17F12493   6.465   3.911   9.155  0.9192 -0.2491  2.6078
  118OSM   H17G12494   6.541   4.075   9.195 -0.5124  1.2754 -0.9371
  118OSM   C18F12495   6.474   4.065   8.998  0.2315  0.1942 -0.3296
  118OSM   H18F12496   6.403   4.016   8.928 -0.2200  0.9566 -0.4146
  118OSM   H18G12497   6.578   4.073   8.961  0.1988 -0.6815 -0.6328
  118OSM   H18H12498   6.464   4.175   8.997 -3.1866  0.0148  0.5613
  119OSM      N12499   0.456   2.945  11.005 -0.5168  0.3555 -0.7528
  119OSM    C1512500   0.329   3.002  10.938  0.0371  1.0900  0.0770
  119OSM   H15A12501   0.264   3.047  11.011  3.2021 -0.3156  4.1154
  119OSM   H15B12502   0.273   2.923  10.889  1.7032 -0.9585  1.2910
  119OSM   H15C12503   0.350   3.078  10.864  1.1339  0.2115 -0.5437
  119OSM    C1412504   0.528   3.067  11.062 -0.6549 -0.1140 -0.3573
  119OSM   H14A12505   0.616   3.043  11.119 -0.2018 -2.7602 -2.0159
  119OSM   H14B12506   0.453   3.110  11.127  2.1793  0.6886  2.6055
  119OSM   H14C12507   0.556   3.146  10.993 -1.0280  2.1827  1.9798
  119OSM    C1312508   0.424   2.856  11.116  0.2738 -0.4199  0.0971
  119OSM   H13A12509   0.394   2.759  11.080 -2.6149  0.0753  0.8788
  119OSM   H13B12510   0.335   2.890  11.167  1.8525  0.2532  2.5942
  119OSM   H13C12511   0.509   2.840  11.180  1.3797 -1.4216 -1.5555
  119OSM    C1212512   0.550   2.876  10.897  0.9912 -0.1429 -0.4197
  119OSM   H12A12513   0.644   2.853  10.945  1.3832  0.1410 -1.0376
  119OSM   H12B12514   0.572   2.944  10.816  0.0519 -0.7525 -1.2089
  119OSM    C1112515   0.497   2.747  10.832  0.6444 -0.6709  1.2538
  119OSM   H11A12516   0.552   2.731  10.736 -2.6861 -1.0599 -0.7542
  119OSM   H11B12517   0.392   2.765  10.799  1.4466 -0.5752 -1.5747
  119OSM      P12518   0.645   2.572  10.951 -0.1241 -0.4275  0.1460
  119OSM    O1312519   0.728   2.683  11.000 -0.5353 -0.0002  0.0896
  119OSM    O1412520   0.624   2.465  11.051  0.4887 -0.3237 -0.2541
  119OSM    O1112521   0.706   2.517  10.811  0.0935 -0.3732  0.3845
  119OSM    O1212522   0.502   2.633  10.915 -0.0434  0.1114  0.3297
  119OSM    C1S12523   0.635   2.421  10.733  0.7181  0.1249  0.2140
  119OSM    H1S12524   0.529   2.405  10.761  0.2483  0.5942 -1.2147
  119OSM    H1T12525   0.686   2.322  10.741  0.7226 -0.1541 -2.3617
  119OSM     NF12526   0.624   2.332  10.500 -0.5809  0.4460 -0.7831
  119OSM    HNF12527   0.706   2.284  10.469 -0.9716 -2.3038  1.9834
  119OSM    C2S12528   0.638   2.455  10.580  0.0844  0.4156  0.1151
  119OSM    H2S12529   0.552   2.524  10.565  0.1284  0.6021  0.7066
  119OSM    C3S12530   0.768   2.530  10.536 -0.1954  0.0945  0.2095
  119OSM    H3S12531   0.857   2.467  10.555  0.2246  0.7188  0.3208
  119OSM     O312532   0.790   2.656  10.608  0.5171 -0.2402 -0.1139
  119OSM    HO312533   0.749   2.649  10.695  0.3578 -0.7779 -0.2302
  119OSM    C4S12534   0.775   2.562  10.392 -0.4361 -0.7952 -0.2673
  119OSM    H4S12535   0.829   2.483  10.339  1.9925  0.8242 -0.4026
  119OSM    C5S12536   0.710   2.661  10.332  0.0865  0.3871 -0.1542
  119OSM    H5S12537   0.647   2.731  10.388 -0.9534 -0.1090 -0.6624
  119OSM    C6S12538   0.722   2.699  10.182  0.5687 -0.4208 -0.1335
  119OSM    H6S12539   0.728   2.809  10.170 -0.2942 -0.2089  1.1398
  119OSM    H6T12540   0.622   2.667  10.144  0.4966 -0.3955  0.0326
  119OSM    C7S12541   0.826   2.630  10.085  0.1657 -0.3533  0.0528
  119OSM    H7S12542   0.819   2.520  10.096  1.8180 -0.5861 -0.9242
  119OSM    H7T12543   0.925   2.651  10.131 -0.0744 -0.2296  0.5224
  119OSM    C8S12544   0.816   2.673   9.937  0.2805 -0.3479 -0.2499
  119OSM    H8S12545   0.838   2.781   9.921  1.1369 -0.6985 -1.6216
  119OSM    H8T12546   0.709   2.663   9.911 -0.4524 -0.2736  2.4090
  119OSM    C9S12547   0.879   2.579   9.844  0.8668 -0.6240 -0.8026
  119OSM    H9S12548   0.859   2.475   9.879 -0.4701 -0.3946 -0.8336
  119OSM    H9T12549   0.988   2.601   9.850  0.5329  1.0017 -0.0519
  119OSM   C10S12550   0.831   2.597   9.699 -0.3635  0.2577 -0.3926
  119OSM   H10S12551   0.851   2.704   9.678 -0.9701  0.4900  0.2014
  119OSM   H10T12552   0.720   2.591   9.700 -0.3585  0.2193 -0.0936
  119OSM   C11S12553   0.883   2.497   9.590 -0.1044 -0.3415 -0.6081
  119OSM   H11S12554   0.855   2.393   9.615 -3.2826  0.9503  2.0365
  119OSM   H11T12555   0.994   2.510   9.588 -0.3055  1.6774 -1.3869
  119OSM   C12S12556   0.818   2.523   9.453  0.0496  0.6896 -0.7684
  119OSM   H12S12557   0.877   2.606   9.409  1.4715  0.7101  1.0661
  119OSM   H12T12558   0.711   2.551   9.453 -0.4759 -0.9084 -3.4718
  119OSM   C13S12559   0.827   2.395   9.364 -0.0007 -0.1449  0.0034
  119OSM   H13S12560   0.750   2.327   9.408  0.9093  0.2361  2.3411
  119OSM   H13T12561   0.931   2.359   9.371  0.6450  1.9238  2.4657
  119OSM   C14S12562   0.799   2.419   9.216 -0.2208 -0.0807  0.4814
  119OSM   H14S12563   0.819   2.324   9.163  0.4121  1.0412 -1.3847
  119OSM   H14T12564   0.871   2.493   9.174 -0.1531  0.0299  0.7863
  119OSM   C15S12565   0.653   2.455   9.176  0.0813  0.3835 -0.3203
  119OSM   H15S12566   0.626   2.550   9.227 -2.7255 -0.2047 -0.5499
  119OSM   H15T12567   0.572   2.381   9.194 -1.1558  1.4592 -1.2037
  119OSM   C16S12568   0.636   2.498   9.029 -0.1946 -0.1601 -0.7749
  119OSM   H16S12569   0.674   2.410   8.973 -1.3326  0.2142 -2.1885
  119OSM   H16T12570   0.699   2.586   9.004  1.7314 -1.3723 -0.4282
  119OSM   C17S12571   0.487   2.510   8.997  0.2066  0.3640  0.5293
  119OSM   H17S12572   0.446   2.599   9.049  0.4849  0.4773  0.5530
  119OSM   H17T12573   0.429   2.421   9.030 -0.4138  0.1861 -0.9406
  119OSM   C18S12574   0.444   2.540   8.852 -0.1034  0.3308 -0.1116
  119OSM   H18S12575   0.515   2.613   8.807 -1.4382  0.8970 -1.3847
  119OSM   H18T12576   0.342   2.583   8.851 -0.0956  0.3772 -1.3645
  119OSM   H18U12577   0.442   2.450   8.787 -0.5610  0.4023 -0.1948
  119OSM    C1F12578   0.507   2.261  10.495 -0.1098  0.5798 -0.2034
  119OSM     OF12579   0.415   2.281  10.575 -0.4535 -0.4192  0.1407
  119OSM    C2F12580   0.509   2.152  10.399 -0.5394  0.0738  0.2110
  119OSM    H2F12581   0.505   2.061  10.463 -0.2271  0.6450  1.0593
  119OSM    H2G12582   0.600   2.151  10.336  0.3847 -0.4686  1.5094
  119OSM    C3F12583   0.378   2.173  10.313  0.3469 -0.5357  0.0959
  119OSM    H3F12584   0.290   2.154  10.377  0.2353  0.4581  0.2409
  119OSM    H3G12585   0.379   2.087  10.242  2.6915 -1.5459  1.2140
  119OSM    C4F12586   0.372   2.306  10.245 -0.5060 -0.6337 -0.0583
  119OSM    H4F12587   0.387   2.394  10.311  1.5950  2.1771 -3.8813
  119OSM    H4G12588   0.269   2.308  10.202 -1.0907 -1.0508  1.2652
  119OSM    C5F12589   0.470   2.341  10.135 -0.3456 -0.0025  0.1927
  119OSM    H5F12590   0.573   2.314  10.169 -0.7929 -2.6250 -0.3621
  119OSM    H5G12591   0.462   2.450  10.112  0.3904  0.0218  0.0107
  119OSM    C6F12592   0.460   2.278  10.003 -0.2660  0.1175  0.0467
  119OSM    H6F12593   0.458   2.170  10.028 -3.8048 -0.5469 -2.4126
  119OSM    H6G12594   0.545   2.311   9.940  0.8296  1.4846  2.1226
  119OSM    C7F12595   0.324   2.298   9.944 -0.4273  0.0989 -0.3496
  119OSM    H7F12596   0.312   2.408   9.960  0.7771 -0.1375  3.2027
  119OSM    H7G12597   0.247   2.232   9.990 -3.4517  1.5206 -2.9881
  119OSM    C8F12598   0.326   2.286   9.796  0.5545 -0.3221  1.0347
  119OSM    H8F12599   0.339   2.178   9.774 -3.9533 -1.2189  1.8688
  119OSM    H8G12600   0.416   2.336   9.755  0.9588 -1.0313  1.0514
  119OSM    C9F12601   0.200   2.334   9.721 -0.7667 -0.1284 -0.8016
  119OSM    H9F12602   0.112   2.339   9.787  0.7984 -0.5294  1.4201
  119OSM   C10F12603   0.190   2.393   9.604 -0.8723 -0.0770  0.1296
  119OSM   H10F12604   0.092   2.422   9.565 -1.5143 -2.2191 -0.0026
  119OSM   C11F12605   0.296   2.388   9.502 -0.0639 -0.1100 -0.2660
  119OSM   H11F12606   0.367   2.305   9.519 -2.4542 -2.6244 -1.6462
  119OSM   H11G12607   0.348   2.486   9.499 -0.5137  0.1264 -0.5268
  119OSM   C12F12608   0.246   2.373   9.353  0.2912  0.3379 -0.1546
  119OSM   H12F12609   0.213   2.270   9.327  1.2615  0.6274 -2.9319
  119OSM   H12G12610   0.343   2.390   9.303  0.4067 -0.2052 -0.1193
  119OSM   C13F12611   0.142   2.473   9.304 -0.1227  0.4786  0.5785
  119OSM   H13F12612   0.166   2.563   9.365  2.3813 -0.0326  0.4727
  119OSM   H13G12613   0.045   2.430   9.336  0.0532 -1.1490 -0.9003
  119OSM   C14F12614   0.142   2.502   9.153 -0.1115 -0.1753  1.1571
  119OSM   H14F12615   0.146   2.407   9.096 -0.4180  0.3705  0.1961
  119OSM   H14G12616   0.231   2.564   9.129  0.6713 -1.3081  1.0571
  119OSM   C15F12617   0.022   2.573   9.100  0.2736 -0.5131  0.2256
  119OSM   H15F12618   0.000   2.665   9.158 -0.6679  0.2878 -1.3430
  119OSM   H15G12619  -0.072   2.514   9.101 -0.1782  0.0387 -2.4237
  119OSM   C16F12620   0.028   2.602   8.951 -0.3274  0.0772  0.1352
  119OSM   H16F12621   0.029   2.511   8.887 -2.5622  0.7717 -1.0138
  119OSM   H16G12622   0.129   2.645   8.941 -1.2682  3.9009  4.0350
  119OSM   C17F12623  -0.091   2.684   8.897  0.3118 -0.0620  0.4765
  119OSM   H17F12624  -0.184   2.626   8.915  0.7585 -0.8093  0.4650
  119OSM   H17G12625  -0.070   2.696   8.788  0.7175 -0.8473  0.4565
  119OSM   C18F12626  -0.101   2.819   8.962 -0.1543 -0.0169 -0.7305
  119OSM   H18F12627  -0.134   2.797   9.066  1.8479  0.9857  0.1726
  119OSM   H18G12628  -0.178   2.887   8.920  1.1615  0.6819 -2.0689
  119OSM   H18H12629  -0.003   2.870   8.958  0.4132 -1.1534 -2.0919
  120OSM      N12630   1.280   6.316  10.763 -0.1783  0.6758 -0.4974
  120OSM    C1512631   1.175   6.310  10.866  0.0949 -0.3794  0.3319
  120OSM   H15A12632   1.208   6.281  10.964 -0.9538  0.0384  0.8264
  120OSM   H15B12633   1.106   6.232  10.835 -0.9018  0.8965 -0.7770
  120OSM   H15C12634   1.129   6.407  10.880  0.0554 -0.0324 -1.8703
  120OSM    C1412635   1.374   6.432  10.792 -0.0246 -0.2880  0.1649
  120OSM   H14A12636   1.437   6.410  10.877  0.3385 -1.5671 -0.4205
  120OSM   H14B12637   1.320   6.524  10.808  2.0382  0.4796  3.8412
  120OSM   H14C12638   1.442   6.444  10.709 -1.1176 -0.4395 -0.7622
  120OSM    C1312639   1.362   6.194  10.780 -0.1498  0.6570  0.8837
  120OSM   H13A12640   1.452   6.206  10.722 -0.8008 -2.9676 -1.1410
  120OSM   H13B12641   1.303   6.115  10.736  2.9491 -0.8194 -0.9944
  120OSM   H13C12642   1.376   6.171  10.885  0.9089  0.7184  0.7660
  120OSM    C1212643   1.224   6.332  10.625 -0.0428 -0.3144 -0.5964
  120OSM   H12A12644   1.145   6.261  10.609  0.7217 -1.2412 -0.3664
  120OSM   H12B12645   1.293   6.305  10.546  2.5227  0.5840  1.2032
  120OSM    C1112646   1.172   6.471  10.588 -0.1402 -0.1187 -0.1173
  120OSM   H11A12647   1.138   6.476  10.482 -0.5066  0.2459  0.0140
  120OSM   H11B12648   1.260   6.539  10.589  1.1450 -1.7303  1.0217
  120OSM      P12649   0.924   6.495  10.651 -0.1668  0.0194  0.1805
  120OSM    O1312650   0.890   6.352  10.648  0.5050 -0.1779 -0.0633
  120OSM    O1412651   0.837   6.585  10.731  0.1386 -0.7219  0.0026
  120OSM    O1112652   0.923   6.554  10.504 -0.1946  0.0206  0.4845
  120OSM    O1212653   1.075   6.513  10.691 -0.0846  0.0772 -0.3309
  120OSM    C1S12654   0.960   6.688  10.474  0.2062 -1.2256  0.1147
  120OSM    H1S12655   1.059   6.713  10.518 -0.0351 -1.9074  1.0815
  120OSM    H1T12656   0.887   6.756  10.522  1.4434 -1.4346  2.4142
  120OSM     NF12657   1.064   6.845  10.308  0.0894  0.3452  0.4809
  120OSM    HNF12658   1.026   6.922  10.258 -1.2364  0.1144  1.0867
  120OSM    C2S12659   0.977   6.728  10.322  0.6859 -0.2017 -0.2268
  120OSM    H2S12660   1.030   6.642  10.276  0.3154 -1.3479  1.3949
  120OSM    C3S12661   0.834   6.744  10.261 -0.1581 -0.4971 -0.5453
  120OSM    H3S12662   0.789   6.829  10.315 -0.1609 -0.0614 -1.2223
  120OSM     O312663   0.744   6.640  10.298 -0.3220  0.1598  0.2007
  120OSM    HO312664   0.799   6.588  10.358  2.5696  0.6301 -1.8522
  120OSM    C4S12665   0.842   6.750  10.112  0.1308 -0.3911 -0.1542
  120OSM    H4S12666   0.894   6.661  10.074  3.3408  1.0644  0.4674
  120OSM    C5S12667   0.818   6.848  10.025 -0.2457 -0.7799  0.3380
  120OSM    H5S12668   0.791   6.946  10.068  0.3475 -1.1495  1.6054
  120OSM    C6S12669   0.830   6.847   9.878 -1.2697 -0.2782 -0.7938
  120OSM    H6S12670   0.900   6.931   9.859 -2.9359  1.3567 -0.0289
  120OSM    H6T12671   0.727   6.880   9.850 -1.5815 -0.3870  0.1960
  120OSM    C7S12672   0.873   6.722   9.810 -0.7628  0.8060  0.4587
  120OSM    H7S12673   0.810   6.635   9.838 -0.4355  1.1040  2.2436
  120OSM    H7T12674   0.975   6.701   9.850 -0.3692  1.3923 -0.2001
  120OSM    C8S12675   0.881   6.731   9.655 -0.2243  0.7961  0.4117
  120OSM    H8S12676   0.870   6.628   9.616 -1.4284  1.6294 -1.6145
  120OSM    H8T12677   0.976   6.780   9.626 -0.0614  0.5508  0.5314
  120OSM    C9S12678   0.772   6.805   9.582  0.4896 -0.1602  0.1123
  120OSM    H9S12679   0.777   6.914   9.604  1.3528 -0.4155  1.2781
  120OSM    H9T12680   0.672   6.774   9.619 -0.0912  0.8024 -0.5845
  120OSM   C10S12681   0.768   6.770   9.425  0.9449 -0.3686  0.0521
  120OSM   H10S12682   0.661   6.771   9.395  0.9824  0.7308 -0.0787
  120OSM   H10T12683   0.803   6.666   9.406 -1.9027 -1.2156 -1.0390
  120OSM   C11S12684   0.853   6.870   9.342  0.1115  0.8991 -0.0399
  120OSM   H11S12685   0.958   6.874   9.377  0.3453  2.6616 -0.8321
  120OSM   H11T12686   0.809   6.971   9.359 -1.4459  0.2156  0.1038
  120OSM   C12S12687   0.856   6.855   9.187  0.1136  0.0456  0.7325
  120OSM   H12S12688   0.917   6.770   9.150  0.8640 -0.9836  3.9929
  120OSM   H12T12689   0.905   6.945   9.145  0.8242 -0.2603  0.8944
  120OSM   C13S12690   0.713   6.862   9.117  0.6883  0.1267 -0.4016
  120OSM   H13S12691   0.653   6.941   9.168  0.1046 -1.0147  0.7425
  120OSM   H13T12692   0.667   6.767   9.150  1.1969 -0.3491 -1.0316
  120OSM   C14S12693   0.706   6.882   8.963 -0.3282 -0.1578 -0.6524
  120OSM   H14S12694   0.603   6.854   8.931 -0.7697  1.6686 -0.9466
  120OSM   H14T12695   0.776   6.808   8.917 -1.3200 -0.2901 -2.0348
  120OSM   C15S12696   0.726   7.023   8.912  0.0404  0.3502 -0.3707
  120OSM   H15S12697   0.815   7.072   8.958  0.0929  0.0454 -0.1443
  120OSM   H15T12698   0.632   7.073   8.944 -0.2260  0.8371 -1.8362
  120OSM   C16S12699   0.730   7.035   8.760  0.3840  0.2982 -0.5784
  120OSM   H16S12700   0.641   7.001   8.705 -0.7374  0.1612  1.2236
  120OSM   H16T12701   0.819   6.981   8.720  2.6288  1.1037  2.7901
  120OSM   C17S12702   0.728   7.183   8.715 -0.2769  0.0717 -0.4353
  120OSM   H17S12703   0.810   7.246   8.757 -1.2774  0.1754  1.4603
  120OSM   H17T12704   0.631   7.216   8.757 -0.3229  1.0546 -1.2668
  120OSM   C18S12705   0.734   7.212   8.563  0.2266  0.3420 -0.2121
  120OSM   H18S12706   0.745   7.321   8.540  1.9941  0.5146  1.1745
  120OSM   H18T12707   0.641   7.185   8.510  0.4499  0.2976 -0.5812
  120OSM   H18U12708   0.818   7.157   8.517  0.8449 -0.1139  1.3661
  120OSM    C1F12709   1.193   6.856  10.330  0.8747  0.7441 -0.5870
  120OSM     OF12710   1.254   6.758  10.366 -0.0030 -0.2166 -0.7541
  120OSM    C2F12711   1.251   6.990  10.298 -0.7546  0.4608 -0.4571
  120OSM    H2F12712   1.311   7.017  10.388 -0.8442 -1.0403  0.0878
  120OSM    H2G12713   1.169   7.065  10.292 -1.0576  0.0326 -1.9062
  120OSM    C3F12714   1.346   6.989  10.178 -0.7237 -0.4554 -0.3737
  120OSM    H3F12715   1.408   6.897  10.178  1.2829  0.8264 -1.1090
  120OSM    H3G12716   1.409   7.081  10.188 -0.2823 -0.7314 -0.5838
  120OSM    C4F12717   1.278   7.007  10.041 -0.2410  0.0035 -0.0147
  120OSM    H4F12718   1.199   7.084  10.035 -1.5030 -1.3609 -2.1984
  120OSM    H4G12719   1.222   6.914  10.020 -0.5808 -0.0630  1.1006
  120OSM    C5F12720   1.388   7.030   9.936 -0.9960 -0.0885  0.7085
  120OSM    H5F12721   1.477   6.973   9.970 -0.8207  0.5400  1.3208
  120OSM    H5G12722   1.412   7.138   9.925  2.0912 -0.8183 -0.9009
  120OSM    C6F12723   1.335   6.984   9.798  0.2201 -0.2673 -0.4866
  120OSM    H6F12724   1.321   6.874   9.789 -2.0831  0.0233 -1.1309
  120OSM    H6G12725   1.419   7.000   9.728  1.2650 -1.2087  0.4993
  120OSM    C7F12726   1.207   7.055   9.759  0.3636 -0.1234  0.2176
  120OSM    H7F12727   1.205   7.165   9.771 -2.2014 -0.2875  2.1126
  120OSM    H7G12728   1.120   7.020   9.819 -1.1528 -0.5346 -2.0858
  120OSM    C8F12729   1.181   7.031   9.607 -0.4129  0.1306 -0.2626
  120OSM    H8F12730   1.164   6.921   9.604 -0.9215  0.2093 -0.4029
  120OSM    H8G12731   1.273   7.053   9.549  0.5371 -0.5365  0.9272
  120OSM    C9F12732   1.058   7.108   9.559  0.0226  0.1780  0.0358
  120OSM    H9F12733   0.963   7.079   9.606 -1.4455 -0.0562 -2.8807
  120OSM   C10F12734   1.055   7.183   9.445 -0.5653  0.4583 -0.1324
  120OSM   H10F12735   0.963   7.236   9.420  0.6543  0.9525 -4.2046
  120OSM   C11F12736   1.172   7.211   9.349  0.0760  0.1338 -0.6810
  120OSM   H11F12737   1.265   7.186   9.405 -1.3668  0.6708  2.1694
  120OSM   H11G12738   1.163   7.320   9.330  2.9068  0.8564  1.3956
  120OSM   C12F12739   1.160   7.116   9.224 -0.3549 -0.0609  0.1636
  120OSM   H12F12740   1.059   7.123   9.178 -0.1702 -0.4928 -0.3102
  120OSM   H12G12741   1.180   7.009   9.247  0.3967 -0.1809 -0.9748
  120OSM   C13F12742   1.258   7.156   9.118  0.1077 -0.6353  0.4424
  120OSM   H13F12743   1.357   7.127   9.158  2.0156  1.3065 -2.3999
  120OSM   H13G12744   1.247   7.267   9.108 -1.6467 -0.7254  1.1279
  120OSM   C14F12745   1.238   7.081   8.981 -0.6161 -0.3778  0.3062
  120OSM   H14F12746   1.128   7.067   8.969 -1.1175  1.1163  2.3850
  120OSM   H14G12747   1.292   6.985   8.990 -0.2163 -0.1382  0.4891
  120OSM   C15F12748   1.286   7.153   8.862 -0.4397 -0.1233  0.1700
  120OSM   H15F12749   1.397   7.160   8.862 -0.4111 -0.5118  0.8256
  120OSM   H15G12750   1.240   7.253   8.874 -0.7848 -0.0635 -1.4345
  120OSM   C16F12751   1.243   7.097   8.730  0.2234 -0.0054 -0.7232
  120OSM   H16F12752   1.133   7.097   8.741  0.1831 -1.5153 -0.8860
  120OSM   H16G12753   1.267   6.988   8.728 -2.6702 -0.7192 -0.5653
  120OSM   C17F12754   1.278   7.182   8.612  0.5295  0.7723 -0.5688
  120OSM   H17F12755   1.388   7.176   8.596  1.2197  1.2485  3.1015
  120OSM   H17G12756   1.258   7.290   8.632  0.7054  0.9073 -1.1079
  120OSM   C18F12757   1.199   7.146   8.482  0.9050  0.0119 -0.5658
  120OSM   H18F12758   1.089   7.152   8.498  1.2501  0.8188  1.9182
  120OSM   H18G12759   1.226   7.048   8.437  0.1153 -1.1276  1.3020
  120OSM   H18H12760   1.214   7.221   8.402  1.4527 -0.6625 -1.1062
  121OSM      N12761   5.456   3.374  10.993 -0.1364  0.5922  0.4515
  121OSM    C1512762   5.335   3.288  11.016 -0.6504 -0.3276 -0.1212
  121OSM   H15A12763   5.256   3.349  11.057  0.7667  0.6942  1.1910
  121OSM   H15B12764   5.350   3.204  11.082  1.2363  0.9087  1.1163
  121OSM   H15C12765   5.307   3.267  10.913  1.4877 -0.5448 -0.6963
  121OSM    C1412766   5.433   3.458  10.864 -0.2664  0.7613 -0.0067
  121OSM   H14A12767   5.330   3.488  10.860 -0.3868  0.2123 -1.8437
  121OSM   H14B12768   5.454   3.400  10.775  0.9152 -0.1484  0.8302
  121OSM   H14C12769   5.495   3.547  10.865  1.5353 -0.4417  1.0605
  121OSM    C1312770   5.463   3.466  11.117  0.2625  0.4982  0.6747
  121OSM   H13A12771   5.374   3.524  11.134 -0.6178 -1.0323  1.5054
  121OSM   H13B12772   5.549   3.531  11.117  1.7818 -1.3824 -0.7950
  121OSM   H13C12773   5.482   3.404  11.204  0.0934  0.5408  0.7411
  121OSM    C1212774   5.576   3.282  10.969  1.0391 -0.6050  0.0323
  121OSM   H12A12775   5.657   3.347  10.939  0.1796  0.8736  0.7925
  121OSM   H12B12776   5.542   3.219  10.888 -2.1787  0.2928  0.5426
  121OSM    C1112777   5.623   3.188  11.082 -0.4220 -0.3549 -0.0610
  121OSM   H11A12778   5.641   3.236  11.180  1.6076 -1.0627 -0.0466
  121OSM   H11B12779   5.711   3.129  11.047 -1.5083 -1.4789 -1.0195
  121OSM      P12780   5.514   2.941  11.063  0.0287 -0.0704 -0.3975
  121OSM    O1312781   5.510   2.855  11.182 -0.5764  0.6342  0.1685
  121OSM    O1412782   5.394   2.920  10.980  0.0578  0.0980 -0.4514
  121OSM    O1112783   5.643   2.924  10.984 -0.1891 -0.0949 -0.3164
  121OSM    O1212784   5.516   3.098  11.114 -0.1880 -0.3025  0.0372
  121OSM    C1S12785   5.676   2.806  10.911  0.3029  0.0848  0.0122
  121OSM    H1S12786   5.590   2.734  10.910  0.1070  0.3228 -0.8995
  121OSM    H1T12787   5.766   2.764  10.960  0.0353 -1.8955 -1.0493
  121OSM     NF12788   5.732   2.707  10.687  0.4940 -0.7952 -0.1550
  121OSM    HNF12789   5.818   2.698  10.638  0.6741  1.7537 -0.4134
  121OSM    C2S12790   5.718   2.831  10.769 -0.3477  0.7661 -0.2455
  121OSM    H2S12791   5.637   2.892  10.725  0.2867  0.6440 -1.6491
  121OSM    C3S12792   5.843   2.915  10.771 -0.0618 -0.9068 -0.6995
  121OSM    H3S12793   5.921   2.853  10.820  1.6984  1.9077  0.2661
  121OSM     O312794   5.833   3.039  10.847  0.1658 -0.0087  0.1136
  121OSM    HO312795   5.771   3.009  10.914 -1.1892 -0.5546 -1.3114
  121OSM    C4S12796   5.892   2.952  10.633  0.6979  0.0957  0.9457
  121OSM    H4S12797   5.981   2.895  10.604 -1.2909 -1.0594 -3.7835
  121OSM    C5S12798   5.846   3.050  10.553  0.3187 -0.1390 -0.4226
  121OSM    H5S12799   5.756   3.108  10.579 -0.1237 -0.8276 -0.3822
  121OSM    C6S12800   5.903   3.074  10.420  0.0067 -0.7410 -0.6382
  121OSM    H6S12801   6.012   3.056  10.421  0.7908  3.0791 -2.2215
  121OSM    H6T12802   5.900   3.185  10.410  2.7941 -0.4322  0.9599
  121OSM    C7S12803   5.837   3.001  10.304  0.1375 -0.8249  0.9892
  121OSM    H7S12804   5.728   3.022  10.304  0.6104  1.9581  1.0749
  121OSM    H7T12805   5.838   2.893  10.332 -0.2110 -0.9382  0.5835
  121OSM    C8S12806   5.893   3.054  10.169  0.1861  0.0115  0.3771
  121OSM    H8S12807   6.003   3.056  10.183  0.1991 -2.3796  1.0497
  121OSM    H8T12808   5.862   3.161  10.162  1.5278  0.3692 -0.4736
  121OSM    C9S12809   5.867   2.974  10.046  0.1400  0.1810  0.0220
  121OSM    H9S12810   5.759   2.978  10.018  0.7908  0.3983 -2.7920
  121OSM    H9T12811   5.879   2.865  10.065  1.2395  0.1508 -0.7582
  121OSM   C10S12812   5.940   3.009   9.911 -0.6093  0.6523  0.4141
  121OSM   H10S12813   6.051   3.006   9.923 -0.5431 -0.1859 -0.2761
  121OSM   H10T12814   5.915   3.116   9.894 -4.9884 -0.1837  0.6424
  121OSM   C11S12815   5.901   2.938   9.782  0.1961  0.0276 -0.0618
  121OSM   H11S12816   5.791   2.945   9.772 -0.1206 -3.5598 -0.1883
  121OSM   H11T12817   5.910   2.832   9.811  0.4877  0.1936  0.4728
  121OSM   C12S12818   5.993   2.987   9.663  0.4645  0.1511 -0.6084
  121OSM   H12S12819   6.098   2.957   9.685 -0.3589 -1.5420  1.3158
  121OSM   H12T12820   5.990   3.097   9.669  3.2096  0.4743 -2.9259
  121OSM   C13S12821   5.957   2.934   9.522  0.6719  0.0428  0.9895
  121OSM   H13S12822   5.847   2.945   9.516  0.7961  0.3934 -1.2567
  121OSM   H13T12823   5.975   2.825   9.532 -0.3573 -0.0907  1.4896
  121OSM   C14S12824   6.031   3.004   9.410  0.2752 -0.3156  0.8912
  121OSM   H14S12825   6.140   2.998   9.431  0.4424  0.7230  0.4138
  121OSM   H14T12826   6.017   3.115   9.412  0.8242 -0.2526  1.4596
  121OSM   C15S12827   6.006   2.967   9.267  0.3173  0.8061  0.5615
  121OSM   H15S12828   5.904   3.009   9.251 -0.8048 -1.8717 -0.0138
  121OSM   H15T12829   5.996   2.857   9.254 -1.6104  1.0787 -0.7253
  121OSM   C16S12830   6.101   3.018   9.168 -0.7930 -0.4078  0.5067
  121OSM   H16S12831   6.067   2.996   9.064  1.2303 -0.8667 -0.0973
  121OSM   H16T12832   6.204   2.978   9.182  0.1078  1.9359  1.0833
  121OSM   C17S12833   6.121   3.172   9.171 -0.2945 -0.4294 -0.2203
  121OSM   H17S12834   6.193   3.195   9.253 -1.0963  1.3216  0.0475
  121OSM   H17T12835   6.015   3.199   9.191 -1.2063 -3.2651 -0.7382
  121OSM   C18S12836   6.172   3.230   9.036  0.0990  0.5060  0.0614
  121OSM   H18S12837   6.260   3.173   8.999 -1.6477 -1.0973 -1.8504
  121OSM   H18T12838   6.195   3.339   9.034  0.0186  0.5543  1.2105
  121OSM   H18U12839   6.087   3.208   8.968 -0.3580 -1.7620  1.2501
  121OSM    C1F12840   5.634   2.631  10.649  0.0643  0.7299 -0.5094
  121OSM     OF12841   5.516   2.646  10.689 -0.2613 -0.1034  0.0045
  121OSM    C2F12842   5.656   2.514  10.565 -0.7660  0.0632 -0.5101
  121OSM    H2F12843   5.600   2.425  10.602 -0.0217 -0.2998 -0.2334
  121OSM    H2G12844   5.762   2.482  10.569 -0.7131  0.2889  0.0378
  121OSM    C3F12845   5.622   2.546  10.418 -0.1419 -0.3075  0.8333
  121OSM    H3F12846   5.517   2.576  10.399 -0.2819 -2.4354 -2.6851
  121OSM    H3G12847   5.630   2.446  10.369  1.0718  1.1936 -2.2905
  121OSM    C4F12848   5.724   2.636  10.351 -0.4493 -0.3074  0.4229
  121OSM    H4F12849   5.823   2.611  10.396  0.2494  0.8858 -0.3871
  121OSM    H4G12850   5.699   2.740  10.383  0.4969  0.1957 -0.4127
  121OSM    C5F12851   5.722   2.628  10.197  0.3554 -0.1348 -0.0550
  121OSM    H5F12852   5.733   2.521  10.168 -1.6047 -1.6890  4.1131
  121OSM    H5G12853   5.810   2.684  10.160  1.8392 -1.1427  1.7711
  121OSM    C6F12854   5.596   2.693  10.126 -0.9861  0.7441 -0.0662
  121OSM    H6F12855   5.594   2.796  10.167  2.0743  1.0222 -0.3563
  121OSM    H6G12856   5.509   2.638  10.168 -1.3203  1.2124 -0.1370
  121OSM    C7F12857   5.610   2.678   9.974  0.3643 -0.1700 -0.1599
  121OSM    H7F12858   5.643   2.575   9.952  0.9881 -0.3465  1.4917
  121OSM    H7G12859   5.687   2.750   9.939  0.2558  0.6571  1.2260
  121OSM    C8F12860   5.480   2.694   9.893  0.0590  0.1036  0.0558
  121OSM    H8F12861   5.398   2.631   9.935 -0.6567 -0.5059 -2.1504
  121OSM    H8G12862   5.513   2.659   9.793  1.1973  1.7601 -0.1835
  121OSM    C9F12863   5.452   2.839   9.886  0.2139  0.4847  0.0137
  121OSM    H9F12864   5.406   2.872   9.980  2.2951 -0.1980  1.3209
  121OSM   C10F12865   5.481   2.923   9.784  0.1874 -0.3098  0.2385
  121OSM   H10F12866   5.449   3.027   9.801  2.1325  0.0800  1.8590
  121OSM   C11F12867   5.540   2.892   9.647 -0.0952  0.0978  0.0390
  121OSM   H11F12868   5.601   2.799   9.652 -0.6836 -0.4075 -1.4797
  121OSM   H11G12869   5.607   2.974   9.616  0.4530 -0.0658  0.7490
  121OSM   C12F12870   5.452   2.877   9.533  1.0162  0.1926  0.1703
  121OSM   H12F12871   5.439   2.972   9.477 -0.0548 -0.4529 -0.7105
  121OSM   H12G12872   5.355   2.841   9.574  0.1912  2.4641  0.3834
  121OSM   C13F12873   5.502   2.770   9.428 -0.3586 -0.1339  0.1172
  121OSM   H13F12874   5.473   2.670   9.468  0.6307 -1.3380 -2.0338
  121OSM   H13G12875   5.612   2.775   9.440 -0.4258 -1.9777  1.9971
  121OSM   C14F12876   5.451   2.807   9.286  0.1011 -0.1813 -0.4489
  121OSM   H14F12877   5.483   2.909   9.257 -1.6211  0.5564  0.1304
  121OSM   H14G12878   5.340   2.801   9.284 -0.0039  1.0671  0.4618
  121OSM   C15F12879   5.501   2.710   9.183  0.3917  0.5958  0.2462
  121OSM   H15F12880   5.465   2.609   9.212  2.6491 -0.9410 -1.9241
  121OSM   H15G12881   5.612   2.707   9.185  0.3592 -0.8931  1.1495
  121OSM   C16F12882   5.449   2.747   9.045  0.2095  0.0877  0.4704
  121OSM   H16F12883   5.500   2.839   9.011  0.2065 -0.0909 -0.0312
  121OSM   H16G12884   5.341   2.770   9.058  0.6581  2.1322  0.8554
  121OSM   C17F12885   5.470   2.640   8.939  0.6397 -0.5764  0.5942
  121OSM   H17F12886   5.445   2.549   8.997 -0.0807 -0.1947  0.9087
  121OSM   H17G12887   5.573   2.634   8.899  0.0529 -0.0331 -1.0813
  121OSM   C18F12888   5.383   2.658   8.814 -0.4578 -0.3341  0.2959
  121OSM   H18F12889   5.416   2.743   8.751 -0.7259  1.0411  1.9188
  121OSM   H18G12890   5.278   2.687   8.836 -0.8729 -0.0745 -1.8072
  121OSM   H18H12891   5.386   2.570   8.747  0.5460  0.4447 -0.7109
  122OSM      N12892   0.122   0.162  11.126  0.1005 -0.5032 -0.4018
  122OSM    C1512893   0.257   0.235  11.111  0.5439  0.4430 -0.2058
  122OSM   H15A12894   0.251   0.339  11.082  2.0637  0.9332  1.1285
  122OSM   H15B12895   0.299   0.191  11.021 -1.1981 -2.8782  0.4506
  122OSM   H15C12896   0.334   0.212  11.183  0.7529 -0.7948 -0.8019
  122OSM    C1412897   0.142   0.020  11.163 -0.3805 -0.1868  0.0825
  122OSM   H14A12898   0.213  -0.034  11.103 -1.3495 -0.4165 -0.8785
  122OSM   H14B12899   0.049  -0.034  11.151 -0.8670  0.0585  2.2906
  122OSM   H14C12900   0.172   0.003  11.265 -0.5883 -2.5146 -0.2012
  122OSM    C1312901   0.054   0.227  11.247  0.4987 -0.0777  1.1211
  122OSM   H13A12902   0.011   0.325  11.233 -0.0617 -0.2998  1.2710
  122OSM   H13B12903   0.127   0.232  11.327  1.8098  0.7604 -0.0680
  122OSM   H13C12904  -0.035   0.170  11.266  0.8005 -0.3382  1.7995
  122OSM    C1212905   0.034   0.178  11.001  0.1327  0.1895  0.0830
  122OSM   H12A12906  -0.063   0.136  11.023  1.5264 -2.6271  1.3932
  122OSM   H12B12907   0.070   0.126  10.914  1.2890  0.8772  0.1418
  122OSM    C1112908   0.009   0.325  10.959 -0.8015 -0.0570  0.2389
  122OSM   H11A12909  -0.038   0.390  11.036  1.2386  1.9739 -0.1285
  122OSM   H11B12910  -0.065   0.325  10.876 -0.8861 -2.1761  0.2605
  122OSM      P12911   0.168   0.532  10.929 -0.2049 -0.2911 -0.0781
  122OSM    O1312912   0.057   0.624  10.895  0.8608  0.5804  0.6871
  122OSM    O1412913   0.224   0.537  11.066 -0.2909 -0.5868  0.5976
  122OSM    O1112914   0.282   0.571  10.829 -1.0909 -0.0001 -0.0143
  122OSM    O1212915   0.126   0.379  10.900  0.2677 -0.2171 -0.4985
  122OSM    C1S12916   0.309   0.488  10.716  0.1222  0.3054  0.5857
  122OSM    H1S12917   0.289   0.382  10.742  2.7517 -0.2880  0.3870
  122OSM    H1T12918   0.418   0.471  10.706  0.3164  1.3258  0.8599
  122OSM     NF12919   0.254   0.435  10.479 -0.0625  0.3703 -0.1301
  122OSM    HNF12920   0.322   0.445  10.406 -1.4707 -0.8244 -1.6576
  122OSM    C2S12921   0.247   0.542  10.581 -0.1972  0.7178  0.1983
  122OSM    H2S12922   0.138   0.559  10.585 -0.4970 -1.1388  1.6696
  122OSM    C3S12923   0.322   0.676  10.543 -0.0982  0.2048 -0.7826
  122OSM    H3S12924   0.429   0.654  10.522 -0.5394 -0.7644 -2.1948
  122OSM     O312925   0.326   0.768  10.653  0.0646 -0.4236  0.3621
  122OSM    HO312926   0.293   0.716  10.727  0.2163 -3.6046 -1.6062
  122OSM    C4S12927   0.259   0.735  10.418  0.6826 -0.4171 -0.5556
  122OSM    H4S12928   0.150   0.720  10.422  0.8062 -1.1767  1.5454
  122OSM    C5S12929   0.326   0.794  10.309 -0.2267  0.6399  0.5149
  122OSM    H5S12930   0.433   0.815  10.317 -0.2041  0.2138  1.3974
  122OSM    C6S12931   0.244   0.854  10.193 -0.4764  0.0677  0.5501
  122OSM    H6S12932   0.263   0.963  10.200 -0.5005  0.1075  0.0245
  122OSM    H6T12933   0.137   0.832  10.213 -1.2213  2.4027 -0.5146
  122OSM    C7S12934   0.280   0.793  10.054 -0.2958  0.1788  0.0398
  122OSM    H7S12935   0.279   0.683  10.069  2.8039  0.3064  2.0923
  122OSM    H7T12936   0.386   0.802  10.022 -0.1923 -0.7386  0.0816
  122OSM    C8S12937   0.189   0.833   9.935 -0.4394 -1.1319 -0.4953
  122OSM    H8S12938   0.184   0.943   9.924 -2.0296 -0.9772  1.3153
  122OSM    H8T12939   0.088   0.790   9.954 -1.1420  0.0943 -1.2922
  122OSM    C9S12940   0.246   0.772   9.806  0.3317  0.1012  0.4536
  122OSM    H9S12941   0.277   0.666   9.815  1.0363  0.2637 -0.0080
  122OSM    H9T12942   0.340   0.824   9.779 -0.5505  0.7427 -1.5952
  122OSM   C10S12943   0.160   0.807   9.681 -0.2357 -0.2112  0.1708
  122OSM   H10S12944   0.156   0.917   9.665  0.2706 -0.0733  0.9645
  122OSM   H10T12945   0.057   0.775   9.708 -0.4897 -0.5872 -1.1745
  122OSM   C11S12946   0.223   0.737   9.561  0.3693  0.3714  1.0537
  122OSM   H11S12947   0.209   0.628   9.577  1.3750  0.0413 -0.2112
  122OSM   H11T12948   0.328   0.763   9.534  0.5519 -0.5037  0.9141
  122OSM   C12S12949   0.137   0.763   9.431 -0.2135 -0.0989  0.4603
  122OSM   H12S12950   0.121   0.872   9.423 -2.2787 -0.4765 -1.5292
  122OSM   H12T12951   0.034   0.722   9.433  0.5801 -2.4981 -1.8513
  122OSM   C13S12952   0.203   0.695   9.312  0.2435 -0.0715  0.3795
  122OSM   H13S12953   0.209   0.585   9.318  2.9220 -0.0326 -0.3070
  122OSM   H13T12954   0.308   0.730   9.301 -0.3372  1.4458 -0.7687
  122OSM   C14S12955   0.136   0.720   9.177 -0.7141  0.2580  0.3791
  122OSM   H14S12956   0.089   0.820   9.165 -1.0645 -0.1494 -2.1742
  122OSM   H14T12957   0.049   0.654   9.156  1.4395 -2.0905 -1.8291
  122OSM   C15S12958   0.239   0.701   9.064  0.0294 -0.3073 -0.3537
  122OSM   H15S12959   0.289   0.602   9.071 -1.1933 -0.9374 -0.2266
  122OSM   H15T12960   0.316   0.778   9.086 -0.1602 -0.4495  0.8811
  122OSM   C16S12961   0.181   0.725   8.923 -0.4761 -0.2931 -0.1433
  122OSM   H16S12962   0.258   0.707   8.845 -1.2438 -2.0905 -0.5267
  122OSM   H16T12963   0.134   0.825   8.911  0.2242  0.0753  0.1115
  122OSM   C17S12964   0.062   0.643   8.882 -0.4752  0.9683  0.4725
  122OSM   H17S12965  -0.025   0.662   8.947 -2.4018 -0.4550 -1.5405
  122OSM   H17T12966   0.088   0.535   8.888 -1.3822  0.4905 -2.4613
  122OSM   C18S12967   0.021   0.672   8.730  0.3076  0.9503 -0.0580
  122OSM   H18S12968   0.095   0.638   8.655 -2.2281 -1.0552 -1.8170
  122OSM   H18T12969  -0.003   0.780   8.723 -0.0267  0.9339  0.6983
  122OSM   H18U12970  -0.065   0.606   8.705  2.0107 -1.2353 -0.3617
  122OSM    C1F12971   0.180   0.325  10.488 -0.0676  0.1549  0.0026
  122OSM     OF12972   0.089   0.325  10.571 -0.0917 -0.3984 -0.2492
  122OSM    C2F12973   0.207   0.219  10.387 -0.8494 -0.7873 -0.2585
  122OSM    H2F12974   0.304   0.175  10.419  0.1341  2.2636  1.3234
  122OSM    H2G12975   0.216   0.267  10.287 -0.8885  1.6630  0.8570
  122OSM    C3F12976   0.095   0.112  10.382  0.3359 -0.2968 -0.0690
  122OSM    H3F12977  -0.001   0.159  10.352  0.7427  0.3054 -0.4261
  122OSM    H3G12978   0.087   0.057  10.479 -1.8638 -0.3327 -0.2152
  122OSM    C4F12979   0.107   0.005  10.263 -0.1868  0.7018 -0.6191
  122OSM    H4F12980   0.035  -0.079  10.272  1.6628 -0.7694  1.7345
  122OSM    H4G12981   0.212  -0.032  10.255 -0.1386  0.7124 -0.0440
  122OSM    C5F12982   0.082   0.070  10.123 -0.6718 -0.1737  0.4230
  122OSM    H5F12983   0.170   0.125  10.082 -0.0913 -0.8593  0.7277
  122OSM    H5G12984  -0.009   0.134  10.126 -1.8015 -1.7654  0.7632
  122OSM    C6F12985   0.052  -0.030  10.013 -0.2212  0.3079  1.5442
  122OSM    H6F12986  -0.030  -0.098  10.045 -0.9731  0.1221 -0.5856
  122OSM    H6G12987   0.145  -0.085   9.985 -1.8955 -1.8601 -0.1754
  122OSM    C7F12988   0.014   0.034   9.876 -0.1036  0.1342  0.3896
  122OSM    H7F12989   0.090   0.101   9.830 -0.6353  0.9041  0.6248
  122OSM    H7G12990  -0.072   0.098   9.902  0.1272  0.1619  1.1013
  122OSM    C8F12991  -0.018  -0.079   9.778  0.2315  0.2195  0.4589
  122OSM    H8F12992  -0.097  -0.140   9.828 -1.0030  0.1832 -1.4220
  122OSM    H8G12993   0.076  -0.138   9.781  0.1989  0.1353 -0.1245
  122OSM    C9F12994  -0.061  -0.053   9.636 -0.4625 -0.5883  0.6816
  122OSM    H9F12995  -0.154   0.004   9.622 -0.7054 -0.3743  2.8322
  122OSM   C10F12996   0.017  -0.077   9.525 -0.7137  0.2562  0.2665
  122OSM   H10F12997  -0.022  -0.048   9.426 -0.2897  1.1904  0.3634
  122OSM   C11F12998   0.152  -0.141   9.535  0.4987  0.8486  0.2278
  122OSM   H11F12999   0.170  -0.189   9.436  0.2261  1.1668  0.0170
  122OSM   H11G13000   0.153  -0.220   9.612 -1.7429 -1.5436 -1.9966
  122OSM   C12F13001   0.267  -0.037   9.551  0.2899 -0.6405 -0.4535
  122OSM   H12F13002   0.260  -0.002   9.656 -0.4045  2.3477 -1.3993
  122OSM   H12G13003   0.248   0.054   9.491  1.1312  0.1256  0.4083
  122OSM   C13F13004   0.404  -0.104   9.513  0.5743 -0.0976 -0.5089
  122OSM   H13F13005   0.474  -0.019   9.510  1.0245 -0.4209  0.6006
  122OSM   H13G13006   0.390  -0.139   9.408 -1.8496  0.6141 -0.4822
  122OSM   C14F13007   0.452  -0.221   9.597 -0.0759  0.3447 -0.3588
  122OSM   H14F13008   0.559  -0.241   9.577  0.0117 -1.6436  1.7466
  122OSM   H14G13009   0.393  -0.313   9.577 -0.6879  1.1185 -2.4175
  122OSM   C15F13010   0.434  -0.190   9.752  0.1714  0.2896  0.5219
  122OSM   H15F13011   0.323  -0.195   9.764  0.0874  1.2916  0.2902
  122OSM   H15G13012   0.457  -0.085   9.781 -0.1420  0.1442  1.3140
  122OSM   C16F13013   0.522  -0.280   9.839 -0.1716  0.2934  0.2342
  122OSM   H16F13014   0.624  -0.279   9.795  0.1601  0.4520  1.0042
  122OSM   H16G13015   0.488  -0.386   9.834  0.9015 -0.2232  2.5661
  122OSM   C17F13016   0.530  -0.236   9.981 -0.1851 -0.1823 -0.0827
  122OSM   H17F13017   0.427  -0.242  10.023 -0.8319  0.1072 -1.5484
  122OSM   H17G13018   0.559  -0.128   9.982  0.6759 -0.3997 -0.5841
  122OSM   C18F13019   0.624  -0.318  10.062  0.4230 -0.2244 -0.8353
  122OSM   H18F13020   0.589  -0.423  10.062  3.0208 -1.1981  0.7846
  122OSM   H18G13021   0.619  -0.293  10.170 -2.3981  0.7892 -1.1129
  122OSM   H18H13022   0.729  -0.310  10.024 -0.5745  0.6616 -3.6920
  123OSM      N13023   4.254   5.921   5.745 -0.1364  0.6930  1.0407
  123OSM    C1513024   4.201   5.890   5.605 -0.0825  0.0594  0.5100
  123OSM   H15A13025   4.278   5.871   5.532 -0.2556  1.4306 -0.0753
  123OSM   H15B13026   4.147   5.975   5.565  0.9002  0.5624  0.2169
  123OSM   H15C13027   4.143   5.800   5.597 -1.1782  0.7426  0.5842
  123OSM    C1413028   4.354   6.035   5.744  0.0094  0.2096 -0.0140
  123OSM   H14A13029   4.443   6.017   5.686 -1.0246  2.2139 -2.3843
  123OSM   H14B13030   4.384   6.055   5.846  1.3852  1.5083 -0.6409
  123OSM   H14C13031   4.315   6.124   5.695  1.9410  1.8197  1.2069
  123OSM    C1313032   4.141   5.953   5.828 -0.7113  0.4165 -0.5056
  123OSM   H13A13033   4.060   5.882   5.834  0.9381 -1.6062 -1.2800
  123OSM   H13B13034   4.100   6.048   5.794  0.2893  1.3490  0.7893
  123OSM   H13C13035   4.171   5.968   5.931 -0.2786 -1.8339 -0.2695
  123OSM    C1213036   4.322   5.794   5.797 -0.2025 -0.4966  0.6718
  123OSM   H12A13037   4.379   5.766   5.710 -0.0922 -1.1265  0.9383
  123OSM   H12B13038   4.240   5.723   5.806 -1.0256  0.4807  1.1396
  123OSM    C1113039   4.400   5.799   5.931  0.1087  0.0169  0.1168
  123OSM   H11A13040   4.496   5.855   5.924  0.9411 -0.7232  3.6647
  123OSM   H11B13041   4.428   5.695   5.959  0.1944  0.1298  0.4460
  123OSM      P13042   4.219   5.786   6.131  0.1589 -0.1672  0.2473
  123OSM    O1313043   4.097   5.871   6.145 -0.2048  0.2419 -0.4490
  123OSM    O1413044   4.191   5.652   6.081 -0.4888  0.3093  0.0069
  123OSM    O1113045   4.285   5.780   6.270 -0.2152  0.6384  0.7370
  123OSM    O1213046   4.327   5.862   6.040  0.3967  0.8424 -0.2420
  123OSM    C1S13047   4.194   5.734   6.368 -0.7630 -0.6237 -0.8627
  123OSM    H1S13048   4.169   5.626   6.367  0.9302 -1.2061  2.8951
  123OSM    H1T13049   4.095   5.784   6.368 -2.4599 -3.7078  0.4951
  123OSM     NF13050   4.161   5.693   6.610 -0.8304 -0.4757 -0.5185
  123OSM    HNF13051   4.097   5.757   6.652  1.9008  0.7900  2.0210
  123OSM    C2S13052   4.252   5.755   6.512  0.1332 -0.0922 -0.1451
  123OSM    H2S13053   4.352   5.707   6.510 -0.3912 -1.2501 -2.9913
  123OSM    C3S13054   4.273   5.907   6.538 -0.2102 -0.3153 -0.0746
  123OSM    H3S13055   4.177   5.940   6.582 -0.6646 -2.5269  0.7582
  123OSM     O313056   4.305   5.988   6.424 -0.0075  0.5407 -0.5226
  123OSM    HO313057   4.302   5.927   6.351  2.5971 -1.0322  0.5337
  123OSM    C4S13058   4.379   5.921   6.647 -0.0668 -0.5173 -0.5142
  123OSM    H4S13059   4.343   5.885   6.744 -0.5077 -1.0310 -0.8611
  123OSM    C5S13060   4.500   5.982   6.634  0.0630  0.4972 -0.7033
  123OSM    H5S13061   4.509   6.053   6.550  2.0018  1.2540  0.0965
  123OSM    C6S13062   4.602   5.999   6.741 -0.5164 -0.4040 -0.2583
  123OSM    H6S13063   4.631   6.106   6.744  0.0703 -0.5210 -1.4070
  123OSM    H6T13064   4.694   5.946   6.708 -0.8311 -2.1350  1.4554
  123OSM    C7S13065   4.565   5.953   6.883 -0.3370 -0.4110 -0.3640
  123OSM    H7S13066   4.565   5.842   6.883 -0.6212 -0.4115 -0.4214
  123OSM    H7T13067   4.467   5.981   6.926  0.1105 -0.7509  0.9393
  123OSM    C8S13068   4.667   5.995   6.991 -0.2292 -1.0990  0.1401
  123OSM    H8S13069   4.681   6.105   6.980 -1.6596 -0.9505 -0.3314
  123OSM    H8T13070   4.760   5.938   6.969  1.1549  1.0237  0.0720
  123OSM    C9S13071   4.629   5.960   7.136  0.0214  0.3500  0.0072
  123OSM    H9S13072   4.634   5.850   7.144 -1.7177  0.1140 -1.4180
  123OSM    H9T13073   4.525   5.995   7.155 -0.1668 -1.3652  2.6810
  123OSM   C10S13074   4.715   6.030   7.241 -0.0614  0.7588 -0.0473
  123OSM   H10S13075   4.688   6.138   7.239 -0.8999  0.6455  2.2248
  123OSM   H10T13076   4.821   6.026   7.209  0.1906  1.1837  0.7059
  123OSM   C11S13077   4.675   5.983   7.383  0.2006 -0.0826  0.1359
  123OSM   H11S13078   4.708   5.877   7.389  1.0795  0.1000 -1.0940
  123OSM   H11T13079   4.565   5.979   7.395  0.3699 -0.4037  1.9719
  123OSM   C12S13080   4.739   6.062   7.503 -0.5669  0.1049 -0.6685
  123OSM   H12S13081   4.721   6.172   7.503 -0.9476  0.0903  1.5547
  123OSM   H12T13082   4.849   6.051   7.517 -0.8458  0.1139  2.1811
  123OSM   C13S13083   4.673   6.013   7.637 -0.0413 -0.0505  0.3453
  123OSM   H13S13084   4.675   5.902   7.640 -2.8634 -0.1677  1.0705
  123OSM   H13T13085   4.564   6.032   7.621  0.0989 -0.0693 -0.6571
  123OSM   C14S13086   4.722   6.079   7.763 -0.4268  0.0352 -0.3605
  123OSM   H14S13087   4.705   6.188   7.746  1.3570  0.4584  0.3536
  123OSM   H14T13088   4.832   6.061   7.769 -0.4681 -1.6985 -3.2181
  123OSM   C15S13089   4.651   6.026   7.891  0.3066 -0.1947  0.6345
  123OSM   H15S13090   4.662   5.917   7.907  1.4942 -0.0231  1.0766
  123OSM   H15T13091   4.545   6.038   7.861  1.0771  0.9588 -1.9614
  123OSM   C16S13092   4.686   6.104   8.019  0.2352 -0.0614 -0.4861
  123OSM   H16S13093   4.647   6.207   8.003  0.1580  0.2325  1.4161
  123OSM   H16T13094   4.793   6.107   8.046  0.1671 -0.8427 -0.1110
  123OSM   C17S13095   4.608   6.068   8.151 -0.3255  0.5312 -0.1837
  123OSM   H17S13096   4.649   5.984   8.210  1.4881 -0.0834 -2.1957
  123OSM   H17T13097   4.506   6.032   8.127 -0.5305 -1.8129  3.4917
  123OSM   C18S13098   4.589   6.191   8.253  0.3482 -0.1076  0.9731
  123OSM   H18S13099   4.557   6.284   8.202  2.7554 -0.3890 -1.2601
  123OSM   H18T13100   4.684   6.214   8.308 -0.4864 -0.9423  2.8672
  123OSM   H18U13101   4.502   6.165   8.316 -1.8767  0.1082 -1.8203
  123OSM    C1F13102   4.152   5.565   6.637 -0.6254  0.4189 -0.1945
  123OSM     OF13103   4.223   5.487   6.575  0.0118  1.1745 -0.0164
  123OSM    C2F13104   4.061   5.522   6.745 -0.1754 -0.2962  0.4373
  123OSM    H2F13105   4.118   5.470   6.824 -1.4890  1.5468  2.7148
  123OSM    H2G13106   3.992   5.442   6.710  0.8395 -0.8690 -0.3106
  123OSM    C3F13107   3.997   5.634   6.830  0.1764  0.6457 -0.5081
  123OSM    H3F13108   3.915   5.690   6.781  1.2722  1.0350 -1.9545
  123OSM    H3G13109   4.072   5.715   6.844  2.9019 -1.4678 -1.7802
  123OSM    C4F13110   3.943   5.583   6.961  0.5143  0.0009  0.8918
  123OSM    H4F13111   4.031   5.549   7.020  0.5210  0.5449  1.2037
  123OSM    H4G13112   3.884   5.490   6.950  0.5522 -0.3684  3.2599
  123OSM    C5F13113   3.873   5.691   7.050  0.6086  0.3355 -0.0998
  123OSM    H5F13114   3.863   5.641   7.149 -0.9954  0.0088 -0.3951
  123OSM    H5G13115   3.773   5.722   7.012  0.4381 -0.6761 -0.5004
  123OSM    C6F13116   3.960   5.816   7.081 -0.7422 -0.5943 -0.3348
  123OSM    H6F13117   3.988   5.883   6.997  3.4549 -0.6989  0.7724
  123OSM    H6G13118   4.061   5.787   7.116  1.0867  2.4154 -2.5851
  123OSM    C7F13119   3.905   5.904   7.194  0.1054  0.4167 -0.3788
  123OSM    H7F13120   3.796   5.921   7.184 -0.0472 -0.3500 -0.1310
  123OSM    H7G13121   3.952   6.004   7.190 -2.2614  1.7143  1.3075
  123OSM    C8F13122   3.926   5.831   7.338 -0.2439 -0.4258  0.2887
  123OSM    H8F13123   4.024   5.780   7.339 -0.6528 -1.2768 -0.9776
  123OSM    H8G13124   3.851   5.751   7.356  1.7317 -2.1042  1.3952
  123OSM    C9F13125   3.926   5.940   7.450  0.2974  0.2734  0.0741
  123OSM    H9F13126   4.005   6.016   7.437 -2.1234  2.7153 -1.5801
  123OSM   C10F13127   3.842   5.951   7.556 -0.2554 -0.4306  0.3510
  123OSM   H10F13128   3.847   6.036   7.625 -1.7244  0.2551 -0.3538
  123OSM   C11F13129   3.728   5.857   7.581 -0.2258  0.2258  0.6198
  123OSM   H11F13130   3.714   5.770   7.513  0.7047 -0.5116  1.3386
  123OSM   H11G13131   3.637   5.919   7.568 -0.2509  0.0125 -0.2932
  123OSM   C12F13132   3.723   5.806   7.726  0.2412 -0.1179  0.0842
  123OSM   H12F13133   3.734   5.880   7.808 -0.2335 -1.5104  1.4564
  123OSM   H12G13134   3.799   5.726   7.735 -1.0191 -1.3466  0.1344
  123OSM   C13F13135   3.581   5.769   7.751 -0.0670 -0.0312  0.2794
  123OSM   H13F13136   3.562   5.686   7.680  0.2491  1.3018 -1.4562
  123OSM   H13G13137   3.523   5.861   7.726  3.4272  2.3396  0.0691
  123OSM   C14F13138   3.546   5.727   7.890 -0.2776  0.3901 -0.0622
  123OSM   H14F13139   3.566   5.810   7.962 -1.7475 -1.0817  2.1675
  123OSM   H14G13140   3.617   5.645   7.917  1.1139  1.5077 -0.1837
  123OSM   C15F13141   3.396   5.694   7.913  0.9255 -0.3247 -0.0639
  123OSM   H15F13142   3.367   5.590   7.887 -0.0168  0.5073 -2.6180
  123OSM   H15G13143   3.333   5.762   7.852 -1.5513 -0.3356  2.3425
  123OSM   C16F13144   3.361   5.712   8.064  0.1410 -0.1292 -0.3848
  123OSM   H16F13145   3.362   5.822   8.080 -0.6678 -0.0790 -0.6638
  123OSM   H16G13146   3.436   5.671   8.134 -0.3935  0.5469  0.6019
  123OSM   C17F13147   3.225   5.656   8.111  0.3643  0.5066 -0.3504
  123OSM   H17F13148   3.219   5.547   8.091 -1.7491  0.8607 -1.9922
  123OSM   H17G13149   3.142   5.711   8.061  0.2967 -0.4808 -1.3640
  123OSM   C18F13150   3.213   5.683   8.254  0.7227 -0.2042  0.2009
  123OSM   H18F13151   3.158   5.600   8.304  1.3411 -1.2890 -0.8706
  123OSM   H18G13152   3.177   5.787   8.269  2.6791  0.2162  2.6953
  123OSM   H18H13153   3.313   5.677   8.302  0.1234 -0.2817  1.5040
  124OSM      N13154   0.712   4.677   6.209  0.4630  0.1712  0.2526
  124OSM    C1513155   0.717   4.538   6.143  1.2011  0.1398 -0.0230
  124OSM   H15A13156   0.766   4.533   6.046  0.1064 -0.7936 -0.5630
  124OSM   H15B13157   0.620   4.494   6.127  1.7952 -1.2705  0.1214
  124OSM   H15C13158   0.759   4.465   6.210 -0.2586  0.0248  0.8042
  124OSM    C1413159   0.855   4.710   6.244 -0.6536  0.2443 -0.2277
  124OSM   H14A13160   0.867   4.810   6.282 -0.3905  0.3164 -0.5003
  124OSM   H14B13161   0.917   4.710   6.155 -0.6998  1.0589 -0.2646
  124OSM   H14C13162   0.911   4.647   6.311  0.4896  1.0954 -0.3585
  124OSM    C1313163   0.642   4.780   6.113 -0.1797  0.0414  0.7179
  124OSM   H13A13164   0.629   4.869   6.174 -1.5302 -0.5579  1.3484
  124OSM   H13B13165   0.548   4.737   6.084 -1.1116  1.7270  1.1028
  124OSM   H13C13166   0.713   4.784   6.031 -1.5158  1.0969 -0.4358
  124OSM    C1213167   0.626   4.664   6.340  0.5173 -0.4379 -0.0767
  124OSM   H12A13168   0.629   4.759   6.392 -1.8396  0.9675 -2.2888
  124OSM   H12B13169   0.677   4.592   6.403  2.9284  1.7126  0.6377
  124OSM    C1113170   0.474   4.625   6.316 -0.6114 -0.1025 -0.7993
  124OSM   H11A13171   0.436   4.697   6.240  0.8536  3.1717  1.3040
  124OSM   H11B13172   0.421   4.654   6.409  0.5037  1.4403 -0.6019
  124OSM      P13173   0.443   4.360   6.328 -0.0512 -0.2137  0.2717
  124OSM    O1313174   0.318   4.299   6.272  0.1541  0.2583  0.0912
  124OSM    O1413175   0.569   4.285   6.314 -0.6407 -0.2324 -0.1690
  124OSM    O1113176   0.418   4.390   6.482 -0.1612 -0.5296  0.5273
  124OSM    O1213177   0.456   4.497   6.254 -0.0298 -0.2965 -0.2383
  124OSM    C1S13178   0.439   4.286   6.579  0.1398 -0.6130  0.4645
  124OSM    H1S13179   0.511   4.211   6.539 -0.6736 -1.4433  0.5225
  124OSM    H1T13180   0.342   4.237   6.601 -0.0325  0.4270  2.1935
  124OSM     NF13181   0.515   4.229   6.809 -0.1635 -0.3634  0.6453
  124OSM    HNF13182   0.467   4.212   6.894  0.2513  1.6598  1.3277
  124OSM    C2S13183   0.490   4.341   6.718 -0.0825  0.1140 -0.4620
  124OSM    H2S13184   0.587   4.395   6.710 -1.7305  3.0777 -2.2543
  124OSM    C3S13185   0.384   4.445   6.766 -0.0660 -0.3371  0.5598
  124OSM    H3S13186   0.290   4.387   6.778 -0.4573  0.2045  0.1181
  124OSM     O313187   0.343   4.548   6.678  0.6671 -0.3996 -0.0818
  124OSM    HO313188   0.355   4.517   6.588  0.0310  0.3576 -0.4441
  124OSM    C4S13189   0.427   4.497   6.901  0.5493  0.5443 -0.8790
  124OSM    H4S13190   0.438   4.414   6.972  0.2412  1.0839 -0.1866
  124OSM    C5S13191   0.465   4.627   6.935  0.1951  0.9595 -0.0032
  124OSM    H5S13192   0.454   4.705   6.858  1.1788  0.0056 -1.1628
  124OSM    C6S13193   0.502   4.668   7.081  0.0830  0.4561  1.6199
  124OSM    H6S13194   0.421   4.733   7.121 -1.7910 -1.5047  1.1875
  124OSM    H6T13195   0.586   4.741   7.076  0.7256 -0.3575 -0.9674
  124OSM    C7S13196   0.523   4.555   7.179 -0.2313 -0.0914  0.5069
  124OSM    H7S13197   0.592   4.478   7.139 -1.1750 -0.0521 -1.2878
  124OSM    H7T13198   0.429   4.508   7.215  0.3577  0.3191  2.7591
  124OSM    C8S13199   0.574   4.628   7.303  0.1977 -0.0235 -0.0913
  124OSM    H8S13200   0.502   4.711   7.317 -0.7882 -0.5821 -1.6323
  124OSM    H8T13201   0.672   4.680   7.295 -0.2205  0.9501  0.9039
  124OSM    C9S13202   0.576   4.531   7.419 -0.5432  0.0751 -0.5403
  124OSM    H9S13203   0.661   4.462   7.401  0.1005  0.9061 -0.7542
  124OSM    H9T13204   0.475   4.483   7.420 -1.3471  1.6809 -1.4110
  124OSM   C10S13205   0.593   4.597   7.554 -0.3688  0.3189 -0.2385
  124OSM   H10S13206   0.530   4.689   7.565 -0.5574 -0.0102  1.8189
  124OSM   H10T13207   0.697   4.635   7.556 -0.2627  0.2665 -2.3874
  124OSM   C11S13208   0.570   4.495   7.668 -0.7900  0.4714  0.3855
  124OSM   H11S13209   0.597   4.398   7.622  1.6380  0.7520  1.0987
  124OSM   H11T13210   0.464   4.492   7.701 -0.8175  0.8747  0.3435
  124OSM   C12S13211   0.657   4.521   7.786 -0.0863  0.4287 -0.4646
  124OSM   H12S13212   0.659   4.623   7.829  1.0854 -0.0533  0.6837
  124OSM   H12T13213   0.764   4.499   7.766 -0.3307 -3.6180  1.7866
  124OSM   C13S13214   0.616   4.422   7.897 -0.3657 -0.4219  0.3263
  124OSM   H13S13215   0.622   4.316   7.865 -0.4524  0.3667 -2.7048
  124OSM   H13T13216   0.509   4.443   7.920 -0.2905  0.9678 -0.4345
  124OSM   C14S13217   0.714   4.426   8.018 -0.6007  0.7316  0.7486
  124OSM   H14S13218   0.818   4.426   7.981 -0.6450  0.8065  0.6238
  124OSM   H14T13219   0.695   4.334   8.077  3.0883  1.2973  3.1163
  124OSM   C15S13220   0.694   4.550   8.099 -0.3228  0.0746 -0.1916
  124OSM   H15S13221   0.741   4.636   8.046  1.3845 -0.3172  0.6183
  124OSM   H15T13222   0.770   4.559   8.180 -0.3942  0.5631 -0.1730
  124OSM   C16S13223   0.560   4.568   8.162 -0.0418  0.1526 -0.0136
  124OSM   H16S13224   0.525   4.467   8.192 -0.4603 -0.2229 -1.6590
  124OSM   H16T13225   0.490   4.599   8.082  0.9772 -0.4622 -1.1679
  124OSM   C17S13226   0.558   4.644   8.292 -0.0904 -0.5385 -0.2834
  124OSM   H17S13227   0.639   4.595   8.351  1.9564 -0.5364 -2.9116
  124OSM   H17T13228   0.461   4.635   8.345  0.2763 -0.9229  0.3410
  124OSM   C18S13229   0.598   4.791   8.284  0.0583 -0.3734  0.6049
  124OSM   H18S13230   0.682   4.802   8.213 -1.1277 -0.9559 -0.9605
  124OSM   H18T13231   0.623   4.827   8.386  0.3961  2.2320 -0.3282
  124OSM   H18U13232   0.513   4.850   8.243  0.3296 -0.8506 -0.7006
  124OSM    C1F13233   0.613   4.142   6.778 -0.0240 -0.0104  0.5494
  124OSM     OF13234   0.691   4.157   6.684  0.2916 -0.7873  0.0451
  124OSM    C2F13235   0.592   4.018   6.857  0.6846 -0.9721  0.1771
  124OSM    H2F13236   0.619   3.930   6.795 -0.0318 -0.3751 -1.0139
  124OSM    H2G13237   0.485   4.011   6.883 -0.0164 -0.0288 -2.1594
  124OSM    C3F13238   0.678   4.027   6.981  0.5449 -0.5570 -0.3743
  124OSM    H3F13239   0.633   3.954   7.052  1.1718 -0.7392 -0.1631
  124OSM    H3G13240   0.676   4.130   7.021  0.1502 -0.0123 -1.7182
  124OSM    C4F13241   0.822   3.985   6.960 -0.4438  0.4086 -0.1401
  124OSM    H4F13242   0.861   4.068   6.898  0.3830 -0.3517 -0.6716
  124OSM    H4G13243   0.829   3.901   6.888  0.3058  2.4553 -2.5886
  124OSM    C5F13244   0.910   3.966   7.081 -0.2416 -0.0941 -1.0207
  124OSM    H5F13245   0.922   4.059   7.140  0.4334  0.0043 -1.3134
  124OSM    H5G13246   1.010   3.937   7.045  0.0870 -0.6501  0.2887
  124OSM    C6F13247   0.851   3.868   7.190  0.1956  0.0486  0.1876
  124OSM    H6F13248   0.820   3.776   7.135  2.1413 -0.2012 -0.5623
  124OSM    H6G13249   0.761   3.920   7.231  0.1771  0.0539  0.1400
  124OSM    C7F13250   0.951   3.835   7.300 -0.0328 -0.6839 -0.1029
  124OSM    H7F13251   0.992   3.932   7.335 -1.2932  0.1316 -0.8137
  124OSM    H7G13252   1.035   3.779   7.254 -0.5560 -0.9462 -0.7552
  124OSM    C8F13253   0.909   3.754   7.423  0.0638 -0.9192  0.8644
  124OSM    H8F13254   1.000   3.753   7.488  0.1125 -0.3973  0.8119
  124OSM    H8G13255   0.888   3.647   7.402  2.5685 -1.2868 -0.1789
  124OSM    C9F13256   0.795   3.827   7.495  1.1258 -0.0582 -1.0833
  124OSM    H9F13257   0.795   3.936   7.484  1.3702  0.3546  1.9412
  124OSM   C10F13258   0.696   3.773   7.574  0.1691 -0.3832 -1.4158
  124OSM   H10F13259   0.612   3.838   7.601  1.0542  0.6174 -0.9967
  124OSM   C11F13260   0.676   3.631   7.607  0.4906 -0.8688  0.3471
  124OSM   H11F13261   0.708   3.566   7.522 -1.1720 -1.8038  0.3950
  124OSM   H11G13262   0.568   3.613   7.626 -0.2095  2.7177  0.3734
  124OSM   C12F13263   0.769   3.586   7.728  0.3560  0.4676  0.1144
  124OSM   H12F13264   0.875   3.590   7.695  0.4315 -2.7545 -0.3737
  124OSM   H12G13265   0.751   3.479   7.749 -1.4995  0.5132 -1.0142
  124OSM   C13F13266   0.768   3.665   7.854 -0.1776 -0.2121  0.7115
  124OSM   H13F13267   0.792   3.772   7.838  1.6784 -0.2337  2.7877
  124OSM   H13G13268   0.854   3.631   7.917  1.1755  1.1305 -0.3335
  124OSM   C14F13269   0.638   3.659   7.940  0.8855  0.7060  0.0708
  124OSM   H14F13270   0.606   3.555   7.962  1.9040 -0.0100 -1.5820
  124OSM   H14G13271   0.559   3.706   7.878  3.3099  4.0520 -0.7346
  124OSM   C15F13272   0.654   3.730   8.074 -0.6510 -0.3169  0.0447
  124OSM   H15F13273   0.554   3.742   8.121 -1.7368 -1.1388 -1.9282
  124OSM   H15G13274   0.688   3.835   8.067 -1.4689  0.1587  2.3408
  124OSM   C16F13275   0.749   3.650   8.170 -0.5296  0.4152 -0.4794
  124OSM   H16F13276   0.846   3.629   8.120 -0.4262  1.5919 -0.8003
  124OSM   H16G13277   0.692   3.555   8.179 -1.2614  0.9883  1.3503
  124OSM   C17F13278   0.759   3.714   8.311  0.3926  0.1826  0.0255
  124OSM   H17F13279   0.778   3.822   8.297  1.3167  0.4178  2.5596
  124OSM   H17G13280   0.850   3.665   8.353  1.3045 -1.6024 -3.6177
  124OSM   C18F13281   0.631   3.707   8.390 -0.1224 -0.1545 -0.0524
  124OSM   H18F13282   0.638   3.783   8.470  3.8205 -1.4130  1.0151
  124OSM   H18G13283   0.615   3.604   8.429  0.3245 -1.2362 -2.5320
  124OSM   H18H13284   0.550   3.731   8.318  0.8661 -0.5159 -1.3283
  125OSM      N13285   1.093   5.984   6.052 -0.6070  0.1426  0.1436
  125OSM    C1513286   1.020   6.105   5.997  0.8993  0.1316 -0.5601
  125OSM   H15A13287   1.015   6.188   6.066 -2.1832 -0.3199 -0.0776
  125OSM   H15B13288   0.919   6.081   5.967  1.5775 -0.4854 -2.4719
  125OSM   H15C13289   1.076   6.141   5.913  0.5876  0.4755 -0.6206
  125OSM    C1413290   1.038   5.863   5.988  0.0160 -0.4150  0.1480
  125OSM   H14A13291   1.025   5.869   5.881 -1.6482 -1.6164  0.2371
  125OSM   H14B13292   0.934   5.845   6.012  0.2804 -3.2286 -0.5269
  125OSM   H14C13293   1.094   5.776   6.018  0.8008  0.3181  0.8303
  125OSM    C1313294   1.238   5.992   6.006 -0.3879 -0.2265  0.4350
  125OSM   H13A13295   1.311   5.927   6.054  0.2015 -0.1489 -0.3354
  125OSM   H13B13296   1.273   6.092   6.027  0.5688 -0.3666 -0.4179
  125OSM   H13C13297   1.234   5.974   5.900 -0.4078  0.6972  0.2723
  125OSM    C1213298   1.093   5.977   6.200  0.1328  0.8656  0.4041
  125OSM   H12A13299   1.152   6.059   6.237 -0.3936  0.9193  1.1458
  125OSM   H12B13300   1.140   5.884   6.230 -0.4646  0.4100 -0.0367
  125OSM    C1113301   0.959   5.976   6.268  0.4868  0.0383  1.1750
  125OSM   H11A13302   0.899   6.064   6.237  0.8718 -0.5417 -1.5309
  125OSM   H11B13303   0.973   5.992   6.377  1.3784  1.0078  0.9357
  125OSM      P13304   0.911   5.713   6.320  0.1533  0.1782  0.0790
  125OSM    O1313305   0.888   5.609   6.215  0.0722  0.5366 -0.5830
  125OSM    O1413306   1.042   5.717   6.395  0.5388 -0.4068 -0.4549
  125OSM    O1113307   0.797   5.708   6.422 -0.2491 -0.0502 -0.2373
  125OSM    O1213308   0.894   5.853   6.237 -0.1475 -0.3209  0.1934
  125OSM    C1S13309   0.725   5.823   6.460  0.0944  0.6673 -0.2781
  125OSM    H1S13310   0.644   5.847   6.388  1.8302 -0.0122 -2.5776
  125OSM    H1T13311   0.788   5.910   6.486 -0.6998  0.7493  1.5030
  125OSM     NF13312   0.565   5.909   6.626  0.5630 -0.2336 -0.1491
  125OSM    HNF13313   0.594   5.975   6.695 -2.5020  2.0758 -0.8464
  125OSM    C2S13314   0.646   5.796   6.589 -0.3112 -0.2364 -0.7138
  125OSM    H2S13315   0.580   5.714   6.555 -1.4162  0.4951 -0.3792
  125OSM    C3S13316   0.741   5.754   6.705 -0.0340 -0.2030 -0.5263
  125OSM    H3S13317   0.815   5.836   6.714  1.9619 -1.6247 -2.9392
  125OSM     O313318   0.829   5.650   6.673 -0.1753 -0.7170 -0.0128
  125OSM    HO313319   0.820   5.638   6.578 -0.6337  3.0360 -0.5946
  125OSM    C4S13320   0.661   5.730   6.830  0.4670  0.2700 -0.8141
  125OSM    H4S13321   0.625   5.824   6.875 -1.8047 -0.4765 -0.9452
  125OSM    C5S13322   0.614   5.611   6.879  0.5618 -0.7004 -0.5026
  125OSM    H5S13323   0.652   5.520   6.831 -0.4603 -1.5728  0.3000
  125OSM    C6S13324   0.519   5.597   6.998 -0.1804 -0.0135  0.5484
  125OSM    H6S13325   0.421   5.558   6.964  0.4115  0.0717 -1.3517
  125OSM    H6T13326   0.505   5.698   7.042 -0.1922  0.3952 -0.3691
  125OSM    C7S13327   0.573   5.496   7.108 -0.3340 -0.6360 -0.4297
  125OSM    H7S13328   0.683   5.511   7.117 -0.4837  1.6135 -1.6509
  125OSM    H7T13329   0.552   5.390   7.079  0.3558 -0.3038 -2.3095
  125OSM    C8S13330   0.504   5.519   7.247 -0.4626  0.6409  0.0333
  125OSM    H8S13331   0.395   5.506   7.234 -0.2113 -2.4149  0.1175
  125OSM    H8T13332   0.534   5.623   7.269 -0.7342  0.8599 -0.6090
  125OSM    C9S13333   0.558   5.436   7.370 -0.5090 -0.0509 -0.2787
  125OSM    H9S13334   0.667   5.455   7.367  0.4816 -3.8786  2.7645
  125OSM    H9T13335   0.556   5.330   7.335 -0.3919 -0.3140  0.4968
  125OSM   C10S13336   0.503   5.479   7.504  0.1061 -0.1162 -0.7235
  125OSM   H10S13337   0.402   5.436   7.525 -0.5132  1.5514 -0.1620
  125OSM   H10T13338   0.495   5.590   7.504 -0.3881 -0.1374  0.2546
  125OSM   C11S13339   0.601   5.451   7.617  0.1688 -0.2240 -0.3093
  125OSM   H11S13340   0.695   5.507   7.596  1.0646 -0.5959  2.2534
  125OSM   H11T13341   0.621   5.342   7.626 -1.3013 -0.5874 -1.2161
  125OSM   C12S13342   0.548   5.494   7.755  0.6641  0.0353 -0.0587
  125OSM   H12S13343   0.472   5.423   7.794 -0.6875  1.6066  0.2920
  125OSM   H12T13344   0.504   5.596   7.744  0.0615 -0.0057  1.5569
  125OSM   C13S13345   0.662   5.525   7.854 -0.1115 -0.8388  0.0102
  125OSM   H13S13346   0.747   5.572   7.799 -0.2383 -2.1758 -1.3791
  125OSM   H13T13347   0.705   5.433   7.898 -0.5650 -0.6738  0.8240
  125OSM   C14S13348   0.613   5.610   7.971 -1.0442 -0.0289 -0.4105
  125OSM   H14S13349   0.544   5.557   8.040 -0.9185 -0.2098 -0.4199
  125OSM   H14T13350   0.565   5.697   7.923 -0.2095  0.4187 -0.4565
  125OSM   C15S13351   0.729   5.664   8.063  0.1674 -0.4091 -0.2602
  125OSM   H15S13352   0.781   5.732   7.993 -3.6115  2.1767 -0.8452
  125OSM   H15T13353   0.799   5.579   8.080  2.0064  1.1220  0.2015
  125OSM   C16S13354   0.684   5.735   8.192  0.4196  0.0080 -0.3981
  125OSM   H16S13355   0.596   5.678   8.228 -0.5994  1.9329  0.3105
  125OSM   H16T13356   0.640   5.837   8.184  0.4089  0.2741  2.1837
  125OSM   C17S13357   0.789   5.730   8.308 -0.1075  0.6436 -0.0640
  125OSM   H17S13358   0.843   5.827   8.298  0.9765 -0.0187 -0.9819
  125OSM   H17T13359   0.855   5.652   8.264 -0.2958  0.5648 -0.2051
  125OSM   C18S13360   0.731   5.710   8.447 -0.9588  0.7634  0.2504
  125OSM   H18S13361   0.635   5.763   8.466 -0.8921  0.6480  0.9217
  125OSM   H18T13362   0.815   5.718   8.519 -0.4912 -1.3642  0.0119
  125OSM   H18U13363   0.703   5.604   8.468 -1.3914  1.0834  1.3584
  125OSM    C1F13364   0.455   5.952   6.561  1.0611 -0.3391  0.2180
  125OSM     OF13365   0.400   5.892   6.469 -0.5855  0.8388  0.0268
  125OSM    C2F13366   0.377   6.069   6.619 -0.2242 -0.3138 -0.5535
  125OSM    H2F13367   0.365   6.138   6.532  1.0132 -0.8475 -1.1766
  125OSM    H2G13368   0.441   6.123   6.692  1.0597 -0.2577 -1.6860
  125OSM    C3F13369   0.242   6.037   6.694  0.5053 -0.0712  0.0864
  125OSM    H3F13370   0.173   5.985   6.625  0.5240  1.1491 -0.8809
  125OSM    H3G13371   0.211   6.143   6.696  0.2654 -0.0826 -1.5403
  125OSM    C4F13372   0.248   5.953   6.823 -0.1315  0.4477 -0.5137
  125OSM    H4F13373   0.315   5.867   6.802  0.2213  1.0586 -1.9829
  125OSM    H4G13374   0.153   5.898   6.838  0.7584 -0.6964  1.2978
  125OSM    C5F13375   0.285   6.029   6.955  0.7836 -0.1376 -0.1582
  125OSM    H5F13376   0.351   6.115   6.929  0.6387 -0.8487 -3.2561
  125OSM    H5G13377   0.331   5.954   7.024 -1.2981 -2.0876 -0.7830
  125OSM    C6F13378   0.162   6.094   7.020 -0.7297  0.6397 -0.2739
  125OSM    H6F13379   0.081   6.019   7.032  0.1173 -0.1123  1.0906
  125OSM    H6G13380   0.131   6.174   6.950  0.5765  1.2566 -0.1887
  125OSM    C7F13381   0.197   6.164   7.151  0.4372 -0.9664 -0.3933
  125OSM    H7F13382   0.115   6.228   7.190  1.4940  1.0110 -1.2944
  125OSM    H7G13383   0.281   6.236   7.144 -0.9688  0.8805  0.6175
  125OSM    C8F13384   0.213   6.061   7.271 -0.3020 -0.1783  0.2458
  125OSM    H8F13385   0.287   5.985   7.238  1.8641  0.0885  3.9017
  125OSM    H8G13386   0.117   6.007   7.283 -0.3964 -0.0059  0.2615
  125OSM    C9F13387   0.249   6.122   7.405  0.0456  0.4354  0.1121
  125OSM    H9F13388   0.290   6.222   7.384 -0.3937  0.2343 -1.9237
  125OSM   C10F13389   0.238   6.070   7.522  0.0222  0.2065 -0.2177
  125OSM   H10F13390   0.268   6.136   7.605  0.8501  0.5172 -0.7452
  125OSM   C11F13391   0.193   5.936   7.559  0.7651  0.3835  0.4312
  125OSM   H11F13392   0.217   5.863   7.479  0.0398 -0.9262  1.3808
  125OSM   H11G13393   0.084   5.934   7.577  0.3630 -1.3276 -1.7670
  125OSM   C12F13394   0.261   5.875   7.677  0.4982  0.1368  0.3347
  125OSM   H12F13395   0.370   5.860   7.657  0.0674 -2.2785 -0.4575
  125OSM   H12G13396   0.217   5.774   7.686  0.1629  0.1006 -1.3232
  125OSM   C13F13397   0.225   5.933   7.814 -0.4562 -0.1188 -0.3490
  125OSM   H13F13398   0.116   5.940   7.831 -0.6315  1.0866 -1.7294
  125OSM   H13G13399   0.276   6.032   7.822 -0.1467 -0.1619 -1.5704
  125OSM   C14F13400   0.289   5.855   7.937 -1.0316 -0.2827  0.7442
  125OSM   H14F13401   0.385   5.814   7.900  0.0372  1.4623  1.4428
  125OSM   H14G13402   0.227   5.763   7.945 -1.4522 -0.2011 -1.1156
  125OSM   C15F13403   0.312   5.934   8.069  0.5847 -0.1207  0.6312
  125OSM   H15F13404   0.222   5.999   8.075 -1.3360 -2.6178  0.6069
  125OSM   H15G13405   0.402   5.996   8.053 -0.4173  1.6368  1.4793
  125OSM   C16F13406   0.330   5.840   8.194  0.1237 -0.1575  0.1695
  125OSM   H16F13407   0.409   5.763   8.183 -0.6958 -1.3254  2.0475
  125OSM   H16G13408   0.234   5.786   8.202 -1.7536  3.2048  3.2302
  125OSM   C17F13409   0.359   5.911   8.331  0.3791  0.0547  0.1680
  125OSM   H17F13410   0.275   5.981   8.350 -0.4774 -0.5477 -1.2053
  125OSM   H17G13411   0.454   5.969   8.327 -1.4118  3.1297 -1.4906
  125OSM   C18F13412   0.367   5.810   8.446 -0.4148  0.5485 -0.1022
  125OSM   H18F13413   0.266   5.765   8.453 -0.4800  0.6333 -0.4522
  125OSM   H18G13414   0.409   5.864   8.533  3.3019 -0.7040 -0.8956
  125OSM   H18H13415   0.435   5.731   8.406 -0.4827  0.6167 -0.3504
  126OSM      N13416   5.509   4.589   6.241  0.3537 -0.0685 -0.4338
  126OSM    C1513417   5.544   4.441   6.216  0.3461 -1.1625  0.1985
  126OSM   H15A13418   5.459   4.378   6.237 -0.6108 -0.2317 -0.7129
  126OSM   H15B13419   5.620   4.398   6.280  1.1160 -1.3778 -0.8269
  126OSM   H15C13420   5.569   4.436   6.111  0.8938  2.0177  0.0719
  126OSM    C1413421   5.632   4.676   6.221  0.3074  0.3629  0.4063
  126OSM   H14A13422   5.705   4.633   6.289 -0.1878  0.7837  1.2230
  126OSM   H14B13423   5.600   4.776   6.246 -1.2447 -0.3438  1.4509
  126OSM   H14C13424   5.669   4.672   6.120  1.2256 -2.6723  0.7473
  126OSM    C1313425   5.397   4.635   6.142 -0.2726 -0.6499 -0.4069
  126OSM   H13A13426   5.302   4.593   6.171  0.0421  0.1817  2.1140
  126OSM   H13B13427   5.428   4.596   6.046  1.3927 -0.5676  0.0619
  126OSM   H13C13428   5.396   4.742   6.156 -0.3351 -0.7312  0.2468
  126OSM    C1213429   5.468   4.593   6.388  0.2206 -0.2703  1.2204
  126OSM   H12A13430   5.463   4.696   6.421 -0.2900 -0.1660  0.8325
  126OSM   H12B13431   5.551   4.547   6.440  2.1051  0.4039 -1.0202
  126OSM    C1113432   5.344   4.515   6.436  0.1400  0.0482  0.1524
  126OSM   H11A13433   5.334   4.495   6.545  1.2445  3.9962  1.1233
  126OSM   H11B13434   5.343   4.413   6.392  0.1384  0.6215 -1.2433
  126OSM      P13435   5.168   4.718   6.435  0.0559  0.3330  0.1716
  126OSM    O1313436   5.272   4.823   6.454  0.8586  0.2449  0.5862
  126OSM    O1413437   5.064   4.757   6.340  0.2295 -0.3352 -0.1893
  126OSM    O1113438   5.097   4.689   6.571 -0.7362  0.2231 -0.0125
  126OSM    O1213439   5.229   4.582   6.387 -0.7823 -0.6944 -0.7199
  126OSM    C1S13440   5.022   4.570   6.601 -0.7406  0.7494 -0.2905
  126OSM    H1S13441   5.042   4.484   6.534 -1.9709 -0.3158  0.6530
  126OSM    H1T13442   4.914   4.598   6.602 -0.5465  1.5187  0.5831
  126OSM     NF13443   4.987   4.392   6.772 -0.7069  0.3847  0.2924
  126OSM    HNF13444   4.903   4.410   6.822 -0.7966  1.2917 -0.1804
  126OSM    C2S13445   5.063   4.512   6.743  0.0505  0.1267  0.2969
  126OSM    H2S13446   5.173   4.494   6.733  0.6223  1.6239  2.9011
  126OSM    C3S13447   5.049   4.623   6.855  0.2741  0.6641 -0.1504
  126OSM    H3S13448   4.950   4.670   6.839 -0.1671  0.2086  1.0883
  126OSM     O313449   5.137   4.733   6.845 -0.2413  0.4477  0.2120
  126OSM    HO313450   5.173   4.723   6.757  0.3397  1.5949  0.3124
  126OSM    C4S13451   5.060   4.560   6.988  0.2544  0.2307 -0.2147
  126OSM    H4S13452   5.146   4.494   7.005  0.7896  0.9559 -0.0809
  126OSM    C5S13453   4.977   4.596   7.085  1.0864 -0.0369 -0.5712
  126OSM    H5S13454   4.930   4.693   7.063 -0.6338 -0.1333  2.1165
  126OSM    C6S13455   4.967   4.556   7.226 -0.0860  0.0051 -0.6409
  126OSM    H6S13456   5.051   4.487   7.250  0.9428  1.4320  0.0533
  126OSM    H6T13457   4.881   4.491   7.252 -0.0131  0.4979  0.9873
  126OSM    C7S13458   4.962   4.677   7.324  0.2422  0.0958 -0.1635
  126OSM    H7S13459   4.882   4.747   7.293  0.8478  0.4591 -0.9140
  126OSM    H7T13460   5.059   4.730   7.326 -0.6536  1.7951  0.9292
  126OSM    C8S13461   4.960   4.642   7.479  0.4464 -0.7387  1.1261
  126OSM    H8S13462   5.038   4.568   7.506  0.4929 -0.9619  0.4120
  126OSM    H8T13463   4.860   4.602   7.506 -1.7561  1.4795 -2.7741
  126OSM    C9S13464   4.971   4.769   7.551 -1.1234 -0.2304 -0.6320
  126OSM    H9S13465   4.902   4.844   7.507  0.5584  0.1215 -2.8400
  126OSM    H9T13466   5.072   4.815   7.540 -1.0872 -0.1620 -0.0472
  126OSM   C10S13467   4.950   4.749   7.705  0.1751 -0.2340  0.5047
  126OSM   H10S13468   5.037   4.693   7.746  1.5418  0.5571 -1.1647
  126OSM   H10T13469   4.854   4.700   7.730 -0.6427  0.8621 -0.3473
  126OSM   C11S13470   4.934   4.889   7.765 -0.7932 -0.8257 -0.0348
  126OSM   H11S13471   4.857   4.951   7.714  0.9563  1.4471 -0.0873
  126OSM   H11T13472   5.030   4.945   7.762 -1.5330  0.4567 -0.5396
  126OSM   C12S13473   4.888   4.870   7.907 -0.7659 -0.2586  0.2284
  126OSM   H12S13474   4.943   4.787   7.955 -2.8645 -1.7520  0.1636
  126OSM   H12T13475   4.784   4.836   7.887 -0.8575 -0.1510  0.5127
  126OSM   C13S13476   4.896   5.000   7.987  0.8274  0.3383 -0.1270
  126OSM   H13S13477   4.825   5.079   7.953 -1.3013 -0.6938  1.6829
  126OSM   H13T13478   5.003   5.027   7.975  1.0341 -0.3339  0.1869
  126OSM   C14S13479   4.871   4.966   8.130 -0.0487  0.4518 -0.5101
  126OSM   H14S13480   4.940   4.891   8.173  0.5934  1.7958  0.9093
  126OSM   H14T13481   4.771   4.917   8.134  0.2460 -0.2262 -1.1381
  126OSM   C15S13482   4.874   5.092   8.219 -0.2481 -0.1109  0.1680
  126OSM   H15S13483   4.820   5.174   8.167 -0.4415 -0.3437 -0.0025
  126OSM   H15T13484   4.982   5.117   8.214 -0.1618  0.2565  2.7686
  126OSM   C16S13485   4.837   5.085   8.369  0.2544  0.2521 -0.2158
  126OSM   H16S13486   4.890   5.003   8.422 -0.4954 -0.6912 -0.8839
  126OSM   H16T13487   4.729   5.064   8.385  0.4414  0.9613  2.3153
  126OSM   C17S13488   4.865   5.216   8.443  0.1423 -0.7412  0.1814
  126OSM   H17S13489   4.806   5.296   8.392 -0.1927 -0.8780  0.3497
  126OSM   H17T13490   4.972   5.246   8.437 -0.2595  0.6840 -0.2452
  126OSM   C18S13491   4.823   5.218   8.591 -0.0285 -0.2583 -0.4913
  126OSM   H18S13492   4.871   5.151   8.666 -1.3811  0.1576  0.8008
  126OSM   H18T13493   4.715   5.194   8.599 -0.1701  0.5539  0.1529
  126OSM   H18U13494   4.828   5.318   8.639 -0.7173  0.3513 -1.6611
  126OSM    C1F13495   5.001   4.275   6.707 -0.8659 -0.4404  0.2696
  126OSM     OF13496   5.080   4.264   6.615  0.2110  0.5317 -0.0151
  126OSM    C2F13497   4.907   4.163   6.730 -0.1189  0.1982 -0.2161
  126OSM    H2F13498   4.861   4.139   6.632 -1.8458  3.5304 -0.3721
  126OSM    H2G13499   4.834   4.214   6.797 -0.2815  0.4588 -0.5831
  126OSM    C3F13500   4.977   4.043   6.796  0.3499  0.1786 -0.0890
  126OSM    H3F13501   5.062   4.009   6.733  1.4647  0.5000  1.2054
  126OSM    H3G13502   4.909   3.956   6.810 -1.3914  1.3914 -0.5771
  126OSM    C4F13503   5.036   4.062   6.936 -0.1346 -0.4435 -0.2545
  126OSM    H4F13504   5.108   4.146   6.926  0.0268 -0.5277  0.1817
  126OSM    H4G13505   5.098   3.973   6.964  1.7749  0.3680 -1.6421
  126OSM    C5F13506   4.934   4.106   7.048 -0.9388 -0.4040 -0.6537
  126OSM    H5F13507   4.847   4.038   7.031 -1.4757  0.1678 -0.2288
  126OSM    H5G13508   4.905   4.213   7.038  1.9306  0.3177 -2.4282
  126OSM    C6F13509   4.988   4.102   7.196  0.2229  0.3139 -0.1912
  126OSM    H6F13510   4.999   4.000   7.237 -1.8270  0.3337  0.4991
  126OSM    H6G13511   4.911   4.160   7.251  0.5543  1.2990 -0.7276
  126OSM    C7F13512   5.125   4.171   7.214  0.1377 -0.2682  0.2800
  126OSM    H7F13513   5.120   4.256   7.143 -2.3335  0.5244  1.2969
  126OSM    H7G13514   5.197   4.097   7.173  0.1396  0.8479 -1.8556
  126OSM    C8F13515   5.144   4.228   7.354 -0.0721  0.5230 -0.4047
  126OSM    H8F13516   5.062   4.291   7.394  1.4676  0.5919  3.0321
  126OSM    H8G13517   5.227   4.298   7.333  0.2556  0.1098 -0.4951
  126OSM    C9F13518   5.180   4.124   7.466  0.0597  0.3101 -0.1988
  126OSM    H9F13519   5.195   4.021   7.430 -2.4938 -0.7675  1.4774
  126OSM   C10F13520   5.164   4.135   7.602 -0.3374  0.0101  0.0511
  126OSM   H10F13521   5.165   4.048   7.670  2.8133  0.2083  0.3926
  126OSM   C11F13522   5.121   4.258   7.682 -0.2484  0.1292  0.0035
  126OSM   H11F13523   5.037   4.311   7.632 -1.0665 -0.3982  0.7952
  126OSM   H11G13524   5.201   4.335   7.681 -0.7886  0.7967 -2.8709
  126OSM   C12F13525   5.087   4.230   7.834  0.4667 -0.2747  0.8103
  126OSM   H12F13526   5.184   4.182   7.860  0.9712  0.4616  0.3316
  126OSM   H12G13527   5.004   4.157   7.845  1.3145 -0.9216  4.0571
  126OSM   C13F13528   5.050   4.359   7.907  0.5598  0.5365  0.0185
  126OSM   H13F13529   4.945   4.378   7.875  0.7426 -0.8567 -1.5400
  126OSM   H13G13530   5.109   4.448   7.874  1.1146 -0.4310 -1.7556
  126OSM   C14F13531   5.045   4.350   8.058 -0.0766 -0.1250  0.2723
  126OSM   H14F13532   5.000   4.250   8.076 -0.3680  0.0619  0.6089
  126OSM   H14G13533   4.972   4.423   8.099  0.7036  0.5369  0.4947
  126OSM   C15F13534   5.178   4.380   8.125 -0.3317  0.1280  0.1204
  126OSM   H15F13535   5.262   4.320   8.083 -1.4217 -2.2754  1.1831
  126OSM   H15G13536   5.167   4.356   8.233  0.8300 -2.9222 -0.3447
  126OSM   C16F13537   5.235   4.529   8.134  0.5729 -0.5021 -1.2049
  126OSM   H16F13538   5.273   4.550   8.032  2.4844 -2.5831 -0.9866
  126OSM   H16G13539   5.325   4.530   8.198  1.5961  1.2438 -2.5928
  126OSM   C17F13540   5.137   4.634   8.189  0.7729 -0.1161  0.0903
  126OSM   H17F13541   5.043   4.631   8.130 -0.1548 -4.1541  1.4628
  126OSM   H17G13542   5.176   4.734   8.162 -0.6796  0.4144 -0.0762
  126OSM   C18F13543   5.105   4.615   8.341  0.4675  0.2662  0.3764
  126OSM   H18F13544   5.078   4.512   8.373 -0.7612  1.5032  3.8245
  126OSM   H18G13545   5.021   4.677   8.378 -0.4382  0.5559 -2.0073
  126OSM   H18H13546   5.191   4.639   8.408  0.7330  1.0266 -0.2181
  127OSM      N13547   5.039   3.346   5.982 -0.3794 -0.0843 -0.3391
  127OSM    C1513548   5.118   3.321   5.860  0.2683 -0.2109  0.3129
  127OSM   H15A13549   5.111   3.217   5.831 -1.5353 -0.4915  1.5785
  127OSM   H15B13550   5.224   3.337   5.868  0.1341  1.0317 -0.2564
  127OSM   H15C13551   5.078   3.380   5.779 -0.5404 -0.6532  0.3791
  127OSM    C1413552   5.041   3.495   6.008 -0.4628 -0.9252 -0.3232
  127OSM   H14A13553   5.009   3.527   6.106  3.6149  1.1290  0.5823
  127OSM   H14B13554   4.983   3.553   5.938 -0.4550  0.2698  0.6405
  127OSM   H14C13555   5.145   3.519   5.989 -0.7635 -0.6099 -1.6237
  127OSM    C1313556   4.895   3.309   5.960  0.9170 -0.5350  0.0894
  127OSM   H13A13557   4.878   3.209   5.922 -0.5171 -0.2091 -0.1765
  127OSM   H13B13558   4.847   3.380   5.895 -0.9032  0.4711  2.3855
  127OSM   H13C13559   4.836   3.314   6.051  0.4488  0.7242 -0.2771
  127OSM    C1213560   5.096   3.270   6.100  0.2356 -0.2233 -0.5412
  127OSM   H12A13561   5.057   3.169   6.093  0.4128 -0.2566 -1.1471
  127OSM   H12B13562   5.047   3.299   6.192  1.9452  0.8937  0.0620
  127OSM    C1113563   5.245   3.276   6.129 -0.1068  0.4399 -0.0184
  127OSM   H11A13564   5.303   3.245   6.039 -1.7491  0.5647 -1.1481
  127OSM   H11B13565   5.272   3.195   6.200  0.5239  1.3285  0.7756
  127OSM      P13566   5.245   3.473   6.310 -0.1588  0.3431  0.2058
  127OSM    O1313567   5.351   3.572   6.345 -0.8249  0.1590  0.5086
  127OSM    O1413568   5.104   3.518   6.310  0.9314  0.0396  0.7156
  127OSM    O1113569   5.249   3.353   6.410 -0.2814  0.1122  0.0422
  127OSM    O1213570   5.290   3.405   6.175  0.2563  0.4636  0.3483
  127OSM    C1S13571   5.373   3.321   6.476 -0.3943  0.6860 -0.0370
  127OSM    H1S13572   5.458   3.376   6.431  1.0292 -1.3799 -0.0164
  127OSM    H1T13573   5.385   3.211   6.462 -1.3552  0.9105 -3.1929
  127OSM     NF13574   5.501   3.325   6.698 -0.0407  0.1544 -0.2464
  127OSM    HNF13575   5.522   3.235   6.737  0.2758 -0.0183 -0.8059
  127OSM    C2S13576   5.371   3.346   6.628 -0.5425  0.0826  0.0892
  127OSM    H2S13577   5.359   3.455   6.642  1.7627  0.1873  1.7974
  127OSM    C3S13578   5.249   3.271   6.682  0.4071 -0.1821  0.7273
  127OSM    H3S13579   5.254   3.162   6.661 -0.8208 -0.1854  0.3704
  127OSM     O313580   5.126   3.304   6.622  0.0570 -0.4837 -0.1647
  127OSM    HO313581   5.142   3.332   6.532 -1.0114  0.2983 -0.1397
  127OSM    C4S13582   5.232   3.282   6.833 -0.5619 -0.3696 -0.8730
  127OSM    H4S13583   5.221   3.387   6.863 -0.4899 -0.3244 -1.0055
  127OSM    C5S13584   5.226   3.186   6.928  0.4685  0.4935 -0.2291
  127OSM    H5S13585   5.241   3.082   6.894  1.9139  0.4876  0.3812
  127OSM    C6S13586   5.209   3.207   7.075 -0.5244 -0.3035 -0.3976
  127OSM    H6S13587   5.296   3.198   7.144 -2.0771 -0.2162  1.6505
  127OSM    H6T13588   5.139   3.127   7.107  1.7775 -2.1462  0.3184
  127OSM    C7S13589   5.156   3.351   7.109  0.6964  0.1474 -0.3855
  127OSM    H7S13590   5.073   3.382   7.042 -0.0873  0.2090  0.5918
  127OSM    H7T13591   5.237   3.422   7.084 -0.5824  1.5707 -0.6625
  127OSM    C8S13592   5.118   3.373   7.258  0.5569  0.0368  0.3543
  127OSM    H8S13593   5.096   3.479   7.282  3.7149  1.1492 -1.1122
  127OSM    H8T13594   5.208   3.340   7.315  2.1416 -1.9061 -2.9359
  127OSM    C9S13595   5.007   3.286   7.320 -0.0270  0.7588 -0.9624
  127OSM    H9S13596   5.032   3.183   7.290  0.8595  1.2632 -2.0216
  127OSM    H9T13597   4.902   3.314   7.297 -0.0581 -0.2919 -2.1665
  127OSM   C10S13598   5.014   3.285   7.475 -0.8457  0.0217  0.3996
  127OSM   H10S13599   4.978   3.385   7.508  1.5379  1.0021  0.1999
  127OSM   H10T13600   5.121   3.281   7.504 -0.7379  1.8340  0.3676
  127OSM   C11S13601   4.949   3.160   7.547 -0.4404 -0.3371 -0.0961
  127OSM   H11S13602   4.974   3.062   7.499 -0.0324  0.4456 -1.5492
  127OSM   H11T13603   4.839   3.166   7.539 -0.6864 -1.8878  1.5610
  127OSM   C12S13604   4.996   3.151   7.693  0.2748  0.4901  0.2261
  127OSM   H12S13605   5.107   3.156   7.685  0.4219 -0.9949  0.9429
  127OSM   H12T13606   4.978   3.045   7.722 -0.8214 -0.2426 -2.7487
  127OSM   C13S13607   4.926   3.242   7.796  0.9855  0.2615 -0.1066
  127OSM   H13S13608   4.817   3.249   7.777  0.9480  3.2379  0.6365
  127OSM   H13T13609   4.963   3.345   7.774 -1.3842  0.8224 -2.0316
  127OSM   C14S13610   4.951   3.194   7.936 -0.0317  0.1361  0.1970
  127OSM   H14S13611   5.058   3.182   7.962 -0.1452  0.9563  1.1017
  127OSM   H14T13612   4.911   3.091   7.949  0.7339 -0.2651 -0.5808
  127OSM   C15S13613   4.882   3.282   8.051  0.4471 -0.2917  0.2745
  127OSM   H15S13614   4.773   3.262   8.041  0.8282 -2.2977 -0.2174
  127OSM   H15T13615   4.902   3.385   8.014  1.6834 -1.2735 -2.0062
  127OSM   C16S13616   4.930   3.242   8.184  0.3855 -0.3407 -0.5430
  127OSM   H16S13617   4.911   3.134   8.203 -2.5283 -0.0160 -1.0812
  127OSM   H16T13618   4.862   3.286   8.260  0.8995 -0.1330 -0.1985
  127OSM   C17S13619   5.074   3.283   8.221  0.2449  0.3789  0.0652
  127OSM   H17S13620   5.068   3.394   8.218 -0.2549  0.3548  0.1776
  127OSM   H17T13621   5.144   3.247   8.142 -2.3840 -1.3369 -1.6468
  127OSM   C18S13622   5.101   3.226   8.359 -0.2650  0.0408 -0.6108
  127OSM   H18S13623   5.211   3.222   8.368 -0.3472  0.0805  0.4812
  127OSM   H18T13624   5.056   3.125   8.348 -0.1489 -0.1876  0.8819
  127OSM   H18U13625   5.044   3.287   8.432 -0.7370 -0.9738 -0.1070
  127OSM    C1F13626   5.606   3.396   6.662 -0.0926 -0.2833 -0.7169
  127OSM     OF13627   5.588   3.513   6.633 -0.1536  0.1261  0.5867
  127OSM    C2F13628   5.736   3.318   6.644  0.1648  0.1961  0.9202
  127OSM    H2F13629   5.756   3.316   6.535  0.2613 -1.6322  0.9523
  127OSM    H2G13630   5.709   3.218   6.685 -1.4945 -0.3023 -1.2113
  127OSM    C3F13631   5.854   3.383   6.712  0.2868  0.8800 -1.1217
  127OSM    H3F13632   5.881   3.485   6.675  1.2289  1.3621  0.7847
  127OSM    H3G13633   5.940   3.319   6.686 -0.1832  1.2130 -3.9152
  127OSM    C4F13634   5.838   3.386   6.861 -0.1256 -0.5207  0.2999
  127OSM    H4F13635   5.778   3.475   6.891  1.2687  0.6813 -0.3091
  127OSM    H4G13636   5.943   3.397   6.897  0.8006 -1.9638 -1.8174
  127OSM    C5F13637   5.779   3.253   6.924  0.1532 -1.0093 -0.2078
  127OSM    H5F13638   5.844   3.171   6.887  2.9699  0.7545  0.5404
  127OSM    H5G13639   5.672   3.236   6.897  0.1920 -1.9169  0.1623
  127OSM    C6F13640   5.798   3.244   7.071  0.0723  0.3694  0.4766
  127OSM    H6F13641   5.905   3.250   7.101 -0.2283  0.1702  1.6312
  127OSM    H6G13642   5.763   3.143   7.101 -1.1104  0.7186  0.3291
  127OSM    C7F13643   5.742   3.363   7.149 -0.2910  0.6562 -0.2487
  127OSM    H7F13644   5.640   3.391   7.113  0.2901  2.2394 -0.7296
  127OSM    H7G13645   5.811   3.448   7.134  1.0263 -0.5350 -1.1937
  127OSM    C8F13646   5.734   3.330   7.297 -0.5229  0.2530 -0.4332
  127OSM    H8F13647   5.695   3.417   7.354 -4.7141 -2.1438  0.8702
  127OSM    H8G13648   5.833   3.296   7.333 -1.8296 -3.4628  0.1074
  127OSM    C9F13649   5.631   3.231   7.331  0.6591 -0.6152  0.4506
  127OSM    H9F13650   5.561   3.214   7.247 -0.0244  0.3027  0.8244
  127OSM   C10F13651   5.624   3.177   7.454 -0.0155 -0.1743 -0.2705
  127OSM   H10F13652   5.548   3.099   7.467 -2.0773  1.7100 -0.5332
  127OSM   C11F13653   5.727   3.195   7.564 -0.1565  0.5606 -0.1790
  127OSM   H11F13654   5.768   3.298   7.569  0.5330  0.3501 -1.1214
  127OSM   H11G13655   5.803   3.121   7.530  0.5799 -0.0861  2.6215
  127OSM   C12F13656   5.682   3.140   7.701 -0.1249 -0.4591 -0.3752
  127OSM   H12F13657   5.579   3.177   7.719  0.3468  0.6914  0.0934
  127OSM   H12G13658   5.753   3.181   7.776  0.0002  2.0688 -1.7615
  127OSM   C13F13659   5.689   2.986   7.698 -0.3612  0.1327  0.2333
  127OSM   H13F13660   5.761   2.943   7.624  0.3268  1.2515  0.2301
  127OSM   H13G13661   5.590   2.954   7.657 -1.1020  0.7717  1.4735
  127OSM   C14F13662   5.702   2.925   7.838  0.0409  0.1709 -0.2911
  127OSM   H14F13663   5.675   2.818   7.826 -2.2146  0.3953  1.8675
  127OSM   H14G13664   5.619   2.966   7.900  1.5237  1.9820  0.6151
  127OSM   C15F13665   5.849   2.944   7.895  0.2266 -1.0293  0.0296
  127OSM   H15F13666   5.868   3.051   7.916  1.0720 -1.2215  0.3021
  127OSM   H15G13667   5.922   2.926   7.813 -1.0548  0.6656 -1.5590
  127OSM   C16F13668   5.887   2.865   8.023 -0.5939  0.1530  1.1196
  127OSM   H16F13669   5.903   2.761   7.988  1.8095  0.5210  0.9788
  127OSM   H16G13670   5.805   2.877   8.098 -1.7347 -0.4971  0.0133
  127OSM   C17F13671   6.022   2.903   8.079 -0.1462  0.3505  0.4495
  127OSM   H17F13672   6.014   3.007   8.117  1.0926  0.0207  1.6876
  127OSM   H17G13673   6.099   2.898   7.999 -1.8509  2.0773 -1.4450
  127OSM   C18F13674   6.066   2.808   8.188  0.6569 -0.5577 -0.1389
  127OSM   H18F13675   6.074   2.700   8.163 -3.2252 -0.8821 -0.5587
  127OSM   H18G13676   5.984   2.817   8.262  0.4736 -0.3499 -0.3638
  127OSM   H18H13677   6.158   2.856   8.228 -1.0189  2.4465  0.3783
  128OSM      N13678   0.707   6.743   5.854 -0.5045  0.1210  0.2739
  128OSM    C1513679   0.720   6.623   5.761  0.2650 -0.4195 -0.3052
  128OSM   H15A13680   0.786   6.551   5.809  2.3495  1.9419  0.5875
  128OSM   H15B13681   0.775   6.655   5.673 -0.6468  2.3188  0.0398
  128OSM   H15C13682   0.632   6.581   5.715  0.4548  0.2550 -1.3306
  128OSM    C1413683   0.819   6.842   5.833  0.1746 -0.4944 -0.0957
  128OSM   H14A13684   0.829   6.867   5.729 -1.5747 -2.4837 -0.7983
  128OSM   H14B13685   0.914   6.800   5.861  0.8909  1.9700  1.5745
  128OSM   H14C13686   0.806   6.925   5.902 -0.0688 -2.4213  2.3136
  128OSM    C1313687   0.582   6.808   5.808 -0.7467  0.4951 -0.0774
  128OSM   H13A13688   0.555   6.805   5.703 -2.1273  1.9336  0.1912
  128OSM   H13B13689   0.585   6.914   5.826  0.4812  0.4099  0.2750
  128OSM   H13C13690   0.499   6.752   5.849  0.8631 -0.7048  1.6771
  128OSM    C1213691   0.691   6.716   5.999 -0.9647 -0.8015 -0.0172
  128OSM   H12A13692   0.623   6.632   6.010 -1.9625  0.2013  2.1869
  128OSM   H12B13693   0.635   6.798   6.042 -2.9134 -1.8498 -0.4235
  128OSM    C1113694   0.814   6.670   6.086 -0.1552  0.4039 -0.2992
  128OSM   H11A13695   0.781   6.664   6.192  0.1907  1.4212 -0.1268
  128OSM   H11B13696   0.885   6.754   6.071 -0.8219  0.9955 -0.1661
  128OSM      P13697   0.799   6.410   6.057  0.0544 -0.3305  0.0068
  128OSM    O1313698   0.663   6.417   6.096  0.4606 -0.2349 -0.9224
  128OSM    O1413699   0.829   6.327   5.936  0.1163  0.1617  0.0129
  128OSM    O1113700   0.877   6.344   6.177 -0.1226 -0.0068 -0.0522
  128OSM    O1213701   0.872   6.550   6.053  0.3086 -0.1000 -0.3566
  128OSM    C1S13702   0.955   6.414   6.279  0.1325 -0.0538  0.9031
  128OSM    H1S13703   0.994   6.512   6.245  1.0014 -0.1654  1.5410
  128OSM    H1T13704   1.043   6.349   6.297  0.1319 -1.1076 -2.3389
  128OSM     NF13705   0.977   6.492   6.515  0.1834 -0.2180 -0.5198
  128OSM    HNF13706   1.020   6.428   6.578 -0.1109  0.7688  0.7148
  128OSM    C2S13707   0.881   6.438   6.414  0.5398  0.7859 -1.2564
  128OSM    H2S13708   0.801   6.512   6.397  0.9193  1.3285 -0.7443
  128OSM    C3S13709   0.809   6.302   6.462 -0.5645 -0.5430 -0.1241
  128OSM    H3S13710   0.897   6.242   6.493  1.5397  0.7233 -3.0618
  128OSM     O313711   0.749   6.220   6.363  0.2874 -0.2213 -0.2416
  128OSM    HO313712   0.789   6.258   6.285 -0.6519 -0.1253 -0.6927
  128OSM    C4S13713   0.718   6.330   6.576  0.3376 -0.4113 -0.8150
  128OSM    H4S13714   0.759   6.285   6.667 -1.6704  1.3396  1.0761
  128OSM    C5S13715   0.614   6.414   6.575  0.1540 -0.3356  0.0932
  128OSM    H5S13716   0.588   6.463   6.480  0.5490  0.3272  0.3176
  128OSM    C6S13717   0.521   6.442   6.690  0.3071 -0.1980 -0.0002
  128OSM    H6S13718   0.453   6.360   6.718 -0.0493  0.3386  0.7293
  128OSM    H6T13719   0.464   6.535   6.669  0.2583 -0.1427  0.3786
  128OSM    C7S13720   0.603   6.476   6.818 -0.2256  0.3921 -0.0115
  128OSM    H7S13721   0.696   6.534   6.803  0.3712 -0.6831 -0.6260
  128OSM    H7T13722   0.643   6.384   6.866 -0.4351 -0.7685 -1.9742
  128OSM    C8S13723   0.516   6.536   6.932 -0.2257 -0.0667  0.1674
  128OSM    H8S13724   0.435   6.461   6.946  0.7773 -1.1880  0.0742
  128OSM    H8T13725   0.470   6.631   6.898  1.6598 -0.1650 -3.0529
  128OSM    C9S13726   0.589   6.543   7.063 -0.0787 -0.3933 -0.5829
  128OSM    H9S13727   0.671   6.616   7.051 -1.2197  1.2348  1.0337
  128OSM    H9T13728   0.636   6.446   7.090  0.6851  0.6479  2.1842
  128OSM   C10S13729   0.491   6.570   7.184 -0.6262  0.3956  0.2075
  128OSM   H10S13730   0.400   6.510   7.162  2.0636 -3.2402 -2.3297
  128OSM   H10T13731   0.455   6.675   7.188 -1.5948  0.1496 -1.2008
  128OSM   C11S13732   0.562   6.550   7.316 -0.4635  0.3571 -0.0122
  128OSM   H11S13733   0.644   6.624   7.317 -0.4148  0.3247 -0.9884
  128OSM   H11T13734   0.608   6.449   7.311 -1.3818 -0.0704 -0.0433
  128OSM   C12S13735   0.468   6.558   7.435  0.0673  0.3428 -0.0028
  128OSM   H12S13736   0.413   6.461   7.435 -0.0363  0.4024 -0.3723
  128OSM   H12T13737   0.392   6.637   7.421  0.9967  0.8803 -2.4550
  128OSM   C13S13738   0.514   6.584   7.574 -0.0516 -1.1568 -0.4424
  128OSM   H13S13739   0.425   6.602   7.638 -0.6838  4.0872 -2.2578
  128OSM   H13T13740   0.568   6.681   7.586 -0.9349 -0.6607 -0.3855
  128OSM   C14S13741   0.606   6.468   7.623 -0.4237  0.1697  0.2702
  128OSM   H14S13742   0.699   6.447   7.567 -0.6145  1.5707 -0.6267
  128OSM   H14T13743   0.546   6.376   7.639  1.3690 -1.0313  0.4215
  128OSM   C15S13744   0.661   6.511   7.761  0.8721 -0.0864 -0.1743
  128OSM   H15S13745   0.708   6.610   7.749  1.5173 -0.2630  0.7571
  128OSM   H15T13746   0.740   6.441   7.796 -0.0266 -0.2332  1.6949
  128OSM   C16S13747   0.552   6.510   7.877 -0.0855  0.0831 -0.3114
  128OSM   H16S13748   0.517   6.405   7.884 -0.6138  0.2718 -0.0545
  128OSM   H16T13749   0.473   6.587   7.864  0.8266  1.4232  1.6112
  128OSM   C17S13750   0.632   6.528   8.008 -0.4092 -0.4481 -0.2017
  128OSM   H17S13751   0.676   6.630   8.007 -0.7076 -0.3085  0.5041
  128OSM   H17T13752   0.718   6.458   8.005  0.8100  1.0151 -2.4056
  128OSM   C18S13753   0.545   6.503   8.137  0.7405  0.1610  0.4524
  128OSM   H18S13754   0.618   6.473   8.215 -1.0119  0.7342  2.3966
  128OSM   H18T13755   0.481   6.413   8.123  2.8619 -1.2979 -0.3358
  128OSM   H18U13756   0.483   6.589   8.171 -0.6170 -1.2208  1.6433
  128OSM    C1F13757   1.013   6.616   6.523  0.8281 -0.3777  0.1567
  128OSM     OF13758   0.998   6.682   6.428 -0.0333 -0.4138  0.3028
  128OSM    C2F13759   1.089   6.663   6.644  0.0543  0.2122  0.1899
  128OSM    H2F13760   1.141   6.759   6.621  3.3469 -0.9654  1.9754
  128OSM    H2G13761   1.174   6.591   6.650 -1.7485 -1.9309  1.4290
  128OSM    C3F13762   1.000   6.674   6.779 -0.0795  0.2628  0.4496
  128OSM    H3F13763   1.001   6.572   6.823  0.0714  0.6097  1.2681
  128OSM    H3G13764   0.899   6.700   6.740  0.8180  1.2866 -1.3075
  128OSM    C4F13765   1.044   6.770   6.892  0.0625  0.8546  1.3552
  128OSM    H4F13766   0.972   6.750   6.973 -0.1716 -1.0416  0.7199
  128OSM    H4G13767   1.037   6.879   6.869 -0.7071  0.3810 -0.9401
  128OSM    C5F13768   1.187   6.737   6.931  0.1169 -0.4189 -0.8945
  128OSM    H5F13769   1.253   6.823   6.908 -0.7612  0.5161  0.0039
  128OSM    H5G13770   1.233   6.653   6.874 -1.1797 -0.8698 -1.3199
  128OSM    C6F13771   1.177   6.730   7.088  0.0045  0.9129 -0.0224
  128OSM    H6F13772   1.118   6.647   7.132  1.0576  1.7931  3.3804
  128OSM    H6G13773   1.120   6.817   7.128  1.5872  1.4496  1.1829
  128OSM    C7F13774   1.310   6.742   7.164  0.0124 -0.6012 -0.0116
  128OSM    H7F13775   1.394   6.769   7.096  0.4979 -1.1601  0.3490
  128OSM    H7G13776   1.336   6.645   7.213  0.0914  0.1045  1.3746
  128OSM    C8F13777   1.312   6.856   7.273  0.5185  0.3346  0.4006
  128OSM    H8F13778   1.236   6.822   7.347 -2.3037  2.6231 -1.2605
  128OSM    H8G13779   1.267   6.946   7.227 -0.5137 -0.4621 -0.1933
  128OSM    C9F13780   1.448   6.879   7.341  0.2704  0.2846  0.4590
  128OSM    H9F13781   1.536   6.896   7.277  0.4931 -0.5184  0.5352
  128OSM   C10F13782   1.464   6.878   7.471  0.1607 -0.3751  0.5368
  128OSM   H10F13783   1.560   6.922   7.498 -0.1219 -1.1843  3.1247
  128OSM   C11F13784   1.364   6.865   7.587  0.3004 -0.1647 -0.0957
  128OSM   H11F13785   1.392   6.776   7.647  0.8867  0.2249  0.2213
  128OSM   H11G13786   1.259   6.849   7.554 -0.1133  1.7284  0.1984
  128OSM   C12F13787   1.351   6.995   7.672 -0.4415 -0.3662  0.7504
  128OSM   H12F13788   1.258   6.984   7.732 -1.3112  2.0298 -0.0306
  128OSM   H12G13789   1.343   7.080   7.601 -0.3713  0.4448  1.6975
  128OSM   C13F13790   1.464   7.025   7.769  0.8587 -0.5410  0.1345
  128OSM   H13F13791   1.430   7.121   7.813 -0.2491 -1.5379  1.5784
  128OSM   H13G13792   1.568   7.017   7.731  0.4787  1.1056 -1.3303
  128OSM   C14F13793   1.452   6.928   7.892 -0.8896  0.2383 -0.1916
  128OSM   H14F13794   1.467   6.826   7.851  0.3005  0.5883 -0.6668
  128OSM   H14G13795   1.349   6.947   7.929 -1.0425  0.9525 -0.9619
  128OSM   C15F13796   1.554   6.959   7.995  0.7493  0.1736 -0.2931
  128OSM   H15F13797   1.579   7.066   7.981 -2.4432  0.7577 -2.4273
  128OSM   H15G13798   1.640   6.895   7.963  1.6196  1.3859 -0.4282
  128OSM   C16F13799   1.516   6.944   8.142  0.2336  0.0885  0.1503
  128OSM   H16F13800   1.497   6.836   8.159  2.2533 -0.6642 -1.8118
  128OSM   H16G13801   1.426   7.004   8.164 -0.2851 -0.9901  1.0678
  128OSM   C17F13802   1.619   6.998   8.245  0.0082 -0.2668 -0.6565
  128OSM   H17F13803   1.630   7.108   8.251  1.1209 -0.3757 -0.3689
  128OSM   H17G13804   1.718   6.957   8.214  0.6820 -0.8491  1.9904
  128OSM   C18F13805   1.595   6.951   8.386 -0.0042 -0.4114 -0.4410
  128OSM   H18F13806   1.513   7.014   8.427  1.8322  2.1487 -0.4614
  128OSM   H18G13807   1.686   6.974   8.446 -0.9165  2.3935  0.0356
  128OSM   H18H13808   1.569   6.845   8.370 -1.4826 -0.1595  0.1523
  129OSM      N13809   5.082   2.869   6.524  0.8974  0.1473 -0.1575
  129OSM    C1513810   5.100   2.823   6.663 -0.0595  0.7489  0.1606
  129OSM   H15A13811   5.187   2.856   6.717  0.2426 -0.6419  0.5701
  129OSM   H15B13812   5.115   2.717   6.675  1.3566  0.9422  0.2781
  129OSM   H15C13813   5.014   2.841   6.726 -0.9899 -0.8128 -0.6002
  129OSM    C1413814   5.203   2.832   6.445 -0.0585  0.4117  0.9668
  129OSM   H14A13815   5.193   2.879   6.348  1.6013  1.4621  1.2571
  129OSM   H14B13816   5.203   2.726   6.425 -2.3040  0.6633 -0.7483
  129OSM   H14C13817   5.297   2.871   6.482  0.2665  0.4077  0.1585
  129OSM    C1313818   4.955   2.807   6.469  0.6963 -0.0208  0.1864
  129OSM   H13A13819   4.971   2.702   6.453  0.6793  0.1834 -1.3859
  129OSM   H13B13820   4.934   2.851   6.372  0.8766  1.8995  0.9673
  129OSM   H13C13821   4.873   2.813   6.539 -0.2138  2.1587 -0.9610
  129OSM    C1213822   5.063   3.019   6.523  0.1489  0.4898  0.4050
  129OSM   H12A13823   5.129   3.073   6.589  0.7948  0.1345  0.0622
  129OSM   H12B13824   4.967   3.039   6.568  0.2952  0.4607  0.7363
  129OSM    C1113825   5.054   3.090   6.380  0.1308  0.8713 -0.1475
  129OSM   H11A13826   5.147   3.056   6.330  0.0201  0.7863 -0.2949
  129OSM   H11B13827   5.067   3.200   6.371 -2.3852  1.2382 -0.0096
  129OSM      P13828   4.796   3.098   6.338  0.2337 -0.0914  0.0275
  129OSM    O1313829   4.778   3.232   6.273  0.1573 -0.1108  0.5894
  129OSM    O1413830   4.706   2.980   6.299  0.1508  0.1515 -0.6442
  129OSM    O1113831   4.793   3.110   6.499  0.1135  0.5519 -0.0406
  129OSM    O1213832   4.945   3.049   6.291 -0.4409  0.2231 -0.8835
  129OSM    C1S13833   4.727   3.224   6.558 -0.1964  0.2719  0.7281
  129OSM    H1S13834   4.633   3.244   6.502 -1.1382 -2.7443  1.0563
  129OSM    H1T13835   4.794   3.312   6.549 -2.2999  1.7594 -1.9437
  129OSM     NF13836   4.633   3.333   6.758 -0.1808  0.4705 -1.0404
  129OSM    HNF13837   4.703   3.392   6.798  0.8631 -2.2237  1.5192
  129OSM    C2S13838   4.693   3.208   6.711  0.1497  0.2160 -0.1846
  129OSM    H2S13839   4.616   3.129   6.711 -1.2263  1.5162 -0.5471
  129OSM    C3S13840   4.805   3.158   6.800  0.5698  0.7212  0.0294
  129OSM    H3S13841   4.891   3.228   6.791  0.4750  0.7038 -1.2152
  129OSM     O313842   4.861   3.034   6.751  1.2611 -0.1104  0.5082
  129OSM    HO313843   4.802   3.007   6.679 -0.7463 -0.7239  2.2775
  129OSM    C4S13844   4.746   3.136   6.937  0.4819  0.0423  0.1566
  129OSM    H4S13845   4.653   3.079   6.946  0.9566 -0.4321  3.9833
  129OSM    C5S13846   4.789   3.177   7.050  0.0744  0.0061  0.3230
  129OSM    H5S13847   4.883   3.234   7.049  0.3190 -0.3866 -1.4017
  129OSM    C6S13848   4.716   3.161   7.175  0.5082 -0.0908 -0.0849
  129OSM    H6S13849   4.710   3.261   7.222  0.0749 -0.2531  0.2014
  129OSM    H6T13850   4.789   3.109   7.240  0.7329  1.8343  1.2778
  129OSM    C7S13851   4.580   3.089   7.190 -0.0295 -0.1151 -0.0454
  129OSM    H7S13852   4.589   2.983   7.156  0.1272  0.1587 -0.8618
  129OSM    H7T13853   4.498   3.137   7.134 -1.1918 -1.4265  0.4842
  129OSM    C8S13854   4.519   3.097   7.335 -0.9672  0.0141  0.6310
  129OSM    H8S13855   4.411   3.076   7.354 -0.9443  0.8593  1.8449
  129OSM    H8T13856   4.535   3.201   7.371  0.9176  0.0933 -0.3069
  129OSM    C9S13857   4.600   3.004   7.435 -0.2720  0.1303 -0.0559
  129OSM    H9S13858   4.708   3.028   7.446 -0.0571 -1.4496  1.9077
  129OSM    H9T13859   4.595   2.900   7.396 -1.2556  0.5625 -1.1350
  129OSM   C10S13860   4.561   3.005   7.580  0.0483  0.2619 -0.0717
  129OSM   H10S13861   4.458   2.973   7.602 -0.6007  1.5376 -1.0879
  129OSM   H10T13862   4.577   3.108   7.621 -0.2509  0.0406  0.6156
  129OSM   C11S13863   4.647   2.931   7.682 -0.4047  0.3349 -0.1816
  129OSM   H11S13864   4.752   2.968   7.692  0.5270 -1.9481 -0.8156
  129OSM   H11T13865   4.662   2.825   7.650 -0.5460  0.3994 -0.4613
  129OSM   C12S13866   4.597   2.949   7.826 -0.0978  0.6824  0.2804
  129OSM   H12S13867   4.487   2.936   7.822 -0.3075  2.4843 -2.1045
  129OSM   H12T13868   4.628   3.048   7.868  0.9691  0.7113 -0.5361
  129OSM   C13S13869   4.655   2.847   7.933 -0.3703 -0.3364 -0.0122
  129OSM   H13S13870   4.765   2.861   7.940 -0.1980 -2.0750  1.9742
  129OSM   H13T13871   4.639   2.739   7.915  0.4638 -0.4362 -0.1835
  129OSM   C14S13872   4.602   2.856   8.081  0.2165  0.0780 -0.5966
  129OSM   H14S13873   4.499   2.817   8.096  0.8815 -0.6222  2.9980
  129OSM   H14T13874   4.599   2.961   8.115  0.9332  1.1979 -3.6697
  129OSM   C15S13875   4.699   2.780   8.179  0.0127 -0.0167 -0.3635
  129OSM   H15S13876   4.805   2.816   8.178  0.1427 -0.3553 -2.0091
  129OSM   H15T13877   4.707   2.676   8.141 -1.1283 -0.1329 -0.3167
  129OSM   C16S13878   4.652   2.776   8.331  0.3216  0.3710 -0.6370
  129OSM   H16S13879   4.633   2.876   8.376 -2.4532 -0.6337  0.7240
  129OSM   H16T13880   4.736   2.725   8.382  0.0409 -0.8517 -1.3441
  129OSM   C17S13881   4.529   2.698   8.339  0.4298 -0.3125  0.3292
  129OSM   H17S13882   4.527   2.611   8.270  0.0601  0.0380 -0.1071
  129OSM   H17T13883   4.446   2.768   8.314  0.3143  0.0072  1.5471
  129OSM   C18S13884   4.503   2.661   8.490  0.6108  1.0491 -0.4727
  129OSM   H18S13885   4.575   2.585   8.527 -0.1261  0.0110 -1.1128
  129OSM   H18T13886   4.395   2.638   8.493  0.4571  0.8418 -3.6513
  129OSM   H18U13887   4.527   2.748   8.555  1.2487 -0.5150  1.4874
  129OSM    C1F13888   4.517   3.372   6.721  0.5709 -0.1689  0.1091
  129OSM     OF13889   4.434   3.290   6.669  0.6567 -0.3664  0.2948
  129OSM    C2F13890   4.480   3.517   6.749 -0.6459  0.3237  0.1401
  129OSM    H2F13891   4.422   3.553   6.662 -1.5924 -0.5523  0.3935
  129OSM    H2G13892   4.568   3.583   6.762 -1.0520  0.9188 -0.0886
  129OSM    C3F13893   4.375   3.533   6.867  0.0902 -0.0236  0.3145
  129OSM    H3F13894   4.289   3.467   6.844  2.5147 -2.7278 -1.8156
  129OSM    H3G13895   4.342   3.639   6.866 -0.1641 -0.0997  0.6364
  129OSM    C4F13896   4.431   3.496   7.004 -0.0250 -0.8817  0.0878
  129OSM    H4F13897   4.509   3.573   7.026 -1.7755  0.8500  0.5523
  129OSM    H4G13898   4.470   3.392   7.003 -0.7756 -1.1740  0.5251
  129OSM    C5F13899   4.334   3.508   7.126 -0.3621 -0.5688  0.5624
  129OSM    H5F13900   4.252   3.435   7.108 -0.7230  0.2963 -1.5919
  129OSM    H5G13901   4.287   3.609   7.125  1.5137  0.4780 -3.6606
  129OSM    C6F13902   4.413   3.482   7.250  0.3155 -0.3031 -0.6852
  129OSM    H6F13903   4.509   3.538   7.252 -0.1221  0.4542  1.2963
  129OSM    H6G13904   4.445   3.377   7.264  3.4266  0.0394 -3.8119
  129OSM    C7F13905   4.331   3.509   7.377 -0.9735  0.2160  0.3446
  129OSM    H7F13906   4.243   3.442   7.376 -0.1904 -0.8412 -1.1902
  129OSM    H7G13907   4.298   3.615   7.373  0.3132  0.6926  1.4306
  129OSM    C8F13908   4.414   3.496   7.502  0.3252 -0.0053  0.0150
  129OSM    H8F13909   4.492   3.575   7.502 -0.3549  0.6835  0.6971
  129OSM    H8G13910   4.458   3.394   7.506 -1.7001 -0.9597 -0.7680
  129OSM    C9F13911   4.327   3.531   7.622 -0.4233 -0.1885 -0.3660
  129OSM    H9F13912   4.251   3.610   7.619  0.8375  1.1164  0.8033
  129OSM   C10F13913   4.348   3.480   7.744  0.2975 -0.2822 -0.4034
  129OSM   H10F13914   4.285   3.513   7.827  1.5648  0.5964  0.2384
  129OSM   C11F13915   4.452   3.374   7.779 -0.2691  0.4910 -0.5239
  129OSM   H11F13916   4.552   3.388   7.734 -1.2234  3.4273 -1.9208
  129OSM   H11G13917   4.410   3.278   7.742 -1.5561  0.2460  1.4142
  129OSM   C12F13918   4.485   3.353   7.924 -0.5803  0.3943 -0.0271
  129OSM   H12F13919   4.526   3.446   7.968  0.6110 -0.3851  0.5721
  129OSM   H12G13920   4.561   3.271   7.924  2.0842  2.5334 -3.7022
  129OSM   C13F13921   4.368   3.319   8.015  0.1261  0.3312 -0.3240
  129OSM   H13F13922   4.334   3.216   7.991  0.1186 -0.6973  3.3734
  129OSM   H13G13923   4.280   3.384   7.992  0.5445 -0.1340 -3.6770
  129OSM   C14F13924   4.392   3.308   8.168 -0.4836  0.0681  0.1095
  129OSM   H14F13925   4.298   3.286   8.222 -1.5525 -0.0251 -1.7304
  129OSM   H14G13926   4.441   3.402   8.204  1.2514  0.1139 -2.1426
  129OSM   C15F13927   4.495   3.192   8.204 -0.0313 -0.3704  0.0216
  129OSM   H15F13928   4.583   3.208   8.138 -0.0629 -0.3947 -0.0261
  129OSM   H15G13929   4.441   3.099   8.178  2.4918 -2.0646  0.5091
  129OSM   C16F13930   4.527   3.194   8.356  0.2622  0.0028 -0.9727
  129OSM   H16F13931   4.591   3.105   8.373  0.7321  0.5422  0.1636
  129OSM   H16G13932   4.432   3.172   8.410 -0.0216 -0.5372 -1.6727
  129OSM   C17F13933   4.597   3.316   8.404 -0.6759  0.3370  0.3395
  129OSM   H17F13934   4.523   3.392   8.437 -0.5130  0.0486  1.4173
  129OSM   H17G13935   4.658   3.353   8.318 -0.0125  0.0871  0.6942
  129OSM   C18F13936   4.700   3.275   8.514  0.0721 -0.0685  0.7236
  129OSM   H18F13937   4.654   3.204   8.586 -1.4151 -0.1291 -0.2459
  129OSM   H18G13938   4.748   3.363   8.562  2.4459 -0.7053 -0.3348
  129OSM   H18H13939   4.772   3.202   8.472 -1.7988 -0.7487 -1.4855
  130OSM      N13940   1.603   6.655   6.065  0.1550 -0.2891 -0.1667
  130OSM    C1513941   1.625   6.794   6.017  0.1729  0.4777 -0.0937
  130OSM   H15A13942   1.637   6.865   6.097 -3.9328  0.6063  0.6189
  130OSM   H15B13943   1.542   6.822   5.953 -0.5654 -0.0987  0.5891
  130OSM   H15C13944   1.719   6.798   5.963  1.2388  1.8660  1.7479
  130OSM    C1413945   1.564   6.562   5.956 -0.4647 -0.3899 -0.4486
  130OSM   H14A13946   1.654   6.558   5.897 -0.0498  1.0188  0.0314
  130OSM   H14B13947   1.486   6.597   5.889  1.8187 -0.0799 -3.1632
  130OSM   H14C13948   1.538   6.464   5.993  2.1318 -1.0439 -0.1581
  130OSM    C1313949   1.739   6.616   6.110 -0.2741  0.3239 -0.2958
  130OSM   H13A13950   1.745   6.514   6.146  3.6002  0.6099  0.2632
  130OSM   H13B13951   1.777   6.680   6.189  0.5233 -0.0173 -0.3937
  130OSM   H13C13952   1.805   6.629   6.026  0.5088  0.5406  0.3337
  130OSM    C1213953   1.490   6.648   6.173 -0.6595  0.2896  0.5589
  130OSM   H12A13954   1.396   6.642   6.120 -0.0576  1.4842 -0.7135
  130OSM   H12B13955   1.482   6.741   6.227 -0.0009  0.5073  0.2864
  130OSM    C1113956   1.492   6.531   6.275  0.1950  0.4756 -0.1427
  130OSM   H11A13957   1.411   6.554   6.347 -0.5917  3.8189 -1.8690
  130OSM   H11B13958   1.592   6.535   6.322 -0.1028 -0.2312  0.5736
  130OSM      P13959   1.340   6.343   6.176  0.3560 -0.4618  0.3425
  130OSM    O1313960   1.239   6.454   6.173  0.5308 -0.3695  0.2492
  130OSM    O1413961   1.371   6.275   6.048  0.6939  0.5337  0.5582
  130OSM    O1113962   1.299   6.242   6.288  0.4599 -0.2719  0.6798
  130OSM    O1213963   1.477   6.404   6.222 -0.1370  0.0496 -0.0194
  130OSM    C1S13964   1.313   6.275   6.431 -0.0401  0.5935  0.1802
  130OSM    H1S13965   1.227   6.341   6.456  1.7335  2.5313  1.5744
  130OSM    H1T13966   1.412   6.321   6.455  1.3950 -1.8898 -0.5943
  130OSM     NF13967   1.328   6.178   6.670 -0.0889 -0.1587 -0.2392
  130OSM    HNF13968   1.417   6.164   6.714 -0.4716  1.3877  1.1488
  130OSM    C2S13969   1.317   6.150   6.524  0.7304  0.3450 -0.3437
  130OSM    H2S13970   1.218   6.102   6.504  0.0731  1.1469  0.8448
  130OSM    C3S13971   1.427   6.045   6.486 -0.4567  0.7214  0.6614
  130OSM    H3S13972   1.529   6.088   6.497 -0.0709 -0.3755  1.4743
  130OSM     O313973   1.419   6.010   6.348  0.0301  0.5311 -0.3948
  130OSM    HO313974   1.360   6.077   6.314  0.4619  0.3109 -1.6205
  130OSM    C4S13975   1.416   5.915   6.572  0.4635 -0.6588  0.1948
  130OSM    H4S13976   1.327   5.857   6.545  0.8058 -0.3281 -1.7655
  130OSM    C5S13977   1.491   5.897   6.683 -0.0917  0.7338 -0.0770
  130OSM    H5S13978   1.566   5.969   6.717  0.9490 -2.1022  4.4120
  130OSM    C6S13979   1.472   5.789   6.781  0.5228 -0.0804  0.0644
  130OSM    H6S13980   1.573   5.756   6.811  0.3781  0.5227  1.2843
  130OSM    H6T13981   1.415   5.704   6.738  0.1512 -0.1790  0.7503
  130OSM    C7S13982   1.413   5.824   6.921  0.3984 -0.0766 -0.2955
  130OSM    H7S13983   1.406   5.732   6.983 -1.2432 -0.9274 -1.6420
  130OSM    H7T13984   1.309   5.861   6.908  0.0321 -1.1843 -0.6986
  130OSM    C8S13985   1.488   5.935   6.989  0.6738 -0.0772  0.4068
  130OSM    H8S13986   1.483   6.022   6.921  1.1389  0.1207  0.6209
  130OSM    H8T13987   1.595   5.917   7.014  0.4080  0.7341  2.2919
  130OSM    C9S13988   1.417   5.979   7.126 -0.0178 -0.3887  0.2379
  130OSM    H9S13989   1.429   5.892   7.195  0.6919 -0.5340 -0.0683
  130OSM    H9T13990   1.307   5.993   7.112 -0.2707 -2.4486 -0.2462
  130OSM   C10S13991   1.476   6.109   7.187  0.1054  0.2407 -0.3145
  130OSM   H10S13992   1.455   6.181   7.105  1.2507  0.1895 -0.6659
  130OSM   H10T13993   1.586   6.095   7.192 -0.1180 -1.5799  0.2558
  130OSM   C11S13994   1.410   6.136   7.329 -0.9918  0.7896 -0.1975
  130OSM   H11S13995   1.300   6.144   7.333 -1.4786 -3.7526  2.1132
  130OSM   H11T13996   1.462   6.227   7.366  0.6206 -0.1702  0.0102
  130OSM   C12S13997   1.434   6.031   7.434 -0.4671  0.3768  0.3383
  130OSM   H12S13998   1.534   5.986   7.415 -0.4247  0.8598 -0.6595
  130OSM   H12T13999   1.356   5.951   7.437 -0.2623  0.1807  0.4053
  130OSM   C13S14000   1.432   6.095   7.568 -0.4568  0.4597 -0.9509
  130OSM   H13S14001   1.343   6.161   7.575 -0.1386  0.9275 -1.1987
  130OSM   H13T14002   1.518   6.165   7.576 -0.0326  0.0191 -1.5352
  130OSM   C14S14003   1.439   6.005   7.690  0.1837  0.7702  0.2366
  130OSM   H14S14004   1.546   5.974   7.689  0.2744  0.8321  2.5841
  130OSM   H14T14005   1.381   5.912   7.671  1.0464  0.2917 -0.1413
  130OSM   C15S14006   1.414   6.077   7.823 -0.2614  0.6686  0.2507
  130OSM   H15S14007   1.329   6.148   7.818 -0.7536  0.0620 -0.3005
  130OSM   H15T14008   1.499   6.146   7.844  0.2197 -0.2899  1.6177
  130OSM   C16S14009   1.409   5.980   7.941 -1.3153  0.2704  1.4550
  130OSM   H16S14010   1.423   5.873   7.915  1.9393  0.8458  0.3523
  130OSM   H16T14011   1.309   5.987   7.989 -2.1610 -0.8502 -0.0621
  130OSM   C17S14012   1.519   6.014   8.048 -0.4997  0.5397 -0.6099
  130OSM   H17S14013   1.508   6.121   8.079  1.5126  0.2203  1.4474
  130OSM   H17T14014   1.623   6.000   8.010  0.9008 -2.0319  3.5204
  130OSM   C18S14015   1.505   5.926   8.173  0.1117 -0.3708 -0.4543
  130OSM   H18S14016   1.512   5.819   8.146  0.9458 -0.8047  1.3476
  130OSM   H18T14017   1.410   5.944   8.228  0.3629 -1.9457  0.5350
  130OSM   H18U14018   1.584   5.949   8.247 -0.7410 -0.5536  0.5227
  130OSM    C1F14019   1.234   6.244   6.730  0.0475 -0.1071 -0.1295
  130OSM     OF14020   1.126   6.269   6.678 -0.6386  0.1345 -0.0239
  130OSM    C2F14021   1.268   6.292   6.872  0.1029  0.5567 -0.5665
  130OSM    H2F14022   1.322   6.389   6.873 -0.8945  1.1417  1.9615
  130OSM    H2G14023   1.338   6.218   6.917  0.6314  1.8145  0.7591
  130OSM    C3F14024   1.141   6.301   6.962  0.2836  0.8418 -1.2004
  130OSM    H3F14025   1.087   6.204   6.968  0.2481  0.9781  1.8077
  130OSM    H3G14026   1.066   6.368   6.915 -2.2888 -0.7591  0.3865
  130OSM    C4F14027   1.158   6.346   7.110 -0.1790 -0.4433  1.0030
  130OSM    H4F14028   1.222   6.434   7.086  0.1480 -1.6371 -3.3485
  130OSM    H4G14029   1.213   6.272   7.173  0.5462  0.0513  0.9602
  130OSM    C5F14030   1.031   6.385   7.184  0.3449  0.1655  0.4217
  130OSM    H5F14031   0.970   6.294   7.205  2.6823 -1.6293 -0.1175
  130OSM    H5G14032   0.963   6.457   7.133  1.4830  2.1315  1.5412
  130OSM    C6F14033   1.074   6.440   7.312  0.0743 -0.1885 -0.3307
  130OSM    H6F14034   1.168   6.497   7.293  1.4357 -2.6026 -1.3285
  130OSM    H6G14035   1.095   6.351   7.376 -0.6101 -1.1090 -1.3552
  130OSM    C7F14036   0.974   6.518   7.400  0.4724  0.0402  0.0821
  130OSM    H7F14037   0.881   6.461   7.419 -0.5645  0.4245 -3.2800
  130OSM    H7G14038   0.947   6.601   7.331  0.6611  0.1056  0.0874
  130OSM    C8F14039   1.025   6.595   7.523  0.1255 -1.0330 -1.0265
  130OSM    H8F14040   0.944   6.666   7.550 -0.4835 -1.7720 -0.8788
  130OSM    H8G14041   1.114   6.654   7.490  0.2686 -0.2779  0.6139
  130OSM    C9F14042   1.045   6.506   7.642 -0.6911  0.2750  0.0163
  130OSM    H9F14043   1.079   6.402   7.627 -0.5422  0.0107  1.9075
  130OSM   C10F14044   1.024   6.537   7.769 -0.5498 -0.5008 -0.3603
  130OSM   H10F14045   1.045   6.457   7.841  3.5070  1.0490  0.4322
  130OSM   C11F14046   0.967   6.668   7.827 -0.3179 -0.5895  0.2664
  130OSM   H11F14047   0.899   6.656   7.914  0.2206 -0.8635  0.6473
  130OSM   H11G14048   0.910   6.721   7.747 -1.6420 -3.5531 -0.9249
  130OSM   C12F14049   1.076   6.764   7.874 -0.2336  1.0247  0.1700
  130OSM   H12F14050   1.154   6.771   7.795 -0.7066 -1.5048 -0.6365
  130OSM   H12G14051   1.128   6.722   7.963 -0.9283  1.3826  0.7581
  130OSM   C13F14052   1.044   6.903   7.935  0.4963  0.4581  0.1946
  130OSM   H13F14053   0.986   6.976   7.874  1.4135  1.7215  0.7963
  130OSM   H13G14054   1.141   6.957   7.940  0.7686 -0.0783  0.8167
  130OSM   C14F14055   0.984   6.886   8.078  0.2583 -0.4090  0.4278
  130OSM   H14F14056   1.055   6.826   8.138  2.1535 -0.3485 -1.6128
  130OSM   H14G14057   0.885   6.836   8.076 -0.7650  1.5012 -1.2383
  130OSM   C15F14058   0.954   7.021   8.146 -0.1103 -0.4603  0.5761
  130OSM   H15F14059   0.930   7.088   8.060 -1.3449 -1.4878  0.0815
  130OSM   H15G14060   1.044   7.074   8.184  1.3896 -1.0058 -1.9678
  130OSM   C16F14061   0.827   7.027   8.239 -0.1816 -0.0127  0.3334
  130OSM   H16F14062   0.749   7.014   8.161  1.2237 -1.4520 -0.8960
  130OSM   H16G14063   0.809   7.126   8.287 -2.8393  0.2760 -1.0720
  130OSM   C17F14064   0.826   6.905   8.340 -0.2548  0.0181  0.0446
  130OSM   H17F14065   0.894   6.925   8.426 -0.2903 -1.6089  0.5054
  130OSM   H17G14066   0.868   6.810   8.299  0.8853 -0.2192  1.6348
  130OSM   C18F14067   0.683   6.867   8.391 -0.3942  0.3616 -0.4208
  130OSM   H18F14068   0.628   6.955   8.430  0.2212  0.8956 -0.7366
  130OSM   H18G14069   0.698   6.791   8.472 -0.1030  0.6649 -0.1875
  130OSM   H18H14070   0.616   6.821   8.316 -0.8839 -0.5775  0.5528
  131OSM      N14071   6.024   1.066   5.844 -0.5542 -0.3695 -0.1184
  131OSM    C1514072   6.030   0.921   5.818  0.5338  0.5301 -0.6967
  131OSM   H15A14073   5.958   0.870   5.880  1.0532  1.2504  0.5290
  131OSM   H15B14074   6.118   0.872   5.854  0.0519 -0.1446 -0.4181
  131OSM   H15C14075   6.017   0.908   5.711 -3.0460  1.0445 -0.4653
  131OSM    C1414076   6.148   1.134   5.792  0.4183  0.6844 -0.4288
  131OSM   H14A14077   6.237   1.105   5.846 -0.6609 -1.0540  0.4773
  131OSM   H14B14078   6.153   1.242   5.794  0.0571  0.7063  1.6289
  131OSM   H14C14079   6.165   1.116   5.687  2.8401  1.6635 -0.2787
  131OSM    C1314080   5.901   1.120   5.785 -0.0119  0.1980  0.4486
  131OSM   H13A14081   5.902   1.101   5.679 -1.0151  0.9655  0.2857
  131OSM   H13B14082   5.895   1.226   5.805 -0.5664  0.0696  1.0139
  131OSM   H13C14083   5.815   1.079   5.836 -0.6004  0.4143 -0.3522
  131OSM    C1214084   6.024   1.094   5.998  0.2953  0.2432  0.8147
  131OSM   H12A14085   5.929   1.068   6.044  0.1866  0.8662  0.9516
  131OSM   H12B14086   6.038   1.199   6.018  1.4607  0.3030 -0.2659
  131OSM    C1114087   6.132   1.020   6.089 -0.9195 -0.6000 -0.5614
  131OSM   H11A14088   6.138   0.916   6.049 -0.9862 -0.6742 -0.3795
  131OSM   H11B14089   6.105   1.004   6.195  0.6236  1.5289  0.2343
  131OSM      P14090   6.281   1.228   6.148  0.1716 -0.4634  0.2380
  131OSM    O1314091   6.428   1.245   6.159  0.3962 -0.3331  0.2859
  131OSM    O1414092   6.202   1.329   6.078  0.1381 -0.1893  0.2014
  131OSM    O1114093   6.232   1.203   6.302  0.1090 -0.5879  0.3591
  131OSM    O1214094   6.262   1.088   6.070 -0.1102  0.1276  0.1328
  131OSM    C1S14095   6.118   1.274   6.336  0.2253 -0.1789  0.0597
  131OSM    H1S14096   6.021   1.238   6.297 -0.0745  0.1104  0.5220
  131OSM    H1T14097   6.135   1.382   6.316  1.0481 -0.7370 -2.6793
  131OSM     NF14098   5.979   1.333   6.540 -0.2669  0.0197 -0.0835
  131OSM    HNF14099   5.996   1.422   6.582 -0.3835 -0.2383  0.5179
  131OSM    C2S14100   6.102   1.267   6.494  0.2261 -0.2298  0.7280
  131OSM    H2S14101   6.096   1.158   6.514 -1.2008 -0.1086  1.0237
  131OSM    C3S14102   6.233   1.329   6.562 -0.4383 -0.1119 -0.4706
  131OSM    H3S14103   6.244   1.438   6.543  0.2136  0.2527  1.7260
  131OSM     O314104   6.352   1.263   6.521 -0.5758 -0.1867  0.5488
  131OSM    HO314105   6.317   1.230   6.438 -0.3085 -2.2475  1.1966
  131OSM    C4S14106   6.221   1.316   6.713 -0.2219  0.6054  0.5743
  131OSM    H4S14107   6.229   1.218   6.761  1.1618  0.4966  0.1724
  131OSM    C5S14108   6.202   1.422   6.797 -0.4511  0.4431  0.3176
  131OSM    H5S14109   6.193   1.518   6.744  1.7595  1.0816  1.0117
  131OSM    C6S14110   6.172   1.431   6.947 -1.1001 -0.1277  0.0285
  131OSM    H6S14111   6.061   1.436   6.954 -1.0652 -0.8399  1.5829
  131OSM    H6T14112   6.210   1.519   7.003 -0.8381  0.1840 -0.6289
  131OSM    C7S14113   6.222   1.319   7.038 -0.5189 -0.1503 -0.5708
  131OSM    H7S14114   6.328   1.300   7.013 -0.1938  2.6232 -1.6865
  131OSM    H7T14115   6.160   1.228   7.020 -2.1705  0.8394 -0.1483
  131OSM    C8S14116   6.202   1.353   7.190  0.4240 -0.6150 -0.1464
  131OSM    H8S14117   6.101   1.401   7.194  0.9005  0.5189 -1.2472
  131OSM    H8T14118   6.265   1.439   7.222 -0.7899  0.2203  0.1076
  131OSM    C9S14119   6.227   1.239   7.285  0.1235  0.4587 -0.1865
  131OSM    H9S14120   6.333   1.206   7.288 -0.5996 -2.5530 -2.9076
  131OSM    H9T14121   6.171   1.150   7.250  0.5968  0.8839 -2.1486
  131OSM   C10S14122   6.191   1.262   7.433  0.8560  0.0555  0.3014
  131OSM   H10S14123   6.089   1.300   7.451  0.3884  0.1072 -2.1256
  131OSM   H10T14124   6.270   1.332   7.467  1.3927  1.6675 -3.6986
  131OSM   C11S14125   6.206   1.130   7.501 -0.2812  0.5266  0.2912
  131OSM   H11S14126   6.276   1.057   7.455 -1.7496 -0.1828 -0.8940
  131OSM   H11T14127   6.108   1.081   7.482 -1.1499  1.8537  1.1178
  131OSM   C12S14128   6.220   1.144   7.654 -0.1025  0.4030 -0.7626
  131OSM   H12S14129   6.138   1.213   7.680 -0.9016 -1.8443  3.6480
  131OSM   H12T14130   6.321   1.184   7.678 -0.1748 -0.5464  1.4063
  131OSM   C13S14131   6.202   1.015   7.744 -0.2410  0.8729  0.3823
  131OSM   H13S14132   6.251   0.928   7.696  0.6986  0.2934  2.2942
  131OSM   H13T14133   6.093   0.994   7.744 -0.1616  0.4577  0.1135
  131OSM   C14S14134   6.249   1.021   7.887 -0.9911  0.3535  0.1911
  131OSM   H14S14135   6.179   1.075   7.955 -0.7240  0.0304  0.7306
  131OSM   H14T14136   6.353   1.054   7.907  0.0932 -3.9623  3.0800
  131OSM   C15S14137   6.251   0.880   7.958 -0.0531 -0.2362 -0.9446
  131OSM   H15S14138   6.330   0.818   7.911  0.7408  1.0219 -1.3448
  131OSM   H15T14139   6.156   0.823   7.956 -1.3546  1.7709 -0.2153
  131OSM   C16S14140   6.271   0.882   8.114  0.2315  0.0209 -0.5784
  131OSM   H16S14141   6.175   0.890   8.169  0.8770  0.5854  0.4981
  131OSM   H16T14142   6.344   0.958   8.149  0.2885 -0.1362 -0.3488
  131OSM   C17S14143   6.335   0.752   8.168  0.5731 -0.4189 -0.1303
  131OSM   H17S14144   6.430   0.737   8.112  1.6799  1.7156  1.0587
  131OSM   H17T14145   6.275   0.661   8.144 -1.3060  0.6963  0.1518
  131OSM   C18S14146   6.376   0.756   8.316 -0.0664 -0.2914  0.3056
  131OSM   H18S14147   6.457   0.831   8.330  1.1466 -1.3740 -0.6097
  131OSM   H18T14148   6.420   0.656   8.335 -2.4374 -1.5512 -0.4338
  131OSM   H18U14149   6.294   0.775   8.388 -0.8406 -0.1697 -0.5939
  131OSM    C1F14150   5.869   1.272   6.523 -0.1970 -0.4473  0.5583
  131OSM     OF14151   5.860   1.168   6.452 -0.6650  0.0350 -0.1593
  131OSM    C2F14152   5.740   1.345   6.571  0.3198  0.6376  0.6618
  131OSM    H2F14153   5.671   1.353   6.484  0.2990  2.7772  0.8254
  131OSM    H2G14154   5.758   1.452   6.593  2.2955  1.0657 -2.4071
  131OSM    C3F14155   5.668   1.273   6.689 -0.1442 -1.1181 -0.6290
  131OSM    H3F14156   5.633   1.172   6.657 -0.2827 -1.1248 -0.4585
  131OSM    H3G14157   5.584   1.338   6.720 -0.5499 -1.6040 -0.6783
  131OSM    C4F14158   5.763   1.257   6.810  0.2519 -0.4158  0.6620
  131OSM    H4F14159   5.816   1.353   6.824  3.2371 -1.8582  0.1058
  131OSM    H4G14160   5.847   1.191   6.777  0.1030 -0.6149  0.6754
  131OSM    C5F14161   5.708   1.201   6.942  0.0710  0.7228  0.0949
  131OSM    H5F14162   5.634   1.120   6.924 -0.4479  1.0951  0.5156
  131OSM    H5G14163   5.654   1.279   7.000  0.9070  1.7809 -0.5106
  131OSM    C6F14164   5.824   1.143   7.026  0.1938 -0.3382 -1.0860
  131OSM    H6F14165   5.916   1.202   7.009 -0.0164 -0.6127 -3.3960
  131OSM    H6G14166   5.835   1.040   6.985  0.6483  0.0146 -1.8608
  131OSM    C7F14167   5.801   1.130   7.179  0.5840 -0.5915 -0.9593
  131OSM    H7F14168   5.862   1.050   7.227 -0.7964 -0.2595  1.5139
  131OSM    H7G14169   5.695   1.100   7.193  1.2042 -2.2638  0.6167
  131OSM    C8F14170   5.835   1.260   7.265  0.2272  0.4147  0.8835
  131OSM    H8F14171   5.940   1.278   7.232  0.6838 -0.5135  1.7468
  131OSM    H8G14172   5.836   1.226   7.371  2.0521  1.1557  1.1440
  131OSM    C9F14173   5.731   1.369   7.247  0.1681  0.0584 -0.6791
  131OSM    H9F14174   5.735   1.416   7.148  1.2792 -0.3278 -0.8329
  131OSM   C10F14175   5.644   1.408   7.343  0.3363  0.3095  1.0032
  131OSM   H10F14176   5.570   1.482   7.306  1.5520  0.8301 -0.4682
  131OSM   C11F14177   5.629   1.366   7.486  0.0828 -0.4480 -0.5378
  131OSM   H11F14178   5.684   1.271   7.506 -0.3955 -0.2098  2.1727
  131OSM   H11G14179   5.520   1.347   7.494 -0.3139  1.3502 -1.2320
  131OSM   C12F14180   5.672   1.481   7.583  0.2797 -0.1779 -0.3037
  131OSM   H12F14181   5.627   1.577   7.549  1.5515  0.3798 -0.4647
  131OSM   H12G14182   5.783   1.489   7.582  0.3485 -0.9349 -2.4067
  131OSM   C13F14183   5.630   1.463   7.728  0.3692 -0.2224 -0.1920
  131OSM   H13F14184   5.519   1.464   7.718  0.3932 -1.4766 -0.7178
  131OSM   H13G14185   5.640   1.558   7.786 -1.4844 -0.8285  1.2206
  131OSM   C14F14186   5.682   1.334   7.804 -0.3774  0.7559  0.1690
  131OSM   H14F14187   5.687   1.252   7.729  0.4726  0.8040  0.1611
  131OSM   H14G14188   5.614   1.302   7.885  1.0487 -1.5662  0.5281
  131OSM   C15F14189   5.831   1.347   7.859  0.4831  0.2409  0.0396
  131OSM   H15F14190   5.837   1.433   7.929 -0.3822 -0.9202  1.6215
  131OSM   H15G14191   5.891   1.379   7.772  0.6270  0.2911  0.1562
  131OSM   C16F14192   5.878   1.214   7.924 -0.3684  0.0528 -1.1902
  131OSM   H16F14193   5.987   1.211   7.942 -0.8398 -1.6726  2.3546
  131OSM   H16G14194   5.851   1.129   7.859  2.8975 -1.4310 -0.7913
  131OSM   C17F14195   5.810   1.179   8.050  0.1670 -0.3866  0.1490
  131OSM   H17F14196   5.707   1.145   8.030  0.3435 -1.1646  0.5513
  131OSM   H17G14197   5.789   1.272   8.108 -0.4241 -1.1801  1.2284
  131OSM   C18F14198   5.904   1.096   8.145  0.2544 -0.7154  0.2519
  131OSM   H18F14199   5.844   1.045   8.224  1.2434 -0.1697  1.3937
  131OSM   H18G14200   5.978   1.169   8.186  1.4654 -0.9558 -1.4127
  131OSM   H18H14201   5.965   1.021   8.090  2.2199  1.5161 -0.8111
  132OSM      N14202   1.427   2.116   6.092  0.4603 -0.1764 -0.7880
  132OSM    C1514203   1.300   2.055   6.063 -0.3153  0.2097  0.1755
  132OSM   H15A14204   1.267   2.019   6.160 -1.0283 -1.4867 -0.6672
  132OSM   H15B14205   1.304   1.974   5.993 -0.6530 -2.2003  2.7738
  132OSM   H15C14206   1.231   2.132   6.031  0.8870  0.9458 -0.7374
  132OSM    C1414207   1.519   2.015   6.155 -0.4343 -0.9967  0.0150
  132OSM   H14A14208   1.601   2.070   6.201 -0.0366 -2.5115  1.2008
  132OSM   H14B14209   1.555   1.942   6.084  1.5266  0.2078 -0.3017
  132OSM   H14C14210   1.469   1.954   6.229 -2.5456  0.5081 -0.0940
  132OSM    C1314211   1.482   2.172   5.969 -0.6150  0.6985  0.7262
  132OSM   H13A14212   1.532   2.092   5.916  0.4385 -0.1704  2.9012
  132OSM   H13B14213   1.568   2.235   5.985 -0.3805  0.7692 -0.6868
  132OSM   H13C14214   1.411   2.217   5.901 -2.2906 -0.6028  1.5522
  132OSM    C1214215   1.401   2.232   6.194  0.6610  0.1085 -0.6400
  132OSM   H12A14216   1.346   2.315   6.154  0.4800  0.9588  1.2467
  132OSM   H12B14217   1.498   2.266   6.229  0.5995 -1.0258  0.7776
  132OSM    C1114218   1.319   2.204   6.322  0.2418 -0.2384 -0.7118
  132OSM   H11A14219   1.334   2.287   6.394  0.0401 -1.5206  0.8701
  132OSM   H11B14220   1.371   2.119   6.371 -0.4995  0.1757  0.8211
  132OSM      P14221   1.090   2.298   6.269  0.5614  0.2030  0.6270
  132OSM    O1314222   1.135   2.379   6.154  0.1676  0.4442  0.0680
  132OSM    O1414223   0.944   2.256   6.266  0.0445  0.0380  0.5484
  132OSM    O1114224   1.123   2.379   6.396 -0.2481 -0.0308  0.1132
  132OSM    O1214225   1.185   2.178   6.286  0.8874  0.5867 -0.0682
  132OSM    C1S14226   1.070   2.348   6.526 -0.4317 -0.3019  0.3457
  132OSM    H1S14227   1.062   2.237   6.532 -2.3599 -0.3672 -2.2190
  132OSM    H1T14228   0.974   2.394   6.557  1.4587  3.2963  1.4520
  132OSM     NF14229   1.134   2.339   6.768 -0.1060  0.1743  0.2438
  132OSM    HNF14230   1.079   2.388   6.836  1.2600  0.0564  1.4748
  132OSM    C2S14231   1.160   2.409   6.635  0.2516 -0.0310  0.3303
  132OSM    H2S14232   1.267   2.382   6.624  0.0796 -0.3717 -0.5561
  132OSM    C3S14233   1.152   2.565   6.638  1.0935  0.0135 -0.0745
  132OSM    H3S14234   1.047   2.601   6.639  1.2370  0.4358 -0.1429
  132OSM     O314235   1.194   2.620   6.513  0.5068  0.8784  0.0994
  132OSM    HO314236   1.212   2.541   6.460  0.6730  1.7992 -1.2641
  132OSM    C4S14237   1.234   2.617   6.750  0.5331  0.4963  1.0636
  132OSM    H4S14238   1.340   2.595   6.730  0.5119 -0.7174  2.1447
  132OSM    C5S14239   1.198   2.674   6.861  0.4405  0.0164  0.5124
  132OSM    H5S14240   1.094   2.700   6.886  0.9523  2.6220  0.2293
  132OSM    C6S14241   1.302   2.723   6.959 -0.3811  0.6736  0.5955
  132OSM    H6S14242   1.253   2.797   7.027  0.9683  0.8107  1.4598
  132OSM    H6T14243   1.380   2.776   6.901 -0.0403 -0.6430 -0.1741
  132OSM    C7S14244   1.361   2.613   7.058  0.0600 -0.6693 -0.2685
  132OSM    H7S14245   1.428   2.553   6.993 -0.3215 -0.8472 -0.5001
  132OSM    H7T14246   1.289   2.542   7.104  0.0569  0.4968  1.6362
  132OSM    C8S14247   1.430   2.668   7.179 -0.1901  0.5903  0.4776
  132OSM    H8S14248   1.391   2.769   7.204  1.1392  1.1857  0.2044
  132OSM    H8T14249   1.530   2.692   7.139 -1.2819 -0.2592 -3.1234
  132OSM    C9S14250   1.439   2.581   7.301  0.1050 -0.0465  0.2092
  132OSM    H9S14251   1.538   2.530   7.290 -0.8326 -1.6333 -1.2967
  132OSM    H9T14252   1.366   2.497   7.308 -0.9128  0.9218  1.9820
  132OSM   C10S14253   1.432   2.658   7.436 -0.3532 -0.3551  0.4759
  132OSM   H10S14254   1.326   2.690   7.448 -0.5214 -1.5342  2.8189
  132OSM   H10T14255   1.502   2.744   7.438 -1.2668  0.4604 -1.1170
  132OSM   C11S14256   1.433   2.571   7.570 -0.1451 -0.0779 -0.0153
  132OSM   H11S14257   1.536   2.529   7.583 -0.1896  0.3732  2.0909
  132OSM   H11T14258   1.362   2.486   7.558 -0.9928  0.7067 -0.6608
  132OSM   C12S14259   1.420   2.654   7.688  0.1050  0.3915  0.8174
  132OSM   H12S14260   1.320   2.703   7.693  0.1126  0.3162  3.0929
  132OSM   H12T14261   1.493   2.738   7.686 -0.4294  0.8534 -0.1471
  132OSM   C13S14262   1.439   2.581   7.821 -0.2308  0.1975 -0.4246
  132OSM   H13S14263   1.548   2.576   7.845 -0.5676  0.5835  1.3691
  132OSM   H13T14264   1.399   2.479   7.806  0.7852 -0.1043 -1.1606
  132OSM   C14S14265   1.368   2.663   7.936 -0.4526 -0.0793  0.4331
  132OSM   H14S14266   1.272   2.694   7.890  0.9318  1.0300 -1.9413
  132OSM   H14T14267   1.420   2.760   7.955 -0.0313 -0.6907  2.5826
  132OSM   C15S14268   1.355   2.581   8.063 -0.1966  0.0576  0.7063
  132OSM   H15S14269   1.458   2.543   8.080  0.6509  0.3575 -2.9097
  132OSM   H15T14270   1.299   2.488   8.039  0.7790 -0.4232  0.2192
  132OSM   C16S14271   1.297   2.659   8.183  0.0706  0.3559 -0.3359
  132OSM   H16S14272   1.216   2.728   8.149 -0.3984 -1.5984 -3.7085
  132OSM   H16T14273   1.377   2.724   8.225  0.9958 -1.4090  0.7407
  132OSM   C17S14274   1.236   2.555   8.282 -0.2132  0.1655 -0.6052
  132OSM   H17S14275   1.328   2.499   8.308 -1.5267 -1.1838  1.5171
  132OSM   H17T14276   1.165   2.490   8.227 -1.1947 -0.3330  1.1650
  132OSM   C18S14277   1.175   2.608   8.413 -0.1605 -0.7910  0.3014
  132OSM   H18S14278   1.249   2.683   8.448  1.5128 -1.5162 -1.4687
  132OSM   H18T14279   1.173   2.520   8.481 -2.1000 -1.9032 -1.1010
  132OSM   H18U14280   1.076   2.655   8.397 -0.1127 -0.8558 -0.2294
  132OSM    C1F14281   1.165   2.211   6.799 -1.1635 -0.0109 -0.5574
  132OSM     OF14282   1.223   2.135   6.725 -0.6607  0.2225  0.1674
  132OSM    C2F14283   1.122   2.161   6.933 -0.5306 -0.4025 -0.1739
  132OSM    H2F14284   1.011   2.158   6.929 -0.4877 -1.0961 -1.7567
  132OSM    H2G14285   1.162   2.227   7.012 -1.4734  0.2278 -0.2120
  132OSM    C3F14286   1.174   2.016   6.958 -0.0738 -0.1831  0.8716
  132OSM    H3F14287   1.284   2.012   6.943 -0.4198 -1.8741 -1.9061
  132OSM    H3G14288   1.130   1.961   6.873 -2.5270  3.1066 -0.2086
  132OSM    C4F14289   1.135   1.970   7.092 -0.3945 -0.0161  0.0995
  132OSM    H4F14290   1.025   1.960   7.083 -0.3078 -1.5533  0.5067
  132OSM    H4G14291   1.152   2.045   7.173  1.1877 -0.3072  0.0677
  132OSM    C5F14292   1.186   1.835   7.147 -0.5874  0.1165 -0.0827
  132OSM    H5F14293   1.297   1.829   7.156 -0.7406 -3.6277  1.5763
  132OSM    H5G14294   1.173   1.752   7.074  0.0277  1.1885 -1.4565
  132OSM    C6F14295   1.133   1.795   7.287 -0.3157  0.2314 -0.7278
  132OSM    H6F14296   1.026   1.768   7.279 -0.5975  0.2921  1.9979
  132OSM    H6G14297   1.155   1.881   7.354  1.2843  0.5361 -1.5766
  132OSM    C7F14298   1.218   1.676   7.343 -0.3154 -0.0569 -0.7760
  132OSM    H7F14299   1.328   1.691   7.350 -0.2030 -1.1660  0.1741
  132OSM    H7G14300   1.203   1.593   7.271  2.4891 -0.9262 -0.4778
  132OSM    C8F14301   1.174   1.669   7.490  1.1777  0.4504  0.4233
  132OSM    H8F14302   1.066   1.642   7.498  1.2635  0.0769  0.3349
  132OSM    H8G14303   1.187   1.768   7.538 -0.1116  0.0352  1.7440
  132OSM    C9F14304   1.258   1.557   7.546  0.6944  0.4770  0.2773
  132OSM    H9F14305   1.243   1.454   7.511  0.2803 -0.2296  2.3734
  132OSM   C10F14306   1.342   1.570   7.646 -0.3538 -0.7600  0.3712
  132OSM   H10F14307   1.386   1.483   7.696 -1.0596 -1.4731 -0.2352
  132OSM   C11F14308   1.386   1.698   7.719 -0.9790 -0.1212  0.3035
  132OSM   H11F14309   1.331   1.786   7.679 -3.4465 -1.9657 -0.5802
  132OSM   H11G14310   1.494   1.717   7.702 -1.3098  2.3968  0.5835
  132OSM   C12F14311   1.381   1.708   7.876 -0.2691  0.4886  0.2451
  132OSM   H12F14312   1.274   1.708   7.906 -0.0837 -0.0625  0.9338
  132OSM   H12G14313   1.409   1.814   7.897  0.7488  1.1187 -3.5378
  132OSM   C13F14314   1.440   1.592   7.956  0.2126 -0.2770  0.0008
  132OSM   H13F14315   1.548   1.582   7.935  0.1036  0.3451 -0.9263
  132OSM   H13G14316   1.386   1.497   7.936  1.8062 -1.0555 -0.7365
  132OSM   C14F14317   1.437   1.622   8.105  0.3152 -0.1583 -0.9013
  132OSM   H14F14318   1.419   1.527   8.161  0.6364  0.1679 -0.2323
  132OSM   H14G14319   1.333   1.658   8.116  0.1631 -0.8143 -0.0573
  132OSM   C15F14320   1.555   1.705   8.158 -0.8116 -0.5797 -0.8346
  132OSM   H15F14321   1.573   1.797   8.098 -0.2595 -0.9585 -1.2578
  132OSM   H15G14322   1.640   1.635   8.148  0.7960  1.0685  0.5775
  132OSM   C16F14323   1.535   1.742   8.306  0.1577  0.0354  0.0929
  132OSM   H16F14324   1.528   1.649   8.367 -0.0947 -0.4202 -0.6128
  132OSM   H16G14325   1.438   1.796   8.300 -0.6936 -1.4270  0.0340
  132OSM   C17F14326   1.655   1.828   8.358  0.1700 -0.0230  0.4737
  132OSM   H17F14327   1.651   1.923   8.301 -0.5935  0.2727  1.0090
  132OSM   H17G14328   1.749   1.777   8.329 -0.2851 -1.3531  1.2638
  132OSM   C18F14329   1.647   1.854   8.509  0.5792 -0.2842 -0.2602
  132OSM   H18F14330   1.638   1.758   8.565  1.6870  0.2136  0.8012
  132OSM   H18G14331   1.560   1.919   8.530  0.6712 -0.3021  0.1806
  132OSM   H18H14332   1.727   1.922   8.544  1.3319 -0.2592 -1.9027
  133OSM      N14333   1.815   2.698   6.366 -0.0058  0.1353 -0.5654
  133OSM    C1514334   1.873   2.834   6.355  0.1802 -0.3244  0.0786
  133OSM   H15A14335   1.961   2.837   6.292 -1.1467  4.2694 -1.9613
  133OSM   H15B14336   1.903   2.866   6.454  0.6556 -0.1596 -0.1155
  133OSM   H15C14337   1.803   2.902   6.308 -1.1348 -1.5722  0.1901
  133OSM    C1414338   1.684   2.716   6.437 -0.4810  0.2419  0.3615
  133OSM   H14A14339   1.621   2.774   6.371 -2.2990 -1.7105  0.2615
  133OSM   H14B14340   1.699   2.766   6.531 -0.5774 -0.0381  0.5262
  133OSM   H14C14341   1.629   2.624   6.451  0.5880 -0.3847  0.5133
  133OSM    C1314342   1.806   2.653   6.222  0.2976  0.3982 -0.0007
  133OSM   H13A14343   1.907   2.663   6.184  0.0954  1.7596 -0.2309
  133OSM   H13B14344   1.749   2.724   6.164  2.4362  1.1190 -1.3251
  133OSM   H13C14345   1.763   2.554   6.209  0.4301  0.3279  0.0943
  133OSM    C1214346   1.913   2.617   6.442  0.3725  0.5841 -0.3308
  133OSM   H12A14347   1.946   2.661   6.535 -0.3971 -0.4197  0.4437
  133OSM   H12B14348   2.007   2.612   6.389  0.9368  2.9307  0.3374
  133OSM    C1114349   1.873   2.474   6.483  0.8026  0.0751 -0.3129
  133OSM   H11A14350   1.781   2.490   6.545 -0.2895 -2.8047 -1.0036
  133OSM   H11B14351   1.949   2.417   6.540  0.3900 -0.5703 -0.3926
  133OSM      P14352   1.712   2.296   6.375 -0.5174  0.1832  0.3328
  133OSM    O1314353   1.581   2.369   6.361  0.1260  0.0038 -0.1007
  133OSM    O1414354   1.729   2.179   6.284  0.5813  0.0831 -0.0464
  133OSM    O1114355   1.728   2.247   6.526  0.1156  0.0995  0.3898
  133OSM    O1214356   1.830   2.399   6.367 -0.3100 -0.4601 -0.9945
  133OSM    C1S14357   1.625   2.146   6.564  0.4477 -0.2329 -0.1643
  133OSM    H1S14358   1.647   2.049   6.514 -0.3057 -0.8661  0.6994
  133OSM    H1T14359   1.528   2.179   6.521  1.4616  1.4468 -1.3128
  133OSM     NF14360   1.524   2.018   6.742  0.0132 -0.5753 -0.5564
  133OSM    HNF14361   1.426   2.036   6.746  0.4617  1.9953  1.9394
  133OSM    C2S14362   1.618   2.128   6.718 -0.0699 -0.9126 -0.0499
  133OSM    H2S14363   1.719   2.102   6.757 -0.4686 -1.1964  0.8338
  133OSM    C3S14364   1.590   2.259   6.784 -0.3032 -0.4009 -0.3115
  133OSM    H3S14365   1.493   2.306   6.758  0.1786  0.4678 -0.5594
  133OSM     O314366   1.689   2.357   6.763 -0.3535 -0.4541  0.7656
  133OSM    HO314367   1.725   2.340   6.676  1.3438 -1.6980  1.6736
  133OSM    C4S14368   1.601   2.249   6.935  0.4114 -0.2587 -0.0803
  133OSM    H4S14369   1.702   2.212   6.957  0.7964 -0.4891 -2.0259
  133OSM    C5S14370   1.507   2.270   7.033  0.2961  0.0993 -0.0224
  133OSM    H5S14371   1.412   2.303   6.989  0.9533  0.6989 -1.0442
  133OSM    C6S14372   1.516   2.250   7.177  0.3416  0.4357 -1.1645
  133OSM    H6S14373   1.462   2.319   7.245 -0.7105 -1.2273 -0.2560
  133OSM    H6T14374   1.622   2.249   7.211  0.6680 -1.1898 -2.1444
  133OSM    C7S14375   1.450   2.107   7.208  0.1619 -0.7937 -0.3213
  133OSM    H7S14376   1.503   2.037   7.140  0.4798 -0.1468 -0.7427
  133OSM    H7T14377   1.342   2.108   7.180  0.1846 -4.7628 -1.1130
  133OSM    C8S14378   1.472   2.051   7.350 -0.3839 -0.2868 -0.3428
  133OSM    H8S14379   1.580   2.026   7.358  0.1323  1.4537 -1.4255
  133OSM    H8T14380   1.412   1.958   7.339 -0.1016 -0.7505  1.6210
  133OSM    C9S14381   1.441   2.140   7.473 -0.8273  0.4660  0.0112
  133OSM    H9S14382   1.441   2.248   7.449  1.4066  0.9615  1.9327
  133OSM    H9T14383   1.512   2.116   7.554  0.0576  0.5073 -0.7285
  133OSM   C10S14384   1.301   2.100   7.535  0.2856  0.2630  0.3633
  133OSM   H10S14385   1.299   1.989   7.545  3.8044  0.1878  1.4872
  133OSM   H10T14386   1.231   2.143   7.461  0.5377 -0.0650 -0.0696
  133OSM   C11S14387   1.262   2.168   7.663 -0.2487 -0.2558 -0.0288
  133OSM   H11S14388   1.152   2.172   7.675 -0.2813  2.8129 -0.7168
  133OSM   H11T14389   1.291   2.275   7.658 -1.1406 -0.0495 -0.8396
  133OSM   C12S14390   1.305   2.086   7.783  0.1970 -0.4586  0.1577
  133OSM   H12S14391   1.413   2.061   7.789  0.7077  1.8521  2.1736
  133OSM   H12T14392   1.252   1.988   7.786  0.8101 -0.8153  3.5439
  133OSM   C13S14393   1.268   2.158   7.918  0.1453  0.2168  0.4274
  133OSM   H13S14394   1.158   2.171   7.921  0.2105  0.7097  1.2863
  133OSM   H13T14395   1.312   2.260   7.908 -0.2810  0.5494  1.6866
  133OSM   C14S14396   1.318   2.086   8.046  0.3327  0.6205  0.3031
  133OSM   H14S14397   1.421   2.071   8.007  0.2221  0.5767  0.0269
  133OSM   H14T14398   1.268   1.987   8.046  0.9471  0.3043  0.5511
  133OSM   C15S14399   1.300   2.161   8.171 -0.4027 -0.6558 -0.2679
  133OSM   H15S14400   1.195   2.198   8.173 -0.4472 -0.8176  0.5923
  133OSM   H15T14401   1.361   2.254   8.180 -5.6082  3.1377  0.1634
  133OSM   C16S14402   1.335   2.067   8.287 -0.6652 -0.4102  0.0879
  133OSM   H16S14403   1.433   2.015   8.275 -0.6796 -0.5653  0.6111
  133OSM   H16T14404   1.260   1.986   8.285 -2.6095  1.3032 -0.7411
  133OSM   C17S14405   1.323   2.138   8.420  0.0091 -0.3100  0.7169
  133OSM   H17S14406   1.382   2.233   8.422  0.9104 -0.8231 -0.3269
  133OSM   H17T14407   1.375   2.075   8.495 -0.0528 -0.0606  0.9749
  133OSM   C18S14408   1.179   2.181   8.465 -0.5628 -0.5500 -0.9538
  133OSM   H18S14409   1.191   2.267   8.535 -2.8280  0.6498 -1.9339
  133OSM   H18T14410   1.127   2.097   8.515  0.1362  0.1922  1.1640
  133OSM   H18U14411   1.117   2.219   8.382 -1.7017  1.3737  0.6812
  133OSM    C1F14412   1.558   1.894   6.717  0.6295  0.4277 -0.4772
  133OSM     OF14413   1.674   1.868   6.680 -0.2767 -0.4527  0.0570
  133OSM    C2F14414   1.454   1.785   6.714 -0.0754 -1.2516 -0.1363
  133OSM    H2F14415   1.385   1.793   6.627  0.3596  0.1028 -0.3738
  133OSM    H2G14416   1.382   1.820   6.791  0.3724 -2.5691  0.9236
  133OSM    C3F14417   1.511   1.647   6.722  0.2008 -0.9441  0.2395
  133OSM    H3F14418   1.581   1.644   6.808 -0.4191  1.0713  0.8646
  133OSM    H3G14419   1.562   1.609   6.631  0.4979  1.6382 -0.7498
  133OSM    C4F14420   1.397   1.546   6.750 -0.0706 -0.1530 -0.0904
  133OSM    H4F14421   1.443   1.444   6.753 -1.6113 -0.9182 -1.1030
  133OSM    H4G14422   1.322   1.552   6.668  1.4861  3.4107 -1.4709
  133OSM    C5F14423   1.313   1.560   6.874  0.3096  0.9058 -0.0135
  133OSM    H5F14424   1.252   1.652   6.854 -0.0831  0.4028 -1.2140
  133OSM    H5G14425   1.381   1.568   6.961 -0.9217  0.0869  1.0714
  133OSM    C6F14426   1.209   1.439   6.897  0.0454  0.7748 -0.4324
  133OSM    H6F14427   1.148   1.446   6.804 -0.1355  0.8269 -0.3111
  133OSM    H6G14428   1.153   1.469   6.988  0.6681  0.5285  0.0316
  133OSM    C7F14429   1.278   1.304   6.902  0.1361 -0.4216  0.0706
  133OSM    H7F14430   1.385   1.300   6.873  0.2291 -0.9516  0.4760
  133OSM    H7G14431   1.225   1.246   6.824 -2.0275  0.0783  1.0868
  133OSM    C8F14432   1.258   1.225   7.036 -0.2298 -0.3429 -0.6521
  133OSM    H8F14433   1.292   1.120   7.023 -4.1732 -1.6585 -2.0914
  133OSM    H8G14434   1.150   1.222   7.062 -0.2592  1.4929 -0.4090
  133OSM    C9F14435   1.333   1.293   7.146 -0.1028  0.7081 -0.1397
  133OSM    H9F14436   1.377   1.390   7.116  1.2635 -0.2897 -1.5445
  133OSM   C10F14437   1.341   1.252   7.276 -0.3671  0.1793 -0.6976
  133OSM   H10F14438   1.400   1.309   7.348 -3.2983 -0.1886  2.2401
  133OSM   C11F14439   1.269   1.130   7.336 -0.0811 -0.6273  0.6469
  133OSM   H11F14440   1.343   1.048   7.348  1.8436  0.9666  0.2583
  133OSM   H11G14441   1.185   1.095   7.272 -1.9083  3.3205  0.5469
  133OSM   C12F14442   1.208   1.180   7.467  0.2214 -0.5632 -0.3245
  133OSM   H12F14443   1.138   1.265   7.449  0.2864 -0.4123  0.1124
  133OSM   H12G14444   1.289   1.217   7.533 -0.2289 -0.3032  0.0910
  133OSM   C13F14445   1.123   1.075   7.538 -0.6375  0.6708  0.4219
  133OSM   H13F14446   1.185   0.983   7.545 -0.5226  0.7582  0.5655
  133OSM   H13G14447   1.039   1.047   7.471  0.5016  1.2486 -1.3242
  133OSM   C14F14448   1.085   1.115   7.684  0.0507 -0.1496  0.1909
  133OSM   H14F14449   1.038   1.215   7.688  3.4330  1.5953 -0.0037
  133OSM   H14G14450   1.186   1.122   7.730 -0.4237 -0.5583  1.3245
  133OSM   C15F14451   1.006   1.008   7.755  0.4102  1.0204 -0.0860
  133OSM   H15F14452   1.074   0.920   7.755  0.7791  1.2996  0.3889
  133OSM   H15G14453   0.918   0.982   7.693  0.5219  0.2295  0.0733
  133OSM   C16F14454   0.975   1.047   7.902 -0.0945 -0.3176  0.4042
  133OSM   H16F14455   0.943   1.153   7.905  3.4396  0.9245 -1.0177
  133OSM   H16G14456   1.066   1.048   7.965  1.1497  0.5118 -1.3138
  133OSM   C17F14457   0.863   0.966   7.967  0.4367 -0.3623 -0.8010
  133OSM   H17F14458   0.829   0.887   7.896  1.0812 -2.4196  1.0671
  133OSM   H17G14459   0.772   1.028   7.979 -1.0731 -2.8850  2.3437
  133OSM   C18F14460   0.907   0.886   8.093  0.2042 -0.0358 -0.2028
  133OSM   H18F14461   0.833   0.807   8.117 -1.4566  1.7808  1.0483
  133OSM   H18G14462   0.910   0.954   8.181 -1.9235  1.1112 -0.9313
  133OSM   H18H14463   0.999   0.829   8.067 -0.1632 -1.5552  1.6807
  134OSM      N14464   2.679   6.019   6.246 -0.4293  0.6698 -0.5279
  134OSM    C1514465   2.645   6.154   6.300 -0.4281 -0.0327 -0.4223
  134OSM   H15A14466   2.653   6.158   6.407  2.4905 -1.0479 -0.5281
  134OSM   H15B14467   2.546   6.189   6.272  0.3958  1.6496 -1.3633
  134OSM   H15C14468   2.712   6.230   6.263 -0.4092 -0.1610 -0.6537
  134OSM    C1414469   2.660   6.009   6.095 -0.5812  0.4781 -0.1802
  134OSM   H14A14470   2.563   6.029   6.052 -0.1631 -0.6491 -1.7418
  134OSM   H14B14471   2.664   5.903   6.075  0.4533  0.4341  0.1944
  134OSM   H14C14472   2.732   6.067   6.039  0.5422  0.5425  1.2597
  134OSM    C1314473   2.815   5.973   6.293 -0.0928 -0.6932  0.3461
  134OSM   H13A14474   2.825   6.009   6.394  0.9253 -0.4120  0.1576
  134OSM   H13B14475   2.890   6.020   6.231  0.1411 -0.7852  0.5606
  134OSM   H13C14476   2.816   5.865   6.298 -1.0968 -0.6912  0.9447
  134OSM    C1214477   2.577   5.926   6.310 -0.3207 -0.2114  0.0103
  134OSM   H12A14478   2.589   5.826   6.273  0.0871  0.0787 -0.6639
  134OSM   H12B14479   2.478   5.952   6.276 -0.2201  1.5120  0.9101
  134OSM    C1114480   2.567   5.930   6.464  0.3317  0.4261 -0.2998
  134OSM   H11A14481   2.663   5.908   6.514 -0.7206  1.6550  2.4464
  134OSM   H11B14482   2.496   5.849   6.490 -0.8743  1.5117 -0.1266
  134OSM      P14483   2.372   6.092   6.513  0.1533  0.4107 -0.3275
  134OSM    O1314484   2.360   6.235   6.561  1.0171  0.1660  0.2090
  134OSM    O1414485   2.323   6.057   6.377  0.2690 -0.1224 -0.3042
  134OSM    O1114486   2.284   6.007   6.613  0.0947  0.4544 -0.6234
  134OSM    O1214487   2.523   6.050   6.525  0.2466  0.2331 -0.0934
  134OSM    C1S14488   2.350   5.938   6.719  0.1635  0.3506 -0.0201
  134OSM    H1S14489   2.404   6.011   6.782  1.2595 -2.5877  2.7033
  134OSM    H1T14490   2.427   5.867   6.681 -1.6265 -0.5020 -2.3554
  134OSM     NF14491   2.317   5.809   6.933  0.2521  0.1167  0.3174
  134OSM    HNF14492   2.363   5.720   6.928  1.3003  0.7124 -2.8837
  134OSM    C2S14493   2.256   5.855   6.809  0.7652  0.8323  0.3833
  134OSM    H2S14494   2.164   5.912   6.833  0.2980  0.1138  0.3388
  134OSM    C3S14495   2.193   5.734   6.727 -0.5028 -0.1133  0.3597
  134OSM    H3S14496   2.284   5.675   6.701 -1.1217 -0.4288 -1.2155
  134OSM     O314497   2.132   5.764   6.605  0.3164 -0.3298  0.1166
  134OSM    HO314498   2.180   5.840   6.572  0.7617 -0.1695  1.0798
  134OSM    C4S14499   2.103   5.644   6.801  0.5032  0.0906 -0.2508
  134OSM    H4S14500   2.113   5.535   6.816 -0.4997 -0.1145 -0.9495
  134OSM    C5S14501   1.981   5.689   6.846  0.0676  0.1010 -0.1382
  134OSM    H5S14502   1.951   5.791   6.818 -2.5230 -1.0003 -1.8399
  134OSM    C6S14503   1.878   5.613   6.925  0.1008 -0.5583  1.2931
  134OSM    H6S14504   1.920   5.516   6.961  2.9144 -0.8686 -2.1983
  134OSM    H6T14505   1.803   5.586   6.847 -0.4095 -0.5343  1.7763
  134OSM    C7S14506   1.818   5.674   7.057  0.5365  0.3486  0.3145
  134OSM    H7S14507   1.785   5.780   7.047 -1.8973 -0.3369  0.4273
  134OSM    H7T14508   1.898   5.667   7.134  0.7137  0.6480  0.1617
  134OSM    C8S14509   1.694   5.594   7.103 -0.2276  0.2809 -1.1175
  134OSM    H8S14510   1.711   5.485   7.117  0.2477  0.3355 -1.2654
  134OSM    H8T14511   1.617   5.609   7.025 -0.4353  2.2279 -0.6058
  134OSM    C9S14512   1.637   5.635   7.237  0.3472  0.8184  0.6722
  134OSM    H9S14513   1.527   5.617   7.238 -0.0482  2.8186 -0.4619
  134OSM    H9T14514   1.643   5.746   7.239 -0.7960  0.8932  1.7447
  134OSM   C10S14515   1.717   5.582   7.359 -0.5040  0.6434 -0.0606
  134OSM   H10S14516   1.822   5.618   7.348 -0.2524  0.0271  0.2664
  134OSM   H10T14517   1.706   5.472   7.352  0.1835  0.6205 -1.2343
  134OSM   C11S14518   1.665   5.621   7.494  0.8939  0.2207 -0.9437
  134OSM   H11S14519   1.610   5.538   7.545 -0.1720  0.9450 -0.8862
  134OSM   H11T14520   1.595   5.707   7.488  0.6729  0.2320  1.0812
  134OSM   C12S14521   1.783   5.661   7.595  0.0853  0.1875 -0.2390
  134OSM   H12S14522   1.819   5.758   7.553 -5.1110  2.3948 -0.3620
  134OSM   H12T14523   1.872   5.595   7.595 -0.3831 -0.4642 -0.9576
  134OSM   C13S14524   1.725   5.672   7.735  0.4687  0.1698  0.3156
  134OSM   H13S14525   1.682   5.571   7.752  1.3153 -0.3363 -0.4634
  134OSM   H13T14526   1.636   5.740   7.732 -0.1746 -0.5571 -3.7101
  134OSM   C14S14527   1.823   5.703   7.840 -0.0846  0.3975  0.0451
  134OSM   H14S14528   1.838   5.812   7.850 -1.1723  0.4652  1.1144
  134OSM   H14T14529   1.917   5.647   7.822 -0.1802 -0.4743  2.0146
  134OSM   C15S14530   1.780   5.660   7.980 -0.7137  0.0272  0.4155
  134OSM   H15S14531   1.757   5.552   7.985  0.9466 -0.3020  1.9016
  134OSM   H15T14532   1.692   5.722   8.009 -1.4766 -0.5647 -0.5707
  134OSM   C16S14533   1.902   5.669   8.078  0.1849 -0.4484 -0.3229
  134OSM   H16S14534   1.938   5.773   8.087 -0.2528 -0.3605  0.4240
  134OSM   H16T14535   1.989   5.614   8.034  0.8974  0.5009 -0.1310
  134OSM   C17S14536   1.877   5.612   8.219 -0.2445 -0.0399  0.9518
  134OSM   H17S14537   1.811   5.523   8.209 -2.1523  1.1733  2.2842
  134OSM   H17T14538   1.823   5.676   8.291 -0.3538 -0.0302  0.8621
  134OSM   C18S14539   2.010   5.565   8.292 -0.2901 -0.4091 -0.0022
  134OSM   H18S14540   1.988   5.533   8.396  0.8568  3.9030  1.7520
  134OSM   H18T14541   2.087   5.644   8.293 -0.1217 -0.5644 -0.5516
  134OSM   H18U14542   2.046   5.475   8.237  0.9680  1.6515 -2.7855
  134OSM    C1F14543   2.343   5.889   7.035  0.6469  0.4428 -0.9204
  134OSM     OF14544   2.301   6.003   7.045  0.1548  0.1121  0.5086
  134OSM    C2F14545   2.445   5.843   7.140 -0.2366  0.3172 -0.0753
  134OSM    H2F14546   2.515   5.928   7.157  1.2281 -1.4226  3.5665
  134OSM    H2G14547   2.500   5.756   7.099  0.0338  0.5731 -0.2581
  134OSM    C3F14548   2.384   5.801   7.271  0.2756  0.8297 -0.8586
  134OSM    H3F14549   2.319   5.878   7.318 -1.5327 -1.2508  0.2999
  134OSM    H3G14550   2.473   5.773   7.331 -0.8535 -3.1504 -0.7496
  134OSM    C4F14551   2.310   5.663   7.264 -0.2989 -0.1689 -0.3250
  134OSM    H4F14552   2.351   5.584   7.198 -0.0738 -1.4008  1.2292
  134OSM    H4G14553   2.216   5.696   7.214 -0.0015  0.9461 -0.1723
  134OSM    C5F14554   2.280   5.591   7.400 -0.1693  0.3839  0.0336
  134OSM    H5F14555   2.359   5.518   7.426 -1.5156 -1.7793 -1.6796
  134OSM    H5G14556   2.193   5.524   7.385  1.4577 -1.9358  0.3882
  134OSM    C6F14557   2.265   5.679   7.525  0.4302  0.0183  1.1384
  134OSM    H6F14558   2.353   5.747   7.528 -0.0025  0.8680 -1.8380
  134OSM    H6G14559   2.262   5.611   7.613  0.4373  2.4298  3.1182
  134OSM    C7F14560   2.132   5.759   7.535 -0.9220  0.7830  0.3857
  134OSM    H7F14561   2.052   5.685   7.513 -2.1508  2.3352 -0.5769
  134OSM    H7G14562   2.138   5.828   7.448  0.4300 -0.3180 -0.4362
  134OSM    C8F14563   2.125   5.819   7.682 -0.1919 -0.4012  0.2641
  134OSM    H8F14564   2.154   5.741   7.755  0.0598 -1.1877 -0.6663
  134OSM    H8G14565   2.022   5.855   7.706  0.9637  2.5810  1.2348
  134OSM    C9F14566   2.229   5.932   7.689  0.5102 -0.0962 -0.8777
  134OSM    H9F14567   2.214   6.000   7.604 -1.2229  0.5518 -0.1206
  134OSM   C10F14568   2.306   5.956   7.798  0.0180 -0.2190  1.3989
  134OSM   H10F14569   2.383   6.034   7.795  0.9337 -1.1073  0.3403
  134OSM   C11F14570   2.313   5.872   7.926 -0.4791 -0.3976 -0.0487
  134OSM   H11F14571   2.397   5.801   7.916  1.2311  1.7808 -2.6013
  134OSM   H11G14572   2.224   5.812   7.957 -1.6964 -0.0158 -2.5612
  134OSM   C12F14573   2.341   5.960   8.053 -0.5470  0.0088 -0.3849
  134OSM   H12F14574   2.257   6.033   8.055 -0.1034  0.5098  1.2201
  134OSM   H12G14575   2.434   6.016   8.030 -0.1252  0.7360  2.5915
  134OSM   C13F14576   2.349   5.889   8.188 -0.0521  0.1093  0.0841
  134OSM   H13F14577   2.438   5.824   8.199 -1.7749 -2.1665  1.4058
  134OSM   H13G14578   2.255   5.834   8.206 -0.2632  0.4310 -0.0196
  134OSM   C14F14579   2.355   5.995   8.310  0.6784 -0.2730  0.0118
  134OSM   H14F14580   2.257   6.047   8.319  0.5505 -0.8243  2.9570
  134OSM   H14G14581   2.435   6.067   8.281  1.7696 -1.6076 -0.3872
  134OSM   C15F14582   2.396   5.947   8.447  0.5379 -0.1251 -0.0525
  134OSM   H15F14583   2.402   6.038   8.510 -0.1887  0.0957 -0.2880
  134OSM   H15G14584   2.496   5.901   8.456 -0.3058 -2.1054 -0.2272
  134OSM   C16F14585   2.303   5.837   8.509  0.7420 -0.4082 -0.5321
  134OSM   H16F14586   2.322   5.742   8.454  2.1283 -0.6675  0.3402
  134OSM   H16G14587   2.198   5.869   8.499  0.6113 -0.6541 -0.0162
  134OSM   C17F14588   2.324   5.831   8.660 -1.3060 -0.3519  0.0972
  134OSM   H17F14589   2.329   5.930   8.709 -2.0555 -0.9755  1.5028
  134OSM   H17G14590   2.420   5.778   8.681 -0.5610  0.8056 -0.2818
  134OSM   C18F14591   2.212   5.758   8.736 -0.1170 -0.1813 -0.0856
  134OSM   H18F14592   2.199   5.654   8.702 -0.3589 -0.0201 -0.4948
  134OSM   H18G14593   2.113   5.806   8.720  0.8173  1.5057 -1.1581
  134OSM   H18H14594   2.239   5.762   8.844  0.7111  3.2794 -0.2769
  135OSM      N14595   1.866   5.919   6.434 -0.8281  0.0632  0.2867
  135OSM    C1514596   1.754   5.995   6.369  0.2893 -0.7510  0.3024
  135OSM   H15A14597   1.751   5.994   6.261  0.9998  2.9613  0.1296
  135OSM   H15B14598   1.765   6.101   6.388 -1.5176 -0.2009 -1.4133
  135OSM   H15C14599   1.655   5.968   6.403  0.5065 -3.0303 -0.7157
  135OSM    C1414600   1.874   5.945   6.582  0.4701 -0.2419  0.1589
  135OSM   H14A14601   1.786   5.904   6.628 -0.5107  0.7811 -0.7277
  135OSM   H14B14602   1.887   6.051   6.599 -3.3798 -0.2392  5.1575
  135OSM   H14C14603   1.968   5.912   6.623  0.8402  1.6833  0.9750
  135OSM    C1314604   1.851   5.778   6.391 -0.4581 -0.1748  0.3771
  135OSM   H13A14605   1.918   5.714   6.447 -0.9347 -0.8428  0.1909
  135OSM   H13B14606   1.881   5.772   6.287  2.6231 -0.2400  1.1706
  135OSM   H13C14607   1.745   5.764   6.399 -1.0782  2.0674 -2.1852
  135OSM    C1214608   1.996   5.980   6.371  0.1435 -0.3410 -0.0048
  135OSM   H12A14609   2.030   5.947   6.274  2.3806 -1.5652  1.1001
  135OSM   H12B14610   2.074   5.963   6.444 -0.3720  0.9787  0.9057
  135OSM    C1114611   2.000   6.142   6.376 -0.0176  0.2016 -0.1843
  135OSM   H11A14612   1.926   6.190   6.307 -0.8217  0.2379  0.6824
  135OSM   H11B14613   2.102   6.152   6.333  1.2378 -2.1626  1.9834
  135OSM      P14614   1.904   6.301   6.562 -0.0268 -0.0600  0.0460
  135OSM    O1314615   1.926   6.432   6.495 -0.0963 -0.4629  0.4666
  135OSM    O1414616   1.765   6.248   6.555  0.6365  0.1421  0.2104
  135OSM    O1114617   1.934   6.319   6.718  0.6630  0.5855 -0.0453
  135OSM    O1214618   2.009   6.197   6.507 -0.9034  0.0644 -0.0101
  135OSM    C1S14619   2.056   6.267   6.774  0.8068 -0.4451  0.3361
  135OSM    H1S14620   2.147   6.321   6.739  0.7894 -0.7987 -0.2752
  135OSM    H1T14621   2.078   6.163   6.741 -0.7295 -0.7465  0.1768
  135OSM     NF14622   2.198   6.272   6.973  0.1881 -0.4044 -0.1678
  135OSM    HNF14623   2.229   6.179   6.993 -0.4944 -0.8091 -0.9566
  135OSM    C2S14624   2.059   6.276   6.928  0.1186 -0.0666  0.0630
  135OSM    H2S14625   2.018   6.378   6.947  1.4531  0.7328 -1.1634
  135OSM    C3S14626   1.969   6.161   6.975  0.2358  0.3259  0.2074
  135OSM    H3S14627   2.013   6.060   6.964  0.7296  0.1076  3.2638
  135OSM     O314628   1.839   6.161   6.913  0.1250 -0.3008  0.3471
  135OSM    HO314629   1.852   6.215   6.835 -0.7649 -0.3925  0.1174
  135OSM    C4S14630   1.946   6.178   7.122  0.3629 -0.2989 -0.4321
  135OSM    H4S14631   1.869   6.250   7.155 -1.3481 -1.2861 -2.1295
  135OSM    C5S14632   1.999   6.094   7.216  0.7044  0.0515  0.1513
  135OSM    H5S14633   2.069   6.019   7.176  1.1225  1.1740 -1.3260
  135OSM    C6S14634   1.977   6.094   7.357 -0.0130  0.4446 -0.1005
  135OSM    H6S14635   2.077   6.085   7.404  1.6578  1.0853 -3.2406
  135OSM    H6T14636   1.922   5.999   7.375 -2.0979  1.5872 -0.0832
  135OSM    C7S14637   1.898   6.214   7.415 -0.4510 -0.7008 -0.6000
  135OSM    H7S14638   1.790   6.212   7.388 -1.5135  1.0842  2.8946
  135OSM    H7T14639   1.950   6.306   7.381  0.9837 -0.8378  1.0994
  135OSM    C8S14640   1.900   6.228   7.565  0.1534 -0.2991 -0.6102
  135OSM    H8S14641   1.853   6.325   7.594  0.3367 -0.2935 -0.3370
  135OSM    H8T14642   2.003   6.219   7.605 -0.8412 -0.3934  2.1383
  135OSM    C9S14643   1.823   6.109   7.630 -0.0878  0.4924  1.1901
  135OSM    H9S14644   1.874   6.017   7.596 -1.5573  0.7950 -2.2031
  135OSM    H9T14645   1.719   6.120   7.593 -0.0521  1.4245  1.3378
  135OSM   C10S14646   1.809   6.119   7.780  0.3381  0.1693  0.0596
  135OSM   H10S14647   1.747   6.035   7.820  1.6012 -1.2820 -0.9072
  135OSM   H10T14648   1.759   6.218   7.788  0.8697  0.6429 -1.9642
  135OSM   C11S14649   1.941   6.118   7.859  0.1662 -0.1537 -0.7793
  135OSM   H11S14650   2.003   6.205   7.831  1.4694 -1.5734 -2.4965
  135OSM   H11T14651   2.002   6.039   7.812  1.3142 -0.0774  0.5321
  135OSM   C12S14652   1.928   6.096   8.005 -0.2206 -0.4589 -0.5436
  135OSM   H12S14653   2.032   6.080   8.039 -0.4849  0.3602  0.7436
  135OSM   H12T14654   1.865   6.007   8.025 -2.2672  0.9908 -0.2583
  135OSM   C13S14655   1.869   6.220   8.083 -0.1501  0.3118  0.1506
  135OSM   H13S14656   1.759   6.211   8.079 -0.2366 -0.1648  2.4305
  135OSM   H13T14657   1.913   6.315   8.045  1.9166  0.3647  2.3963
  135OSM   C14S14658   1.900   6.214   8.234 -0.2641 -0.2791  0.1777
  135OSM   H14S14659   1.880   6.316   8.274 -0.0260  0.3674 -1.2753
  135OSM   H14T14660   2.010   6.196   8.239 -0.0120 -0.3948 -3.2233
  135OSM   C15S14661   1.827   6.107   8.316  0.4477 -0.5013 -0.2159
  135OSM   H15S14662   1.858   6.005   8.286  0.4307 -0.2453 -1.1356
  135OSM   H15T14663   1.719   6.122   8.293  0.2792  0.4521  1.0462
  135OSM   C16S14664   1.845   6.122   8.473 -0.0943  0.1930 -0.5888
  135OSM   H16S14665   1.776   6.048   8.519  1.3737  0.2971  1.9172
  135OSM   H16T14666   1.837   6.231   8.492  2.3159  0.2225  0.5200
  135OSM   C17S14667   1.987   6.081   8.520  0.2947  0.5135  0.4513
  135OSM   H17S14668   2.050   6.152   8.463 -0.4793  0.7667 -0.1042
  135OSM   H17T14669   2.002   5.976   8.486  3.5914  1.3051 -0.9458
  135OSM   C18S14670   2.017   6.090   8.668  0.9392 -0.4546  0.0073
  135OSM   H18S14671   2.114   6.046   8.698  0.6491 -0.4202  1.0471
  135OSM   H18T14672   1.934   6.039   8.722 -1.0927  0.4060 -2.1386
  135OSM   H18U14673   2.016   6.196   8.703  1.0268 -0.0407 -1.1962
  135OSM    C1F14674   2.278   6.375   6.972 -0.6537  0.0190  0.6024
  135OSM     OF14675   2.235   6.474   6.911 -0.1365  0.1861  0.6542
  135OSM    C2F14676   2.413   6.359   7.041  0.0682  0.0804  0.0529
  135OSM    H2F14677   2.492   6.352   6.963 -0.9807 -1.6670 -0.9139
  135OSM    H2G14678   2.415   6.274   7.112  0.7851 -0.3916 -0.5228
  135OSM    C3F14679   2.432   6.478   7.129 -0.0502  0.3576  0.4480
  135OSM    H3F14680   2.440   6.564   7.059  4.3847  0.4071  0.7081
  135OSM    H3G14681   2.532   6.461   7.175  1.5988  1.8831 -2.3002
  135OSM    C4F14682   2.334   6.506   7.241 -0.5774 -0.4462  0.1560
  135OSM    H4F14683   2.240   6.550   7.199  0.6655  1.9601 -0.3121
  135OSM    H4G14684   2.373   6.594   7.296 -1.6362  0.1460 -0.0076
  135OSM    C5F14685   2.321   6.383   7.335  0.2952  0.0128 -0.2917
  135OSM    H5F14686   2.423   6.340   7.345  0.6402 -0.2350 -3.6837
  135OSM    H5G14687   2.259   6.314   7.274  2.0927 -0.0751 -2.1019
  135OSM    C6F14688   2.244   6.423   7.457 -0.1974  0.0965 -0.2708
  135OSM    H6F14689   2.169   6.345   7.483  0.9661 -0.8987  0.2101
  135OSM    H6G14690   2.182   6.513   7.437 -1.1072  0.0330  2.0011
  135OSM    C7F14691   2.327   6.444   7.588  0.4578  0.5499  0.3221
  135OSM    H7F14692   2.274   6.522   7.648 -1.7564 -1.9568  1.8532
  135OSM    H7G14693   2.423   6.485   7.550  0.5344 -0.6271 -0.8113
  135OSM    C8F14694   2.339   6.315   7.675  0.0740 -1.0816  0.4227
  135OSM    H8F14695   2.365   6.230   7.608 -2.8805 -0.6728 -1.4178
  135OSM    H8G14696   2.238   6.277   7.705 -0.1967 -1.5910 -1.0661
  135OSM    C9F14697   2.436   6.332   7.789  0.4806  0.0422  0.1453
  135OSM    H9F14698   2.543   6.316   7.768  0.2429 -1.1542 -0.2187
  135OSM   C10F14699   2.410   6.372   7.909 -0.3173 -0.3090  0.1556
  135OSM   H10F14700   2.493   6.373   7.982 -0.7626 -2.5910  0.7783
  135OSM   C11F14701   2.274   6.414   7.969  0.1676 -0.6241  0.2056
  135OSM   H11F14702   2.191   6.369   7.911  1.8884 -1.0112 -2.1259
  135OSM   H11G14703   2.271   6.524   7.956 -1.3649 -0.4751  1.6254
  135OSM   C12F14704   2.253   6.382   8.116 -0.1329 -0.3733  0.2281
  135OSM   H12F14705   2.269   6.274   8.137 -1.4973 -0.2369  2.2417
  135OSM   H12G14706   2.147   6.401   8.145  0.8114  2.4306  2.3358
  135OSM   C13F14707   2.350   6.456   8.221 -0.3060  0.2298  0.4799
  135OSM   H13F14708   2.351   6.566   8.205  2.1868  0.0454 -1.1709
  135OSM   H13G14709   2.452   6.412   8.214  1.2200  3.1112  2.5495
  135OSM   C14F14710   2.297   6.419   8.358  0.1767  0.1275  0.0367
  135OSM   H14F14711   2.316   6.310   8.367 -2.5977 -0.5472 -1.2062
  135OSM   H14G14712   2.187   6.428   8.368 -0.0276 -0.2900 -1.5157
  135OSM   C15F14713   2.364   6.489   8.478 -0.2960 -0.3891  0.3376
  135OSM   H15F14714   2.324   6.592   8.473 -0.2560 -0.3479  0.8806
  135OSM   H15G14715   2.472   6.496   8.456 -0.5764  1.1351 -0.7264
  135OSM   C16F14716   2.333   6.440   8.624 -0.0796  0.4437  0.9676
  135OSM   H16F14717   2.224   6.430   8.643 -0.0846 -1.2299  0.2274
  135OSM   H16G14718   2.381   6.515   8.691  3.0731 -2.1474  1.8586
  135OSM   C17F14719   2.397   6.302   8.663 -0.0096 -0.1018 -0.1017
  135OSM   H17F14720   2.504   6.292   8.638  0.1830  2.3577 -0.5253
  135OSM   H17G14721   2.342   6.223   8.607  1.5065 -2.4158  1.5308
  135OSM   C18F14722   2.381   6.285   8.805  0.3606 -0.2891  0.5323
  135OSM   H18F14723   2.434   6.366   8.858  0.4774 -0.0879  0.1132
  135OSM   H18G14724   2.439   6.194   8.830  2.2694  0.0784 -2.1000
  135OSM   H18H14725   2.274   6.284   8.835 -0.0945  1.2698 -0.8993
  136OSM      N14726   5.815   6.097   6.104 -0.4072  0.4347  0.5039
  136OSM    C1514727   5.715   6.124   6.002 -0.0378 -0.3870 -0.0699
  136OSM   H15A14728   5.716   6.231   5.986  0.3132 -0.4926 -0.8009
  136OSM   H15B14729   5.612   6.117   6.034 -0.0955 -0.1161 -0.1929
  136OSM   H15C14730   5.731   6.069   5.910  0.8004 -0.5950  0.1996
  136OSM    C1414731   5.835   5.947   6.110  0.4667 -0.2675 -0.5068
  136OSM   H14A14732   5.862   5.903   6.015 -4.0868  2.7586 -3.5797
  136OSM   H14B14733   5.747   5.893   6.140  0.2244  1.5752  2.5332
  136OSM   H14C14734   5.918   5.926   6.176  0.9375 -1.5955 -1.4578
  136OSM    C1314735   5.946   6.158   6.060 -0.0424  0.3264 -0.1468
  136OSM   H13A14736   6.019   6.157   6.140  1.9311 -0.4585 -1.8894
  136OSM   H13B14737   5.934   6.261   6.030  1.2243  0.1388 -1.3790
  136OSM   H13C14738   5.983   6.102   5.976  0.7921  0.7522 -0.0710
  136OSM    C1214739   5.770   6.151   6.239 -0.0504 -0.8972  0.6031
  136OSM   H12A14740   5.851   6.134   6.309  1.7108  1.3663 -0.7580
  136OSM   H12B14741   5.682   6.094   6.266 -1.9086  1.3191 -0.4714
  136OSM    C1114742   5.727   6.301   6.245 -0.5167  0.7496 -0.0602
  136OSM   H11A14743   5.695   6.318   6.350 -0.6863 -0.4969  0.1010
  136OSM   H11B14744   5.632   6.317   6.191 -0.3962  0.2508 -0.4237
  136OSM      P14745   5.790   6.508   6.096 -0.0726  0.2452 -0.2179
  136OSM    O1314746   5.923   6.559   6.051  0.6732  0.9508  0.0749
  136OSM    O1414747   5.701   6.451   5.995  0.5109  0.0913  0.9305
  136OSM    O1114748   5.729   6.619   6.190 -0.2889 -0.0177  0.3708
  136OSM    O1214749   5.832   6.400   6.204  0.0203 -0.2850 -0.0402
  136OSM    C1S14750   5.596   6.614   6.247 -0.2807  0.1268  0.3275
  136OSM    H1S14751   5.549   6.514   6.237 -1.4961  0.6776  0.3802
  136OSM    H1T14752   5.526   6.679   6.191 -0.8066 -1.1021 -0.4759
  136OSM     NF14753   5.479   6.607   6.466  0.0044  0.0588  0.3673
  136OSM    HNF14754   5.426   6.683   6.504  1.6581  1.0060  0.8636
  136OSM    C2S14755   5.603   6.645   6.401 -0.1203  0.1165 -0.0075
  136OSM    H2S14756   5.681   6.572   6.433  1.6447  0.3829 -3.2964
  136OSM    C3S14757   5.654   6.786   6.437  0.1907  0.2625  0.0885
  136OSM    H3S14758   5.569   6.855   6.423  0.2114 -0.1215 -2.5323
  136OSM     O314759   5.759   6.829   6.358 -0.3955  0.7338 -0.5777
  136OSM    HO314760   5.782   6.751   6.307  0.1609  0.7234 -0.3124
  136OSM    C4S14761   5.697   6.798   6.579 -0.9525  0.2461 -0.1869
  136OSM    H4S14762   5.736   6.703   6.619 -0.4755  0.4611 -0.1363
  136OSM    C5S14763   5.679   6.894   6.668  0.8481  0.4401 -0.4632
  136OSM    H5S14764   5.623   6.984   6.638  0.4700 -0.2464 -1.8779
  136OSM    C6S14765   5.726   6.889   6.813  0.1831 -0.2281 -0.5708
  136OSM    H6S14766   5.809   6.963   6.821 -0.1874  0.4301 -2.2549
  136OSM    H6T14767   5.777   6.797   6.849  0.6056  0.6114  1.0619
  136OSM    C7S14768   5.620   6.931   6.916 -0.2273  0.1056  0.1928
  136OSM    H7S14769   5.545   6.850   6.926 -0.6772  0.5658  0.6382
  136OSM    H7T14770   5.573   7.026   6.881  0.2898  1.3719  2.6803
  136OSM    C8S14771   5.675   6.961   7.055  0.0321 -0.3254 -0.7850
  136OSM    H8S14772   5.765   7.026   7.055 -0.6606  0.6616 -0.8483
  136OSM    H8T14773   5.708   6.860   7.088 -1.7261 -0.2696  1.3720
  136OSM    C9S14774   5.567   7.007   7.151  0.1165  0.2444 -0.0642
  136OSM    H9S14775   5.497   6.924   7.174  0.8131 -0.5955 -0.9119
  136OSM    H9T14776   5.496   7.084   7.114 -1.2518 -0.5700  0.7667
  136OSM   C10S14777   5.612   7.047   7.287 -0.4233 -0.1418 -0.1759
  136OSM   H10S14778   5.706   7.103   7.267 -0.5734  0.1330 -0.1101
  136OSM   H10T14779   5.638   6.955   7.343 -0.8748 -0.7687 -0.9774
  136OSM   C11S14780   5.508   7.130   7.358 -0.7397 -0.1353 -0.1804
  136OSM   H11S14781   5.408   7.086   7.340 -0.6065 -0.8594  0.7745
  136OSM   H11T14782   5.515   7.237   7.330 -3.7029 -0.1265 -1.2505
  136OSM   C12S14783   5.544   7.137   7.510  0.3142  0.2201  0.7107
  136OSM   H12S14784   5.633   7.201   7.526  0.3728  0.4783 -0.5265
  136OSM   H12T14785   5.567   7.032   7.536 -1.2871 -0.3946 -0.1713
  136OSM   C13S14786   5.443   7.197   7.603  0.5755 -0.1545  0.2179
  136OSM   H13S14787   5.344   7.151   7.585 -0.1283  1.4929 -0.2444
  136OSM   H13T14788   5.430   7.301   7.567 -3.4350 -1.2401 -2.0236
  136OSM   C14S14789   5.475   7.202   7.755 -0.2434  0.0520 -0.5352
  136OSM   H14S14790   5.565   7.267   7.758 -0.4006  0.2517  2.0834
  136OSM   H14T14791   5.497   7.107   7.809 -0.3076  0.2348 -0.1835
  136OSM   C15S14792   5.355   7.270   7.830 -0.9985  0.1470 -0.1184
  136OSM   H15S14793   5.269   7.200   7.820 -0.0656 -1.4364  1.9671
  136OSM   H15T14794   5.333   7.367   7.782  1.0741  1.3994  1.2660
  136OSM   C16S14795   5.385   7.297   7.977  0.1520  0.9864 -0.5539
  136OSM   H16S14796   5.451   7.385   7.993  0.8289  0.4555 -0.3893
  136OSM   H16T14797   5.443   7.222   8.035  1.5449  0.8548 -2.0406
  136OSM   C17S14798   5.250   7.322   8.056 -0.0994  0.7918 -0.0566
  136OSM   H17S14799   5.175   7.241   8.043  1.0952 -0.4197  0.3752
  136OSM   H17T14800   5.210   7.421   8.027  0.4354  0.5526 -1.7104
  136OSM   C18S14801   5.272   7.319   8.206 -0.4206 -0.1373  0.0769
  136OSM   H18S14802   5.172   7.318   8.256 -1.1351 -1.3242 -1.3079
  136OSM   H18T14803   5.314   7.416   8.238 -2.1419  0.6614  0.0497
  136OSM   H18U14804   5.337   7.234   8.236  0.0327  0.9199  2.3237
  136OSM    C1F14805   5.434   6.474   6.481  0.1787 -0.8577 -0.7714
  136OSM     OF14806   5.504   6.373   6.470  0.1716  0.2794 -0.0750
  136OSM    C2F14807   5.296   6.454   6.545 -0.4773  0.3182  0.5274
  136OSM    H2F14808   5.226   6.405   6.475 -1.0689  0.7325  0.8187
  136OSM    H2G14809   5.257   6.556   6.565  1.4947  1.4942 -1.1699
  136OSM    C3F14810   5.305   6.368   6.669  0.5989  0.0869  0.0613
  136OSM    H3F14811   5.338   6.262   6.656  1.3418  0.4477 -1.1708
  136OSM    H3G14812   5.206   6.365   6.719  0.2883  2.1312 -0.3571
  136OSM    C4F14813   5.396   6.432   6.767  0.2859  0.1803 -0.3489
  136OSM    H4F14814   5.384   6.542   6.762 -0.7421  0.1241  0.5668
  136OSM    H4G14815   5.501   6.399   6.755  0.2673 -0.5186  1.2396
  136OSM    C5F14816   5.362   6.395   6.912  0.3359 -0.5062  0.1327
  136OSM    H5F14817   5.366   6.286   6.932  0.7412 -0.8628 -1.7124
  136OSM    H5G14818   5.256   6.424   6.929  0.3866 -0.1268 -0.1981
  136OSM    C6F14819   5.440   6.457   7.030 -0.3828  0.1505  0.2054
  136OSM    H6F14820   5.459   6.564   7.005  1.2246 -0.3076 -0.6952
  136OSM    H6G14821   5.540   6.409   7.035  0.3124  1.5397  0.1191
  136OSM    C7F14822   5.372   6.437   7.168 -0.6741  0.0562 -0.1642
  136OSM    H7F14823   5.372   6.326   7.174  3.0374 -0.1319 -1.1498
  136OSM    H7G14824   5.272   6.486   7.171 -0.3232  0.8438 -1.1175
  136OSM    C8F14825   5.461   6.475   7.291  0.1998 -0.6909 -0.1537
  136OSM    H8F14826   5.559   6.425   7.277  0.7088  0.2276  0.0980
  136OSM    H8G14827   5.417   6.437   7.385  0.2235  2.3088  1.1864
  136OSM    C9F14828   5.474   6.625   7.291  0.1785 -0.0779  0.6593
  136OSM    H9F14829   5.535   6.661   7.207 -0.0412 -0.5333  0.3020
  136OSM   C10F14830   5.426   6.708   7.385  0.3523  0.6024  0.4841
  136OSM   H10F14831   5.452   6.815   7.380 -1.6860  1.2143  1.6988
  136OSM   C11F14832   5.347   6.676   7.511  0.1800  0.1189  0.5078
  136OSM   H11F14833   5.366   6.568   7.532 -3.1237 -1.0525 -1.6423
  136OSM   H11G14834   5.237   6.681   7.493  0.2162  1.9937  0.6729
  136OSM   C12F14835   5.368   6.758   7.643 -0.4647 -0.0631  0.1695
  136OSM   H12F14836   5.319   6.855   7.623 -1.9523  0.2593  4.4134
  136OSM   H12G14837   5.479   6.767   7.643 -0.3869 -0.6375 -1.6883
  136OSM   C13F14838   5.303   6.701   7.760  0.2299  0.2643 -0.0376
  136OSM   H13F14839   5.343   6.601   7.787 -1.9679 -0.3395  1.3391
  136OSM   H13G14840   5.194   6.692   7.738  0.1824 -1.6810  0.7501
  136OSM   C14F14841   5.314   6.803   7.877 -0.5566 -0.1461 -0.7659
  136OSM   H14F14842   5.240   6.768   7.952  2.8283  0.3611  3.2257
  136OSM   H14G14843   5.294   6.904   7.836  0.1814  0.4311  0.2179
  136OSM   C15F14844   5.454   6.797   7.942  0.6902  0.5351 -0.4172
  136OSM   H15F14845   5.533   6.835   7.873  3.3542  0.0917  2.1855
  136OSM   H15G14846   5.482   6.692   7.965  1.7738  0.7786 -0.5824
  136OSM   C16F14847   5.469   6.880   8.065 -0.0471 -0.7274 -0.5351
  136OSM   H16F14848   5.378   6.885   8.128  0.2544 -1.5436 -0.0006
  136OSM   H16G14849   5.490   6.972   8.008  1.9639 -0.4307  0.5936
  136OSM   C17F14850   5.595   6.853   8.147  0.5699 -0.2102 -0.7355
  136OSM   H17F14851   5.675   6.816   8.080  0.7466 -2.6721  0.6897
  136OSM   H17G14852   5.562   6.770   8.214  1.1178 -0.3847 -0.6805
  136OSM   C18F14853   5.632   6.972   8.241  0.0616 -0.4267 -0.2440
  136OSM   H18F14854   5.696   6.929   8.321 -1.9580 -2.1396  0.5674
  136OSM   H18G14855   5.545   7.026   8.284 -0.7882 -0.7857 -1.4417
  136OSM   H18H14856   5.688   7.053   8.190 -0.2404 -1.5427 -2.4737
  137OSM      N14857   2.342   5.048   6.359 -0.8636  0.5222 -0.0036
  137OSM    C1514858   2.290   5.175   6.435  0.4664  0.3345  0.0424
  137OSM   H15A14859   2.379   5.198   6.492  0.6801 -1.1104  0.3397
  137OSM   H15B14860   2.209   5.141   6.499  0.8035 -0.8928 -0.1479
  137OSM   H15C14861   2.270   5.259   6.370 -2.9099  0.1584  0.6906
  137OSM    C1414862   2.221   5.009   6.285  0.0452  0.0659  0.1029
  137OSM   H14A14863   2.195   5.091   6.221 -0.8563 -1.1045 -1.0747
  137OSM   H14B14864   2.140   4.994   6.355 -0.1168 -1.1703 -0.3114
  137OSM   H14C14865   2.237   4.918   6.229  2.1296  0.2919  0.2253
  137OSM    C1314866   2.456   5.082   6.268 -0.1896  0.5962  0.5348
  137OSM   H13A14867   2.502   4.990   6.237  0.4115  1.1946 -0.3824
  137OSM   H13B14868   2.536   5.135   6.316 -1.0154  2.4565 -0.0561
  137OSM   H13C14869   2.410   5.123   6.180 -1.4841 -2.1703 -0.1838
  137OSM    C1214870   2.380   4.952   6.466 -0.5276 -0.5757 -0.7711
  137OSM   H12A14871   2.291   4.946   6.528 -0.7244 -0.2405 -1.0199
  137OSM   H12B14872   2.457   4.997   6.527 -0.4238 -0.6147 -0.8737
  137OSM    C1114873   2.426   4.819   6.422  0.7580  0.1181 -0.4007
  137OSM   H11A14874   2.370   4.780   6.334  0.7091 -0.7224 -0.0085
  137OSM   H11B14875   2.408   4.748   6.505  0.0789 -0.8914 -1.3784
  137OSM      P14876   2.641   4.691   6.352 -0.2980 -0.1422 -0.2125
  137OSM    O1314877   2.569   4.617   6.255  0.7166 -0.0516  0.1417
  137OSM    O1414878   2.779   4.738   6.328  0.5294  0.3562 -0.7180
  137OSM    O1114879   2.629   4.625   6.497 -0.4904 -0.5613  0.2785
  137OSM    O1214880   2.565   4.829   6.386  0.3492  0.0260 -0.5283
  137OSM    C1S14881   2.666   4.699   6.615  0.2424 -0.2535  0.5683
  137OSM    H1S14882   2.647   4.808   6.609  1.9462  0.0583  0.1377
  137OSM    H1T14883   2.777   4.694   6.623  0.3388  0.9457  0.1595
  137OSM     NF14884   2.620   4.732   6.856  0.1354  0.3358 -0.2325
  137OSM    HNF14885   2.654   4.687   6.938 -1.9408  1.1020  1.1451
  137OSM    C2S14886   2.603   4.639   6.741  0.3247 -0.8587 -0.0185
  137OSM    H2S14887   2.495   4.626   6.721  0.5866  1.3517 -3.8476
  137OSM    C3S14888   2.647   4.490   6.767 -0.4282  0.4972 -0.0902
  137OSM    H3S14889   2.756   4.492   6.787 -0.7832  0.3869  2.1888
  137OSM     O314890   2.632   4.408   6.648 -0.3788  0.3818 -0.0667
  137OSM    HO314891   2.629   4.482   6.587  0.8308  1.5815  1.2525
  137OSM    C4S14892   2.571   4.430   6.880  0.0545 -0.2618  1.0306
  137OSM    H4S14893   2.627   4.441   6.974 -0.3474  3.1448  1.0130
  137OSM    C5S14894   2.448   4.381   6.883 -0.7773  0.0835  0.0761
  137OSM    H5S14895   2.397   4.369   6.787  2.6320  0.6996 -1.9611
  137OSM    C6S14896   2.381   4.325   7.002  0.4830 -0.8215 -0.4696
  137OSM    H6S14897   2.386   4.214   7.002  0.8065 -0.8583  2.3127
  137OSM    H6T14898   2.272   4.344   6.999  0.4500 -0.8034  0.6003
  137OSM    C7S14899   2.443   4.361   7.141  0.5558 -0.2843  0.4881
  137OSM    H7S14900   2.453   4.472   7.139  0.4026 -0.2334  1.5619
  137OSM    H7T14901   2.547   4.323   7.137  0.7685  0.3268 -3.0176
  137OSM    C8S14902   2.358   4.320   7.250 -0.0070 -0.5344 -0.0810
  137OSM    H8S14903   2.373   4.212   7.270  0.3353 -0.4979 -0.1380
  137OSM    H8T14904   2.254   4.355   7.234  0.4509  1.5674  1.1322
  137OSM    C9S14905   2.400   4.391   7.376 -0.5764 -0.8657  0.1222
  137OSM    H9S14906   2.382   4.499   7.358  1.0997 -0.4535  0.7222
  137OSM    H9T14907   2.508   4.378   7.398 -0.3680  0.7156  0.1392
  137OSM   C10S14908   2.310   4.354   7.497 -0.2168 -0.1655  0.4661
  137OSM   H10S14909   2.319   4.250   7.533  0.4560  0.1076  1.1102
  137OSM   H10T14910   2.205   4.378   7.470  0.6077  1.4496 -1.6299
  137OSM   C11S14911   2.338   4.433   7.622 -0.3629 -0.7296  0.1737
  137OSM   H11S14912   2.254   4.420   7.693  1.2601 -2.7077  1.8819
  137OSM   H11T14913   2.345   4.536   7.582 -1.5138 -1.0804 -1.0144
  137OSM   C12S14914   2.471   4.377   7.682  0.2632  0.1730  0.3391
  137OSM   H12S14915   2.545   4.347   7.605  1.6735  0.1354  1.6654
  137OSM   H12T14916   2.449   4.281   7.733 -4.1353  1.9560  2.3662
  137OSM   C13S14917   2.538   4.475   7.777 -0.3930 -0.4634  0.2985
  137OSM   H13S14918   2.563   4.560   7.710 -0.1537 -0.9144 -0.1940
  137OSM   H13T14919   2.624   4.420   7.822 -0.6003  2.0122  4.1563
  137OSM   C14S14920   2.454   4.532   7.889 -0.3683  0.3529 -0.4035
  137OSM   H14S14921   2.375   4.602   7.854  0.6893  2.4476  1.1800
  137OSM   H14T14922   2.516   4.606   7.942 -0.8800  1.6765 -1.5856
  137OSM   C15S14923   2.413   4.412   7.972  1.1877  0.3497 -0.3140
  137OSM   H15S14924   2.499   4.344   7.987 -0.2829 -2.1287 -2.3278
  137OSM   H15T14925   2.343   4.350   7.912  1.0598 -0.5204  0.7156
  137OSM   C16S14926   2.349   4.455   8.107  0.9918 -0.6133 -0.2691
  137OSM   H16S14927   2.276   4.536   8.092  0.9477 -0.7730 -0.9358
  137OSM   H16T14928   2.429   4.495   8.173  0.9130  0.7127 -0.9416
  137OSM   C17S14929   2.276   4.342   8.176  0.2298 -0.4553 -1.0256
  137OSM   H17S14930   2.178   4.310   8.134  0.7336 -0.3853 -2.2915
  137OSM   H17T14931   2.254   4.379   8.278  2.0222  1.8664 -1.3981
  137OSM   C18S14932   2.373   4.221   8.186  0.1691  0.2640  0.5096
  137OSM   H18S14933   2.315   4.139   8.235 -0.7865 -0.1369 -1.2060
  137OSM   H18T14934   2.459   4.227   8.255  1.4029 -3.0849 -0.5272
  137OSM   H18U14935   2.405   4.188   8.085 -0.5209  2.2824 -0.4150
  137OSM    C1F14936   2.585   4.862   6.865  0.5749  0.2610 -0.7246
  137OSM     OF14937   2.516   4.924   6.788 -0.4329  0.1427  0.0350
  137OSM    C2F14938   2.626   4.919   7.000  0.4986 -0.1346 -0.0270
  137OSM    H2F14939   2.736   4.920   6.990  0.6606 -2.0672  1.0520
  137OSM    H2G14940   2.591   4.849   7.079 -0.6517 -1.6813 -1.8141
  137OSM    C3F14941   2.552   5.054   7.023 -0.0067  0.7699  0.0154
  137OSM    H3F14942   2.443   5.032   7.024 -0.0639  0.5788 -2.9667
  137OSM    H3G14943   2.578   5.121   6.939  1.5595  0.0359 -0.1269
  137OSM    C4F14944   2.608   5.134   7.142  0.0181  0.1837 -0.4563
  137OSM    H4F14945   2.718   5.134   7.133  0.2282 -1.0237  1.5259
  137OSM    H4G14946   2.590   5.069   7.231  0.7158 -1.0966 -1.2281
  137OSM    C5F14947   2.550   5.269   7.154  0.0126  0.2177 -0.9302
  137OSM    H5F14948   2.445   5.245   7.182  0.1379  2.5878  1.9310
  137OSM    H5G14949   2.553   5.327   7.059  1.5750  1.6606 -0.0428
  137OSM    C6F14950   2.619   5.359   7.256  0.5839  0.3934  0.7409
  137OSM    H6F14951   2.590   5.466   7.249 -1.2637 -0.1762 -2.6968
  137OSM    H6G14952   2.726   5.341   7.233  0.4563  1.0346 -0.4424
  137OSM    C7F14953   2.607   5.305   7.407 -0.5930  0.0612 -0.6725
  137OSM    H7F14954   2.639   5.199   7.395  0.9706  0.4740 -0.4692
  137OSM    H7G14955   2.502   5.327   7.433 -0.6468  0.0299 -0.8596
  137OSM    C8F14956   2.699   5.378   7.501  0.5637 -0.1624  0.0134
  137OSM    H8F14957   2.668   5.484   7.500  2.2988  0.5844  4.2355
  137OSM    H8G14958   2.805   5.379   7.468  0.2018 -2.4565 -1.4676
  137OSM    C9F14959   2.682   5.318   7.641 -0.5660 -0.1337  0.0930
  137OSM    H9F14960   2.772   5.258   7.661 -1.0273 -1.1845 -0.8715
  137OSM   C10F14961   2.597   5.342   7.746 -0.4125  0.0348  0.0576
  137OSM   H10F14962   2.613   5.291   7.842  0.8307  2.2755  1.1240
  137OSM   C11F14963   2.489   5.442   7.753  0.0773 -0.2504  0.1733
  137OSM   H11F14964   2.389   5.402   7.725  1.0024 -1.1743 -1.9922
  137OSM   H11G14965   2.518   5.516   7.675 -0.1369 -0.9862 -0.6112
  137OSM   C12F14966   2.473   5.524   7.889  0.7010 -0.5260  0.4081
  137OSM   H12F14967   2.400   5.603   7.861 -1.7735 -1.6030  3.2970
  137OSM   H12G14968   2.573   5.568   7.911  2.3188 -3.2355 -1.0120
  137OSM   C13F14969   2.405   5.444   8.007 -0.0762  0.3778 -0.0146
  137OSM   H13F14970   2.455   5.346   8.019 -2.0948 -0.4086  3.2736
  137OSM   H13G14971   2.297   5.422   7.992 -0.1897  0.0709  1.2096
  137OSM   C14F14972   2.436   5.506   8.142  0.2663  0.2337 -0.6649
  137OSM   H14F14973   2.376   5.592   8.178 -1.0695 -0.2861 -1.5709
  137OSM   H14G14974   2.540   5.545   8.143 -0.1373  1.4151  1.4820
  137OSM   C15F14975   2.413   5.401   8.261  0.1503  0.1597  0.5126
  137OSM   H15F14976   2.472   5.311   8.236 -0.7888  0.2927 -2.5526
  137OSM   H15G14977   2.306   5.376   8.269  0.0224  1.1524  2.7241
  137OSM   C16F14978   2.469   5.465   8.396  0.3254 -0.1344  0.1631
  137OSM   H16F14979   2.424   5.564   8.416 -1.2648 -1.0129  1.1023
  137OSM   H16G14980   2.574   5.486   8.365  0.3708 -0.1394  0.3142
  137OSM   C17F14981   2.454   5.374   8.519  0.3422  0.1722 -0.0446
  137OSM   H17F14982   2.352   5.331   8.520 -0.6963  2.4991  0.8598
  137OSM   H17G14983   2.486   5.437   8.605  0.5692 -0.0710  0.0529
  137OSM   C18F14984   2.561   5.261   8.536  0.5238  1.3019 -0.1865
  137OSM   H18F14985   2.541   5.206   8.630  1.3013  1.6549  0.1965
  137OSM   H18G14986   2.661   5.306   8.554  1.3748  0.2493 -1.9407
  137OSM   H18H14987   2.551   5.192   8.449 -1.6614  0.1019  0.9451
  138OSM      N14988   4.092   1.340   5.937  0.2825  0.0421 -0.0267
  138OSM    C1514989   4.230   1.286   5.939  0.0729 -0.3336  0.4772
  138OSM   H15A14990   4.291   1.333   5.863  0.4345 -1.9329 -0.2600
  138OSM   H15B14991   4.235   1.178   5.933 -1.3219 -0.4201  0.5694
  138OSM   H15C14992   4.278   1.320   6.030  1.4565 -0.8264 -0.0479
  138OSM    C1414993   4.027   1.306   5.804 -0.0329 -0.9740 -0.3270
  138OSM   H14A14994   4.024   1.199   5.787 -2.3881 -1.1693  0.8516
  138OSM   H14B14995   4.087   1.353   5.728  0.8702  2.9219  2.5090
  138OSM   H14C14996   3.923   1.334   5.809  0.3283  0.2169  1.1382
  138OSM    C1314997   4.016   1.265   6.046 -0.0243 -0.1134  0.0062
  138OSM   H13A14998   4.035   1.159   6.038 -0.0803 -0.1980  0.9550
  138OSM   H13B14999   3.909   1.280   6.046 -0.0538 -0.3023 -0.4677
  138OSM   H13C15000   4.060   1.291   6.141 -2.6777  1.4611  0.9356
  138OSM    C1215001   4.089   1.488   5.977 -0.2715  0.4454  0.0069
  138OSM   H12A15002   3.985   1.515   5.978 -0.7914 -0.9650 -3.3039
  138OSM   H12B15003   4.136   1.545   5.898  0.8321 -0.2376  0.1402
  138OSM    C1115004   4.167   1.527   6.108 -0.4348  0.0051 -0.1801
  138OSM   H11A15005   4.177   1.635   6.130 -2.3492  0.3020 -0.5440
  138OSM   H11B15006   4.266   1.478   6.114 -0.8378 -1.0579 -1.5420
  138OSM      P15007   3.971   1.549   6.279 -0.0649 -0.1517 -0.0601
  138OSM    O1315008   4.010   1.699   6.291  0.3544  0.0992 -0.3667
  138OSM    O1415009   3.849   1.518   6.199  0.0414  0.7060  0.2399
  138OSM    O1115010   3.959   1.483   6.422  0.1918 -0.0075 -0.8771
  138OSM    O1215011   4.092   1.476   6.216 -0.0146  0.2846  0.2374
  138OSM    C1S15012   3.995   1.348   6.451  0.0199 -0.4524 -0.0190
  138OSM    H1S15013   4.104   1.329   6.438 -0.0100 -2.0985  1.6977
  138OSM    H1T15014   3.938   1.281   6.383  2.0461 -2.0981 -0.1956
  138OSM     NF15015   4.023   1.175   6.634 -0.6342 -0.0584 -0.8032
  138OSM    HNF15016   3.989   1.083   6.617  1.5604 -1.6541  2.4568
  138OSM    C2S15017   3.954   1.302   6.598 -0.2898 -0.1400  0.4989
  138OSM    H2S15018   3.983   1.384   6.668 -0.7859  1.1365 -0.7258
  138OSM    C3S15019   3.795   1.292   6.603 -0.9634  0.0505  0.9933
  138OSM    H3S15020   3.771   1.216   6.525  0.3974  0.3897  0.2150
  138OSM     O315021   3.727   1.414   6.559 -0.0843 -0.0539  0.1335
  138OSM    HO315022   3.806   1.460   6.530  1.8182 -1.0477  3.2121
  138OSM    C4S15023   3.755   1.246   6.742  0.1428 -0.3934  0.0065
  138OSM    H4S15024   3.763   1.326   6.818 -0.7814 -0.7443  0.4916
  138OSM    C5S15025   3.710   1.129   6.773 -0.6973  0.3874 -0.2833
  138OSM    H5S15026   3.701   1.046   6.701  0.5236  0.8761 -1.0309
  138OSM    C6S15027   3.658   1.083   6.907 -0.0992  0.3752  0.1431
  138OSM    H6S15028   3.715   0.991   6.930 -0.1317  0.3359  0.0673
  138OSM    H6T15029   3.550   1.058   6.894  0.0082 -0.2259  0.3740
  138OSM    C7S15030   3.670   1.173   7.028  0.8476  0.2389  0.5457
  138OSM    H7S15031   3.631   1.276   7.020  1.1893  0.3782  0.6777
  138OSM    H7T15032   3.779   1.171   7.047  1.2482  2.4484 -1.1497
  138OSM    C8S15033   3.601   1.122   7.161  0.2900 -0.6937  0.8217
  138OSM    H8S15034   3.654   1.029   7.190 -1.8159 -1.9848  0.7881
  138OSM    H8T15035   3.500   1.082   7.138 -0.0057  0.2442  0.4451
  138OSM    C9S15036   3.596   1.222   7.273 -0.6504 -0.4397  0.1842
  138OSM    H9S15037   3.513   1.294   7.260  0.2255  0.2868 -1.6827
  138OSM    H9T15038   3.692   1.277   7.265  0.3214 -1.9243  1.1036
  138OSM   C10S15039   3.581   1.148   7.404 -0.0999 -0.4163  0.0587
  138OSM   H10S15040   3.667   1.079   7.413 -1.0563 -1.3527  3.7308
  138OSM   H10T15041   3.482   1.098   7.411  0.3476 -1.2731  0.4362
  138OSM   C11S15042   3.580   1.238   7.533 -0.1497 -0.3587 -0.3854
  138OSM   H11S15043   3.483   1.293   7.535  0.6191  1.0398  1.1373
  138OSM   H11T15044   3.654   1.321   7.532 -1.3717  0.8262  1.4919
  138OSM   C12S15045   3.602   1.160   7.668  0.7209 -0.3024 -0.3648
  138OSM   H12S15046   3.693   1.099   7.651  0.2619 -1.0476 -0.2044
  138OSM   H12T15047   3.521   1.087   7.686  0.2503  0.3852  0.3402
  138OSM   C13S15048   3.633   1.249   7.792  0.1104 -0.2892 -0.0079
  138OSM   H13S15049   3.550   1.323   7.797 -2.0778 -2.6385  0.3976
  138OSM   H13T15050   3.733   1.296   7.780  0.9058 -1.9830 -0.2788
  138OSM   C14S15051   3.624   1.180   7.932 -0.5075  0.5831 -0.1406
  138OSM   H14S15052   3.706   1.107   7.945  0.3060  1.7318  1.4182
  138OSM   H14T15053   3.533   1.116   7.934 -0.2617  0.2438  0.2763
  138OSM   C15S15054   3.618   1.278   8.049  0.0414 -0.2808  0.1982
  138OSM   H15S15055   3.538   1.350   8.022 -0.1242 -0.4748  0.1726
  138OSM   H15T15056   3.720   1.323   8.054 -0.0347 -0.1291  0.4229
  138OSM   C16S15057   3.578   1.214   8.186  0.1209  0.3878  0.4408
  138OSM   H16S15058   3.643   1.125   8.196 -1.5261 -1.4257 -2.9109
  138OSM   H16T15059   3.475   1.174   8.181 -0.6829  2.2798  0.8532
  138OSM   C17S15060   3.572   1.315   8.300  0.0841 -0.0845  0.1406
  138OSM   H17S15061   3.498   1.278   8.375  1.2372  1.4005  2.1059
  138OSM   H17T15062   3.527   1.410   8.265 -1.5236 -1.5675 -2.1172
  138OSM   C18S15063   3.699   1.341   8.371  0.6652 -0.3400  0.8217
  138OSM   H18S15064   3.753   1.254   8.414  0.6009 -0.2243  1.1440
  138OSM   H18T15065   3.668   1.407   8.455 -1.6039 -1.2150  0.7264
  138OSM   H18U15066   3.773   1.390   8.304 -0.8234  0.8511  0.0049
  138OSM    C1F15067   4.153   1.180   6.679 -0.0041 -0.1554 -0.7456
  138OSM     OF15068   4.220   1.283   6.674 -0.5526 -0.0233  0.3187
  138OSM    C2F15069   4.219   1.055   6.723  0.1742  0.3940 -0.5449
  138OSM    H2F15070   4.315   1.046   6.668  0.4101 -1.1094  0.0573
  138OSM    H2G15071   4.169   0.962   6.689 -0.9816  1.1515 -0.9692
  138OSM    C3F15072   4.251   1.071   6.869  0.0760 -0.0825  0.4016
  138OSM    H3F15073   4.324   1.153   6.884  1.6248 -1.5822  1.4821
  138OSM    H3G15074   4.311   0.986   6.909  2.5213  1.2954 -0.1454
  138OSM    C4F15075   4.127   1.089   6.957  0.4116 -0.2979 -0.0208
  138OSM    H4F15076   4.042   1.024   6.926  2.0538 -2.1576 -0.8452
  138OSM    H4G15077   4.097   1.196   6.955  2.5193  0.3363 -0.1378
  138OSM    C5F15078   4.149   1.034   7.103 -0.4464  0.2920 -0.6535
  138OSM    H5F15079   4.235   1.081   7.156 -0.5581 -0.8207  0.5498
  138OSM    H5G15080   4.164   0.925   7.098  1.2434  0.5038 -0.5854
  138OSM    C6F15081   4.028   1.073   7.197 -0.5708  0.1480 -0.3445
  138OSM    H6F15082   3.937   1.017   7.168 -0.6544  1.0942 -2.0401
  138OSM    H6G15083   4.001   1.181   7.197 -1.3134  0.0590  3.0924
  138OSM    C7F15084   4.064   1.033   7.337 -0.5772  0.1311 -0.7783
  138OSM    H7F15085   4.102   0.929   7.331 -0.3196  0.1432  0.3120
  138OSM    H7G15086   3.976   1.026   7.405  1.0412 -0.4923  1.3466
  138OSM    C8F15087   4.150   1.138   7.414  0.4737 -0.2862 -0.2065
  138OSM    H8F15088   4.074   1.216   7.434  0.4883 -0.2409 -0.3312
  138OSM    H8G15089   4.228   1.181   7.348 -1.2071  0.1648 -1.9860
  138OSM    C9F15090   4.206   1.082   7.545  0.7462 -0.2583  0.1091
  138OSM    H9F15091   4.254   0.985   7.529  1.6513  0.3357 -0.9189
  138OSM   C10F15092   4.177   1.116   7.675  0.0975  0.8731  0.2263
  138OSM   H10F15093   4.220   1.048   7.749  0.8581  0.9031 -0.1715
  138OSM   C11F15094   4.092   1.232   7.726  0.5813  0.3473 -0.8243
  138OSM   H11F15095   4.036   1.290   7.650 -0.2713  0.9227  0.2107
  138OSM   H11G15096   4.159   1.303   7.780  0.6127 -1.8448  2.2623
  138OSM   C12F15097   4.000   1.172   7.834 -0.8147  0.3580 -0.8926
  138OSM   H12F15098   3.949   1.085   7.789  1.5820 -1.7473  0.2152
  138OSM   H12G15099   3.920   1.246   7.859 -0.9146 -0.0091 -0.1060
  138OSM   C13F15100   4.065   1.115   7.963  0.0166  0.5424 -1.4044
  138OSM   H13F15101   4.108   1.201   8.018 -1.7981  1.3850 -1.2204
  138OSM   H13G15102   4.149   1.045   7.945 -1.1231 -0.7995 -1.6663
  138OSM   C14F15103   3.972   1.046   8.066  0.5216  0.6917 -0.5135
  138OSM   H14F15104   3.927   0.959   8.014 -1.2915  1.3734 -0.1823
  138OSM   H14G15105   3.885   1.107   8.100  0.0932 -0.2183  0.0519
  138OSM   C15F15106   4.044   1.010   8.190 -0.0539  0.3952  0.5986
  138OSM   H15F15107   4.142   0.968   8.158 -1.0965 -0.9852 -0.9596
  138OSM   H15G15108   4.010   0.922   8.248  0.3933 -0.8048 -0.8769
  138OSM   C16F15109   4.049   1.128   8.281 -0.1778 -0.0164 -0.3374
  138OSM   H16F15110   3.946   1.137   8.322 -0.0648  0.4254 -0.1407
  138OSM   H16G15111   4.082   1.228   8.248 -2.8053  1.6170  1.5809
  138OSM   C17F15112   4.131   1.096   8.418 -0.4578 -0.2881  0.5106
  138OSM   H17F15113   4.238   1.085   8.389 -0.6621 -1.1441  0.0418
  138OSM   H17G15114   4.096   0.999   8.459 -0.3180 -0.0811  1.1374
  138OSM   C18F15115   4.102   1.204   8.524  1.2595  0.3765  0.1432
  138OSM   H18F15116   3.993   1.224   8.531  1.0524  0.1351 -1.7145
  138OSM   H18G15117   4.158   1.297   8.503 -2.9093  3.5093  1.6398
  138OSM   H18H15118   4.134   1.164   8.622  0.3613  0.0886  0.3329
  139OSM      N15119   2.634   0.570   6.144 -0.0366  0.2070 -0.1466
  139OSM    C1515120   2.658   0.423   6.112  0.3257  0.2522 -0.0340
  139OSM   H15A15121   2.688   0.415   6.008 -2.2279  0.8707 -0.8990
  139OSM   H15B15122   2.584   0.356   6.151  2.2088 -1.2598  1.1305
  139OSM   H15C15123   2.748   0.395   6.164  0.9373  1.2789 -0.4933
  139OSM    C1415124   2.572   0.572   6.286  0.4497  0.0450 -0.9501
  139OSM   H14A15125   2.646   0.559   6.363 -0.7462 -1.5097 -0.0149
  139OSM   H14B15126   2.506   0.487   6.295  1.1787 -0.6071 -1.6569
  139OSM   H14C15127   2.514   0.659   6.313 -0.3015 -0.7475  0.0788
  139OSM    C1315128   2.769   0.638   6.146 -0.0413  0.0338 -0.9022
  139OSM   H13A15129   2.808   0.648   6.046 -3.6885 -2.2349 -2.7903
  139OSM   H13B15130   2.839   0.593   6.215  2.0218  1.4867 -1.9495
  139OSM   H13C15131   2.755   0.735   6.190  0.3781 -0.6310  0.7761
  139OSM    C1215132   2.536   0.639   6.050 -0.5125  0.1430 -0.1611
  139OSM   H12A15133   2.589   0.658   5.958 -0.5757  3.1493  0.3155
  139OSM   H12B15134   2.503   0.735   6.086  0.2042 -0.0729  1.1438
  139OSM    C1115135   2.406   0.556   6.028  0.4388 -0.2548 -0.5009
  139OSM   H11A15136   2.436   0.458   5.987  0.9014  0.0668 -0.9458
  139OSM   H11B15137   2.353   0.601   5.942 -0.8463 -2.1968 -0.7911
  139OSM      P15138   2.227   0.427   6.176 -0.2724  0.2589 -0.2214
  139OSM    O1315139   2.093   0.460   6.129 -0.0830 -0.1785 -0.0889
  139OSM    O1415140   2.276   0.295   6.123  0.2884  0.3648 -0.2382
  139OSM    O1115141   2.214   0.413   6.329 -0.0691  0.6522  0.0547
  139OSM    O1215142   2.328   0.548   6.153 -0.4295  0.3587  0.4038
  139OSM    C1S15143   2.146   0.514   6.404  0.6268 -0.9631 -0.1523
  139OSM    H1S15144   2.036   0.502   6.415  0.1661  3.1696  1.8776
  139OSM    H1T15145   2.161   0.616   6.361  1.7286 -0.7652  0.6433
  139OSM     NF15146   2.125   0.617   6.637 -0.0003 -0.5671  1.1587
  139OSM    HNF15147   2.175   0.703   6.647  1.4745 -1.0739 -1.2608
  139OSM    C2S15148   2.189   0.517   6.552 -0.0136 -0.1116  0.1416
  139OSM    H2S15149   2.174   0.415   6.595 -0.2368 -0.9333 -1.7677
  139OSM    C3S15150   2.344   0.539   6.559 -0.5424  0.4177  0.3562
  139OSM    H3S15151   2.384   0.630   6.509  0.9793  0.1486  1.0156
  139OSM     O315152   2.421   0.432   6.493 -0.0951 -1.0987 -0.2457
  139OSM    HO315153   2.357   0.395   6.431 -1.4004  1.6852 -0.7389
  139OSM    C4S15154   2.397   0.533   6.699  0.1045  0.0343  0.4028
  139OSM    H4S15155   2.398   0.427   6.731  1.7838 -0.2296 -0.4167
  139OSM    C5S15156   2.441   0.630   6.775 -0.1537 -0.1608 -0.3324
  139OSM    H5S15157   2.446   0.733   6.736 -0.8207  0.1617  0.4007
  139OSM    C6S15158   2.502   0.612   6.912  0.1053  0.0652  0.1352
  139OSM    H6S15159   2.482   0.692   6.986 -2.7246  0.7042 -1.1642
  139OSM    H6T15160   2.611   0.600   6.899  0.3622  0.6920  1.5965
  139OSM    C7S15161   2.462   0.480   6.982 -0.1200 -0.1706 -0.1927
  139OSM    H7S15162   2.500   0.390   6.929  1.0846  1.0476 -1.4753
  139OSM    H7T15163   2.351   0.475   6.983 -0.1876  0.5228  2.0233
  139OSM    C8S15164   2.501   0.479   7.132 -0.0654  0.4134 -0.5620
  139OSM    H8S15165   2.461   0.388   7.181  0.1015  2.1227  3.0772
  139OSM    H8T15166   2.458   0.570   7.180  0.0035 -0.1808  0.6675
  139OSM    C9S15167   2.655   0.474   7.141  0.5530  0.7530  0.1427
  139OSM    H9S15168   2.692   0.570   7.100  1.1063 -0.2955 -1.9296
  139OSM    H9T15169   2.701   0.409   7.063  0.1051  0.2341  0.3030
  139OSM   C10S15170   2.726   0.447   7.274  0.6584 -0.2413 -0.6754
  139OSM   H10S15171   2.675   0.354   7.308 -0.3106  0.8505  1.0023
  139OSM   H10T15172   2.685   0.522   7.345 -3.4098 -2.8991  0.1221
  139OSM   C11S15173   2.876   0.422   7.278  0.6647 -0.1553 -0.3467
  139OSM   H11S15174   2.938   0.510   7.252  1.5321 -0.1354  1.6222
  139OSM   H11T15175   2.895   0.345   7.200 -1.6760 -0.7357 -0.4256
  139OSM   C12S15176   2.911   0.367   7.417  0.0184  0.1913 -0.5540
  139OSM   H12S15177   3.015   0.328   7.412  0.1410  0.7071 -2.9718
  139OSM   H12T15178   2.843   0.280   7.432  0.5508 -0.4101 -1.5464
  139OSM   C13S15179   2.885   0.474   7.527 -0.5271  0.2469  0.3254
  139OSM   H13S15180   2.779   0.504   7.515 -0.3137  0.6440 -0.6819
  139OSM   H13T15181   2.945   0.564   7.500  1.8367 -1.0981  0.8071
  139OSM   C14S15182   2.920   0.425   7.663 -0.2674 -0.2129  0.0181
  139OSM   H14S15183   3.031   0.420   7.668 -0.2799  0.3163  1.5015
  139OSM   H14T15184   2.864   0.332   7.685 -0.6154  0.1369  0.6464
  139OSM   C15S15185   2.881   0.528   7.775  0.0543 -0.1330 -0.0287
  139OSM   H15S15186   2.778   0.569   7.772  1.4555  3.6598 -0.7838
  139OSM   H15T15187   2.937   0.623   7.770 -0.6584  0.3689  1.0760
  139OSM   C16S15188   2.909   0.471   7.916  0.3313 -0.2497 -0.0908
  139OSM   H16S15189   3.020   0.473   7.913  0.3653 -1.2921 -2.5407
  139OSM   H16T15190   2.868   0.369   7.930 -2.3715  0.7193 -0.4408
  139OSM   C17S15191   2.875   0.577   8.024 -0.1085  0.9501 -0.9415
  139OSM   H17S15192   2.768   0.606   8.021 -0.6660 -1.0492 -2.8178
  139OSM   H17T15193   2.945   0.659   7.999 -0.4636  0.9581 -1.9414
  139OSM   C18S15194   2.917   0.536   8.168 -0.0395 -0.0962 -0.2032
  139OSM   H18S15195   3.024   0.506   8.165  0.9017  2.5215  2.5619
  139OSM   H18T15196   2.862   0.448   8.208 -1.5220  1.4748  1.3881
  139OSM   H18U15197   2.915   0.619   8.241  0.1681  0.2942 -0.6378
  139OSM    C1F15198   2.006   0.613   6.690 -0.0756  0.1482  0.3861
  139OSM     OF15199   1.929   0.526   6.662 -0.3830 -0.1402 -0.0433
  139OSM    C2F15200   1.978   0.731   6.778  0.3958  0.6064  0.4637
  139OSM    H2F15201   1.881   0.769   6.741  0.6935 -0.9185 -2.1547
  139OSM    H2G15202   2.056   0.810   6.769 -1.3085  2.2507 -0.4892
  139OSM    C3F15203   1.979   0.675   6.924 -0.2961 -0.5738  0.4374
  139OSM    H3F15204   1.912   0.587   6.933  3.4445 -3.6078  1.2562
  139OSM    H3G15205   1.938   0.759   6.984 -0.8540 -0.8888  0.4994
  139OSM    C4F15206   2.116   0.625   6.975 -0.3536  0.1694 -0.4616
  139OSM    H4F15207   2.202   0.681   6.933 -1.8098  1.1804 -2.2239
  139OSM    H4G15208   2.121   0.521   6.937  0.2767  1.0234 -2.9324
  139OSM    C5F15209   2.119   0.611   7.125 -0.1247  0.3581 -0.0078
  139OSM    H5F15210   2.190   0.531   7.155  1.0713  1.5472  0.4313
  139OSM    H5G15211   2.020   0.577   7.163 -0.2420 -2.1726 -2.2443
  139OSM    C6F15212   2.161   0.741   7.198  0.1678  1.2976 -0.4688
  139OSM    H6F15213   2.108   0.818   7.138 -1.4517 -2.2103 -3.9860
  139OSM    H6G15214   2.269   0.761   7.188 -0.0534  1.3913 -3.4784
  139OSM    C7F15215   2.123   0.737   7.345  0.2727 -0.2639  0.1486
  139OSM    H7F15216   2.047   0.663   7.378  0.9554 -0.8609  0.4259
  139OSM    H7G15217   2.084   0.839   7.364  0.2835 -0.3265  0.5148
  139OSM    C8F15218   2.235   0.714   7.450  0.1103  0.2506  0.8597
  139OSM    H8F15219   2.189   0.745   7.546 -1.5308 -0.1059  0.2136
  139OSM    H8G15220   2.314   0.784   7.417 -0.1233  0.7532  1.3626
  139OSM    C9F15221   2.293   0.574   7.461  0.2711 -0.1605  0.5913
  139OSM    H9F15222   2.329   0.531   7.366  1.5664 -1.1760  1.4889
  139OSM   C10F15223   2.332   0.509   7.573 -0.1642  0.3719  0.6840
  139OSM   H10F15224   2.377   0.409   7.566  1.2005  1.0726 -1.8000
  139OSM   C11F15225   2.333   0.565   7.714 -0.0954  0.1203 -0.1930
  139OSM   H11F15226   2.243   0.525   7.766  1.0204  1.8668  3.4922
  139OSM   H11G15227   2.316   0.675   7.704  0.5462  0.1637 -0.9090
  139OSM   C12F15228   2.457   0.553   7.801 -0.1873 -0.5275  0.9647
  139OSM   H12F15229   2.542   0.568   7.732 -3.3322 -1.2084 -3.4942
  139OSM   H12G15230   2.454   0.449   7.839 -0.7996  0.2464  3.2198
  139OSM   C13F15231   2.463   0.647   7.916  0.2321  0.0321  0.3450
  139OSM   H13F15232   2.471   0.752   7.880 -0.8693  0.1632  0.4546
  139OSM   H13G15233   2.560   0.624   7.965  0.7870  0.4630 -0.5091
  139OSM   C14F15234   2.350   0.627   8.014  1.3921 -0.1029 -0.5299
  139OSM   H14F15235   2.330   0.517   8.014  2.0300 -0.2233 -0.3337
  139OSM   H14G15236   2.260   0.680   7.977  1.2188 -2.1531 -3.4406
  139OSM   C15F15237   2.377   0.679   8.159  0.5252 -0.1392  0.0708
  139OSM   H15F15238   2.457   0.623   8.213  0.4812  0.0096  0.2935
  139OSM   H15G15239   2.291   0.665   8.228 -0.5750 -0.2113 -1.2874
  139OSM   C16F15240   2.407   0.829   8.157 -0.4719 -0.5648  0.3726
  139OSM   H16F15241   2.328   0.887   8.105  1.0608 -0.5964 -2.1374
  139OSM   H16G15242   2.505   0.848   8.109 -0.8945  2.2646  0.4845
  139OSM   C17F15243   2.413   0.884   8.307  0.5209  0.1464 -0.2623
  139OSM   H17F15244   2.474   0.810   8.363  0.3338 -1.9381 -2.6737
  139OSM   H17G15245   2.313   0.885   8.356  0.2826  0.7011 -0.7410
  139OSM   C18F15246   2.472   1.019   8.312 -0.7915 -0.7789 -0.5343
  139OSM   H18F15247   2.460   1.065   8.413 -2.8524  1.2916 -1.6374
  139OSM   H18G15248   2.428   1.083   8.233 -0.2871 -1.4851 -1.4010
  139OSM   H18H15249   2.579   1.017   8.282 -1.6202 -0.4087 -3.8919
  140OSM      N15250   3.072   3.256   6.461  0.2574  0.3743 -0.3747
  140OSM    C1515251   3.088   3.400   6.502 -0.5973 -1.1388  0.2725
  140OSM   H15A15252   3.003   3.452   6.544  1.6390  2.3602  0.8224
  140OSM   H15B15253   3.128   3.466   6.427 -0.5804 -3.2042 -1.6343
  140OSM   H15C15254   3.167   3.401   6.576 -0.9917 -1.0441  0.6937
  140OSM    C1415255   3.201   3.209   6.423 -0.1026 -0.7270 -0.2035
  140OSM   H14A15256   3.252   3.280   6.360  0.5495  1.5784  2.6656
  140OSM   H14B15257   3.198   3.110   6.380  1.7992 -0.3197 -1.3782
  140OSM   H14C15258   3.259   3.198   6.514 -1.9100 -3.9488  0.7216
  140OSM    C1315259   3.025   3.181   6.582 -0.8765 -0.4152 -0.1471
  140OSM   H13A15260   3.102   3.189   6.657 -0.1433 -0.9916 -0.8176
  140OSM   H13B15261   3.006   3.082   6.544  0.6430  0.7077 -4.3404
  140OSM   H13C15262   2.927   3.218   6.607  0.4669  2.0742  1.8091
  140OSM    C1215263   2.967   3.237   6.353  0.6613  0.3136 -0.2472
  140OSM   H12A15264   3.006   3.261   6.255  0.5181 -1.8617 -0.8847
  140OSM   H12B15265   2.883   3.303   6.366  0.3709  0.3041 -1.8516
  140OSM    C1115266   2.920   3.091   6.334  0.3487 -0.6429  0.1038
  140OSM   H11A15267   3.002   3.018   6.346 -1.9715 -3.1255  1.9879
  140OSM   H11B15268   2.886   3.084   6.228  2.3672  0.2217 -0.6532
  140OSM      P15269   2.664   3.109   6.403 -0.0429 -0.0344 -0.5247
  140OSM    O1315270   2.681   3.257   6.418  0.1257  0.3262 -0.0490
  140OSM    O1415271   2.601   3.054   6.281  0.5722 -0.0424 -0.2940
  140OSM    O1115272   2.583   3.054   6.525 -0.5665 -0.5291  0.1740
  140OSM    O1215273   2.817   3.061   6.426 -0.0258  0.1966  0.9666
  140OSM    C1S15274   2.629   2.950   6.615 -0.0569 -0.0451  0.5909
  140OSM    H1S15275   2.737   2.965   6.636  0.1808 -1.7151  0.7364
  140OSM    H1T15276   2.628   2.847   6.572 -0.5898  0.7179 -1.3394
  140OSM     NF15277   2.617   2.867   6.857  0.4956 -0.1404  0.5263
  140OSM    HNF15278   2.557   2.797   6.893 -0.8464  1.2275  1.0248
  140OSM    C2S15279   2.561   2.960   6.759  0.2158  0.5485 -0.5767
  140OSM    H2S15280   2.587   3.065   6.788 -1.7387  0.6985  0.8966
  140OSM    C3S15281   2.404   2.949   6.733  0.5102 -0.1829  0.4968
  140OSM    H3S15282   2.374   2.850   6.693 -1.9820  0.4855  0.5495
  140OSM     O315283   2.357   3.039   6.633 -0.0116  0.2501  0.7146
  140OSM    HO315284   2.432   3.063   6.579 -0.6397 -0.8962 -0.7323
  140OSM    C4S15285   2.328   2.968   6.859  0.2704 -0.8049 -0.1445
  140OSM    H4S15286   2.326   2.875   6.918 -0.5637  0.0570  1.2400
  140OSM    C5S15287   2.258   3.072   6.907  0.7124  0.3450  0.2979
  140OSM    H5S15288   2.270   3.170   6.858  3.4727 -0.3362 -0.5871
  140OSM    C6S15289   2.175   3.076   7.029  0.2094  0.8722 -0.5554
  140OSM    H6S15290   2.126   2.977   7.046  0.9418  0.5224 -0.4752
  140OSM    H6T15291   2.103   3.160   7.019  1.6022  2.3253  1.0720
  140OSM    C7S15292   2.264   3.116   7.146  0.4964  0.4020  1.0042
  140OSM    H7S15293   2.280   3.224   7.130  0.5528  0.0523 -1.9580
  140OSM    H7T15294   2.362   3.063   7.146  0.2975  0.0305  0.8581
  140OSM    C8S15295   2.195   3.080   7.278 -0.5325 -0.5271 -0.2626
  140OSM    H8S15296   2.204   2.970   7.288 -0.3998 -0.4921  0.0106
  140OSM    H8T15297   2.087   3.108   7.279 -1.0046 -2.2317 -0.0568
  140OSM    C9S15298   2.266   3.132   7.403 -0.1962 -0.3822 -0.8360
  140OSM    H9S15299   2.293   3.237   7.380  1.8157 -1.2860 -2.9720
  140OSM    H9T15300   2.367   3.087   7.400  0.7767  1.7821 -2.2820
  140OSM   C10S15301   2.193   3.121   7.540  0.1451  0.3525  0.3233
  140OSM   H10S15302   2.166   3.015   7.561 -3.7965  1.5204  2.2090
  140OSM   H10T15303   2.096   3.176   7.534 -0.8777 -1.0167  2.5548
  140OSM   C11S15304   2.278   3.170   7.652  0.0396 -0.4560  0.4862
  140OSM   H11S15305   2.298   3.278   7.635  2.2990 -1.0941 -1.4173
  140OSM   H11T15306   2.372   3.110   7.654  0.1054 -0.3703  0.0554
  140OSM   C12S15307   2.217   3.182   7.791  0.1116 -0.5427 -0.2031
  140OSM   H12S15308   2.168   3.085   7.816  0.4323 -0.4008  1.0208
  140OSM   H12T15309   2.136   3.257   7.791 -0.1593 -0.8203 -0.8936
  140OSM   C13S15310   2.316   3.203   7.907  0.3485  0.2720 -0.3677
  140OSM   H13S15311   2.353   3.308   7.901  0.2922  0.3193  0.0480
  140OSM   H13T15312   2.392   3.123   7.907 -2.0669 -2.1835  0.3890
  140OSM   C14S15313   2.237   3.191   8.046 -0.0686  0.0327 -0.2507
  140OSM   H14S15314   2.241   3.087   8.086 -2.6603 -0.4596 -1.1187
  140OSM   H14T15315   2.128   3.207   8.033 -0.2757 -0.5257  0.7426
  140OSM   C15S15316   2.285   3.296   8.134 -0.7030 -0.3212 -0.7913
  140OSM   H15S15317   2.223   3.304   8.225  1.5172 -2.1918  1.0381
  140OSM   H15T15318   2.271   3.389   8.075  1.8174  1.4902  1.2316
  140OSM   C16S15319   2.431   3.283   8.174 -0.9237  0.2449  0.3872
  140OSM   H16S15320   2.494   3.253   8.088 -1.7539 -1.1584  0.2385
  140OSM   H16T15321   2.442   3.197   8.244 -0.4697  1.0685  1.3500
  140OSM   C17S15322   2.496   3.406   8.249  0.3863 -0.0106 -0.9868
  140OSM   H17S15323   2.470   3.501   8.197  0.7957  0.0905 -1.0111
  140OSM   H17T15324   2.607   3.397   8.255  0.4785 -0.5263 -2.7719
  140OSM   C18S15325   2.460   3.411   8.394  0.2405 -0.6608  0.3646
  140OSM   H18S15326   2.350   3.423   8.403  0.1047  0.6890 -2.2061
  140OSM   H18T15327   2.503   3.496   8.453  0.1075  0.7424 -1.4705
  140OSM   H18U15328   2.484   3.314   8.441  0.1726 -0.2267  1.3248
  140OSM    C1F15329   2.749   2.868   6.893  0.9514 -0.1799  0.1154
  140OSM     OF15330   2.822   2.960   6.868  0.5339 -0.7723 -0.1921
  140OSM    C2F15331   2.793   2.755   6.974 -0.1808  0.2995 -0.2357
  140OSM    H2F15332   2.744   2.660   6.946 -0.5816  0.0652  1.1866
  140OSM    H2G15333   2.756   2.771   7.077 -0.7866 -0.3992 -0.3437
  140OSM    C3F15334   2.950   2.735   6.974 -0.1258  0.5812  0.0751
  140OSM    H3F15335   3.016   2.821   6.999  0.5080  0.6786 -1.8044
  140OSM    H3G15336   2.979   2.718   6.868  2.0060  0.3102  0.6565
  140OSM    C4F15337   2.992   2.606   7.052  0.3362 -0.0463  0.5980
  140OSM    H4F15338   3.095   2.586   7.017  0.0649 -1.3448  0.4853
  140OSM    H4G15339   2.932   2.521   7.014 -1.3522  0.4349  2.0501
  140OSM    C5F15340   3.002   2.625   7.202 -0.5183  0.1892 -0.3604
  140OSM    H5F15341   3.021   2.524   7.244 -1.9109 -0.5396 -1.3905
  140OSM    H5G15342   2.911   2.681   7.233 -1.1305 -0.4338 -1.0136
  140OSM    C6F15343   3.125   2.702   7.245  0.2658 -0.3950  0.1078
  140OSM    H6F15344   3.103   2.809   7.222  0.3476  0.4484  3.4679
  140OSM    H6G15345   3.222   2.664   7.205  0.5768  0.1749  0.3111
  140OSM    C7F15346   3.139   2.704   7.401 -0.0128 -0.0982 -0.3795
  140OSM    H7F15347   3.167   2.607   7.446 -3.2674 -0.1095  1.9769
  140OSM    H7G15348   3.038   2.725   7.441  0.9501  0.6399  1.8057
  140OSM    C8F15349   3.225   2.809   7.457  0.0094 -0.3606  0.7763
  140OSM    H8F15350   3.215   2.906   7.403  1.5413 -0.0493  0.9971
  140OSM    H8G15351   3.327   2.777   7.426 -0.1991 -1.5105  1.2373
  140OSM    C9F15352   3.211   2.817   7.602  0.4474 -0.7847 -0.4881
  140OSM    H9F15353   3.107   2.831   7.633  0.3200  0.6739 -1.4922
  140OSM   C10F15354   3.301   2.805   7.699 -0.4273  0.1673  0.2029
  140OSM   H10F15355   3.278   2.812   7.807  1.8087 -1.5436  0.8766
  140OSM   C11F15356   3.446   2.787   7.668  0.2686  0.0569 -0.0916
  140OSM   H11F15357   3.501   2.873   7.712 -0.8344  1.6077 -1.6017
  140OSM   H11G15358   3.482   2.788   7.563 -0.4563 -0.1360 -0.3461
  140OSM   C12F15359   3.501   2.664   7.732 -0.0252  0.8499  0.2769
  140OSM   H12F15360   3.603   2.644   7.692  0.0141 -0.6959  1.1003
  140OSM   H12G15361   3.433   2.577   7.721 -0.5396  0.8534  2.8769
  140OSM   C13F15362   3.531   2.679   7.882 -0.7328  0.8383 -0.0123
  140OSM   H13F15363   3.438   2.678   7.942 -0.0408  0.7908  1.0784
  140OSM   H13G15364   3.590   2.772   7.896 -0.4225  0.6854 -0.2880
  140OSM   C14F15365   3.613   2.567   7.946 -0.2433 -0.0007  0.7376
  140OSM   H14F15366   3.705   2.542   7.890 -1.6583 -0.9933 -1.2250
  140OSM   H14G15367   3.554   2.473   7.945  0.0045 -0.2226 -2.4386
  140OSM   C15F15368   3.645   2.581   8.098  0.8276  0.3041 -0.5757
  140OSM   H15F15369   3.709   2.669   8.120  2.1720 -1.1026  1.5084
  140OSM   H15G15370   3.708   2.494   8.128  1.6714  2.1115  3.4363
  140OSM   C16F15371   3.520   2.587   8.187  0.6645  0.0263 -0.3398
  140OSM   H16F15372   3.468   2.489   8.177 -0.1731  0.5931 -1.8984
  140OSM   H16G15373   3.441   2.660   8.158  1.5561  1.1895  0.1147
  140OSM   C17F15374   3.562   2.613   8.334  0.2845 -0.3655  0.2779
  140OSM   H17F15375   3.617   2.707   8.354 -0.0012 -0.3076  0.8163
  140OSM   H17G15376   3.638   2.537   8.360 -0.2254 -0.5968  1.1437
  140OSM   C18F15377   3.448   2.586   8.432 -0.3648 -0.6750  0.2399
  140OSM   H18F15378   3.404   2.489   8.400  2.6532 -1.4690 -1.8809
  140OSM   H18G15379   3.372   2.667   8.439  0.1033  0.0126 -1.8926
  140OSM   H18H15380   3.491   2.563   8.532 -1.1907  0.7522  0.9647
  141OSM      N15381   2.011   4.457   6.092  0.3397  0.3700 -0.1048
  141OSM    C1515382   2.011   4.432   6.238 -0.3410 -0.6775  0.5848
  141OSM   H15A15383   2.110   4.456   6.274  1.1543  1.7403 -4.2635
  141OSM   H15B15384   1.989   4.331   6.268  0.1498 -1.1087 -0.4639
  141OSM   H15C15385   1.941   4.503   6.279 -1.7556 -1.5362 -0.2666
  141OSM    C1415386   2.121   4.378   6.032  0.4776 -0.4428  0.8491
  141OSM   H14A15387   2.130   4.279   6.075  2.3637  0.2328  2.1354
  141OSM   H14B15388   2.219   4.421   6.050  1.8699 -3.0351  0.0477
  141OSM   H14C15389   2.110   4.374   5.925 -0.1963 -0.1242  0.9010
  141OSM    C1315390   1.881   4.407   6.044  0.5421 -0.0031  0.2101
  141OSM   H13A15391   1.876   4.306   6.081 -0.4501  0.0771  0.3170
  141OSM   H13B15392   1.888   4.396   5.936 -0.3908 -0.3518  0.1761
  141OSM   H13C15393   1.789   4.458   6.065 -1.0024 -2.5734  0.0987
  141OSM    C1215394   2.034   4.606   6.064 -0.3570 -0.0900 -0.2034
  141OSM   H12A15395   1.933   4.645   6.053 -0.9800 -1.6849 -0.4187
  141OSM   H12B15396   2.077   4.615   5.965  0.4248  0.7506  0.2000
  141OSM    C1115397   2.113   4.689   6.165 -0.7213 -0.2506  0.0364
  141OSM   H11A15398   2.129   4.782   6.105 -0.1237  0.0528  0.6490
  141OSM   H11B15399   2.208   4.634   6.184 -0.1238 -0.0959 -2.2395
  141OSM      P15400   1.919   4.799   6.302  0.3208 -0.1383  0.1208
  141OSM    O1315401   1.909   4.905   6.201  0.5410 -0.1944 -0.1094
  141OSM    O1415402   1.814   4.699   6.318  0.2966  0.1855 -0.2069
  141OSM    O1115403   1.929   4.861   6.441  0.1238 -0.3707  0.3678
  141OSM    O1215404   2.055   4.727   6.288 -0.3616 -0.1699 -0.3389
  141OSM    C1S15405   1.925   4.776   6.559  0.1674  0.3412  0.5305
  141OSM    H1S15406   2.005   4.698   6.555  3.3982  3.3683  0.7828
  141OSM    H1T15407   1.827   4.724   6.565  2.0731 -3.9391 -1.2847
  141OSM     NF15408   1.978   4.761   6.794 -0.8300  0.3416 -0.1132
  141OSM    HNF15409   1.905   4.719   6.848 -1.3004  1.9618  0.5722
  141OSM    C2S15410   1.938   4.855   6.694 -0.3499  0.1012  0.0815
  141OSM    H2S15411   2.014   4.935   6.683  0.4394 -0.5180  0.8611
  141OSM    C3S15412   1.809   4.938   6.721 -0.4156 -0.1555  0.3197
  141OSM    H3S15413   1.728   4.862   6.732  0.1687 -1.2989 -2.4888
  141OSM     O315414   1.761   5.014   6.610 -0.8887 -0.5066 -0.4152
  141OSM    HO315415   1.810   4.975   6.538 -1.6127 -1.9244 -0.1846
  141OSM    C4S15416   1.827   5.020   6.844  1.0951 -0.4145  0.6603
  141OSM    H4S15417   1.839   4.958   6.934  0.0893 -1.3049  0.1952
  141OSM    C5S15418   1.850   5.158   6.857  1.0168 -0.7328  0.8518
  141OSM    H5S15419   1.865   5.218   6.767 -1.8876 -0.1134  0.6995
  141OSM    C6S15420   1.868   5.238   6.985  0.6669  0.1398 -0.0285
  141OSM    H6S15421   1.785   5.311   6.999  2.0732  1.9398 -0.6293
  141OSM    H6T15422   1.957   5.304   6.978  1.0069 -0.3030  0.1183
  141OSM    C7S15423   1.889   5.161   7.116  0.3200 -1.4593  0.2335
  141OSM    H7S15424   1.974   5.090   7.109  1.1911 -0.3525 -0.8317
  141OSM    H7T15425   1.794   5.108   7.141  0.2366 -1.2164  0.4397
  141OSM    C8S15426   1.920   5.263   7.236  0.4279  0.4688  0.8964
  141OSM    H8S15427   1.865   5.358   7.221  0.0387  0.4051  1.9132
  141OSM    H8T15428   2.028   5.291   7.239  1.7337 -3.3916 -1.5120
  141OSM    C9S15429   1.881   5.201   7.370 -0.1766  0.5039 -0.1529
  141OSM    H9S15430   1.940   5.108   7.387  0.9364  1.0212 -1.0141
  141OSM    H9T15431   1.774   5.175   7.358 -0.2073  0.0457  0.9459
  141OSM   C10S15432   1.892   5.292   7.493 -0.3811 -0.3489  0.5337
  141OSM   H10S15433   1.821   5.377   7.487 -0.8275 -0.7688 -0.3499
  141OSM   H10T15434   1.992   5.342   7.497 -0.9760  1.0075 -0.5951
  141OSM   C11S15435   1.860   5.209   7.623  0.2361 -0.1572  0.5013
  141OSM   H11S15436   1.957   5.156   7.640  0.1218 -1.2383 -1.8071
  141OSM   H11T15437   1.777   5.137   7.604  0.2905 -0.2722  0.6922
  141OSM   C12S15438   1.827   5.303   7.741 -0.4509 -0.4660  1.1713
  141OSM   H12S15439   1.741   5.371   7.721  1.2164  0.8540 -2.2598
  141OSM   H12T15440   1.917   5.367   7.742 -0.8377  0.1300 -0.1672
  141OSM   C13S15441   1.817   5.243   7.880 -0.2612  0.6131 -0.1892
  141OSM   H13S15442   1.739   5.165   7.873  0.4115 -0.2551  1.4988
  141OSM   H13T15443   1.779   5.312   7.959 -0.5076  1.9529 -1.4326
  141OSM   C14S15444   1.954   5.187   7.936 -0.3379 -0.5286  0.1157
  141OSM   H14S15445   2.024   5.273   7.934  1.6817 -2.0883  0.1904
  141OSM   H14T15446   2.003   5.116   7.867 -1.0224 -0.2754 -0.6476
  141OSM   C15S15447   1.941   5.129   8.079  0.5628  0.2383  1.3142
  141OSM   H15S15448   1.879   5.036   8.076  1.9531 -0.6899 -0.1692
  141OSM   H15T15449   1.883   5.206   8.135 -0.0655  1.3815 -0.8124
  141OSM   C16S15450   2.078   5.114   8.152  0.1373 -0.1071 -0.2560
  141OSM   H16S15451   2.130   5.210   8.171 -0.6052  0.3463 -0.4727
  141OSM   H16T15452   2.149   5.050   8.096 -0.1608 -0.8783  0.2327
  141OSM   C17S15453   2.063   5.054   8.294  0.0936 -0.5833 -0.6952
  141OSM   H17S15454   2.026   4.950   8.281  2.0876 -1.2772 -1.2038
  141OSM   H17T15455   1.987   5.110   8.353  1.0608 -0.7780  0.7943
  141OSM   C18S15456   2.184   5.050   8.383  0.2226 -0.3003 -0.5051
  141OSM   H18S15457   2.167   4.988   8.473 -1.3146 -1.6653 -1.6758
  141OSM   H18T15458   2.224   5.145   8.424 -0.3438 -1.1797  2.2614
  141OSM   H18U15459   2.269   5.001   8.331 -0.4648 -0.8341 -1.1419
  141OSM    C1F15460   2.103   4.713   6.801 -0.0229  0.5614 -0.4714
  141OSM     OF15461   2.187   4.749   6.722 -0.3043 -0.7019  0.1950
  141OSM    C2F15462   2.129   4.614   6.908 -0.0553  0.7149 -0.8098
  141OSM    H2F15463   2.157   4.517   6.862 -1.9231  0.0201 -0.5644
  141OSM    H2G15464   2.036   4.602   6.968  1.1107  1.3373  1.2288
  141OSM    C3F15465   2.241   4.668   7.004 -0.1809  0.3679  0.3046
  141OSM    H3F15466   2.333   4.672   6.941 -0.5137 -0.1477 -0.2334
  141OSM    H3G15467   2.261   4.599   7.089 -0.9298 -0.7138 -0.3705
  141OSM    C4F15468   2.207   4.801   7.066 -0.2757 -0.5322  0.5229
  141OSM    H4F15469   2.100   4.821   7.088 -1.0364 -1.9795 -1.5362
  141OSM    H4G15470   2.221   4.877   6.986  1.5164 -2.0139 -0.6703
  141OSM    C5F15471   2.295   4.847   7.181 -0.5764 -0.2025 -0.0470
  141OSM    H5F15472   2.305   4.958   7.183 -1.7269 -0.0897  1.6932
  141OSM    H5G15473   2.395   4.801   7.165  0.2200  1.8493 -1.3471
  141OSM    C6F15474   2.246   4.810   7.322  0.2856 -1.0379  0.0978
  141OSM    H6F15475   2.225   4.701   7.323  2.4149 -1.5306 -1.8260
  141OSM    H6G15476   2.148   4.861   7.337 -0.3995 -2.0721 -0.7209
  141OSM    C7F15477   2.354   4.828   7.431  0.2975  0.6117  0.5017
  141OSM    H7F15478   2.441   4.768   7.396 -2.2041 -2.4367 -1.0233
  141OSM    H7G15479   2.321   4.792   7.531  1.3446  0.9129  0.9695
  141OSM    C8F15480   2.407   4.973   7.453 -0.6742 -0.1004  0.1552
  141OSM    H8F15481   2.446   5.017   7.358  0.7919 -0.3760  0.6033
  141OSM    H8G15482   2.501   4.976   7.512 -0.1597  1.5281 -0.6980
  141OSM    C9F15483   2.303   5.063   7.520  0.6734  0.2235  0.4326
  141OSM    H9F15484   2.225   5.110   7.459  0.7808  1.4481  1.2090
  141OSM   C10F15485   2.319   5.086   7.656  0.1711  0.1175  0.1494
  141OSM   H10F15486   2.245   5.125   7.728 -2.2900 -3.8341  0.0713
  141OSM   C11F15487   2.428   5.022   7.735 -0.5436  0.2559 -0.0855
  141OSM   H11F15488   2.531   5.051   7.703 -0.6112  0.8226  0.1877
  141OSM   H11G15489   2.429   4.911   7.729  3.6133  0.1750 -0.7295
  141OSM   C12F15490   2.417   5.053   7.886 -0.7738  0.4191 -0.3518
  141OSM   H12F15491   2.317   5.019   7.922 -2.4455  3.2634 -1.9203
  141OSM   H12G15492   2.417   5.163   7.898 -4.7763  0.3528  2.1998
  141OSM   C13F15493   2.534   4.993   7.971 -0.0793  0.0761  0.6658
  141OSM   H13F15494   2.576   5.071   8.038 -2.5643  1.9665  0.1572
  141OSM   H13G15495   2.617   4.969   7.900 -1.4999 -0.1771 -0.9823
  141OSM   C14F15496   2.495   4.878   8.065  0.1742  0.3009 -0.0448
  141OSM   H14F15497   2.426   4.802   8.021  0.1027 -0.8945  2.0065
  141OSM   H14G15498   2.438   4.924   8.148  0.0868  2.7955 -1.4087
  141OSM   C15F15499   2.619   4.821   8.144 -0.6104  0.1712 -0.3320
  141OSM   H15F15500   2.677   4.910   8.176 -3.3260  1.0272  2.8542
  141OSM   H15G15501   2.681   4.766   8.071  0.8338  0.7314  0.4447
  141OSM   C16F15502   2.592   4.727   8.267  0.1768  0.3465  0.5106
  141OSM   H16F15503   2.695   4.692   8.294  0.1328  0.4394  0.7948
  141OSM   H16G15504   2.534   4.645   8.220  2.3536  0.4605 -2.7209
  141OSM   C17F15505   2.536   4.792   8.395  0.2387 -0.2860  0.2291
  141OSM   H17F15506   2.450   4.855   8.367  1.0027  2.1747  3.0111
  141OSM   H17G15507   2.610   4.847   8.456  0.1247  0.1191  0.0076
  141OSM   C18F15508   2.476   4.688   8.493 -0.2889  1.5772 -0.4655
  141OSM   H18F15509   2.398   4.622   8.449  0.6087 -0.2025  0.5339
  141OSM   H18G15510   2.435   4.740   8.582 -2.4142 -1.9370  0.8209
  141OSM   H18H15511   2.555   4.620   8.531 -1.1351 -0.0031 -1.4332
  142OSM      N15512   3.309   6.469   6.045  0.4732  0.2610  0.7542
  142OSM    C1515513   3.391   6.359   6.099 -0.2348  0.4200  0.5085
  142OSM   H15A15514   3.365   6.346   6.203  1.1665 -1.2482  0.6809
  142OSM   H15B15515   3.492   6.394   6.081  0.5134 -2.0351 -0.3955
  142OSM   H15C15516   3.369   6.262   6.058 -0.1896  0.7126 -0.2259
  142OSM    C1415517   3.350   6.490   5.901 -0.5209 -0.9283  0.2609
  142OSM   H14A15518   3.288   6.566   5.857  0.3897  0.5579  1.4346
  142OSM   H14B15519   3.341   6.402   5.839  1.0374 -0.3594 -0.8624
  142OSM   H14C15520   3.456   6.513   5.894 -0.0429 -2.6187  1.2253
  142OSM    C1315521   3.156   6.446   6.037 -0.1104 -0.2937 -0.0332
  142OSM   H13A15522   3.133   6.375   5.959  0.6031 -0.5207 -0.0507
  142OSM   H13B15523   3.104   6.538   6.016  0.4957 -0.0675 -0.5578
  142OSM   H13C15524   3.128   6.435   6.141 -0.0989 -0.4474 -0.0460
  142OSM    C1215525   3.338   6.600   6.127 -0.0258  0.0038 -1.2645
  142OSM   H12A15526   3.272   6.677   6.089 -1.6002 -0.0653  1.1618
  142OSM   H12B15527   3.439   6.636   6.108  0.1973  0.1569  0.1425
  142OSM    C1115528   3.325   6.614   6.284 -0.2892 -0.6628 -0.1077
  142OSM   H11A15529   3.335   6.724   6.299  0.5417 -0.9013  1.2730
  142OSM   H11B15530   3.414   6.572   6.335  1.3571  1.5203 -1.0113
  142OSM      P15531   3.179   6.432   6.410  0.2649  0.2015 -0.1971
  142OSM    O1315532   3.066   6.369   6.345  0.6584  0.5664 -0.0591
  142OSM    O1415533   3.309   6.360   6.409  0.3377  0.1348 -0.1875
  142OSM    O1115534   3.133   6.455   6.558 -0.4465 -0.3248 -0.3595
  142OSM    O1215535   3.199   6.575   6.345 -0.7213 -0.0582 -0.0490
  142OSM    C1S15536   3.178   6.575   6.628  0.1383  0.3244  0.0642
  142OSM    H1S15537   3.140   6.666   6.577  0.8599  0.4372 -0.2957
  142OSM    H1T15538   3.288   6.592   6.619 -0.1939  2.4227 -0.3872
  142OSM     NF15539   3.168   6.693   6.850 -0.8966 -0.4434  0.1866
  142OSM    HNF15540   3.250   6.691   6.905  0.4934 -1.3462 -1.7926
  142OSM    C2S15541   3.134   6.565   6.779 -0.3913 -1.0319 -0.0481
  142OSM    H2S15542   3.023   6.568   6.777 -0.3869  1.7848  0.0885
  142OSM    C3S15543   3.186   6.436   6.842 -0.3607 -0.2039  0.9187
  142OSM    H3S15544   3.296   6.439   6.831 -0.4633  1.1116  0.1013
  142OSM     O315545   3.139   6.317   6.776 -0.8223  0.6194 -0.5207
  142OSM    HO315546   3.115   6.341   6.686 -0.7188 -1.6639 -1.2398
  142OSM    C4S15547   3.144   6.434   6.990  0.1530  0.1987  0.0800
  142OSM    H4S15548   3.219   6.492   7.046 -0.6273 -0.1478  1.5488
  142OSM    C5S15549   3.042   6.375   7.045 -1.0486  0.1751 -0.4113
  142OSM    H5S15550   2.987   6.307   6.978  0.5450 -1.4732 -0.1255
  142OSM    C6S15551   3.012   6.376   7.189 -0.4626 -0.2027 -0.2224
  142OSM    H6S15552   3.073   6.292   7.228  1.5764  1.0213 -0.6399
  142OSM    H6T15553   2.905   6.364   7.213 -0.2671  1.9354  2.1276
  142OSM    C7S15554   3.050   6.506   7.265 -0.0803  0.1793  0.1432
  142OSM    H7S15555   3.160   6.515   7.266 -0.0170  0.0547 -1.7449
  142OSM    H7T15556   3.035   6.485   7.373 -0.0148 -0.4946  0.0242
  142OSM    C8S15557   2.989   6.642   7.221  0.3598  0.7022  0.3297
  142OSM    H8S15558   2.880   6.633   7.239  0.4153  0.5177  0.5808
  142OSM    H8T15559   3.022   6.659   7.116  0.6617  1.9225  0.6024
  142OSM    C9S15560   3.037   6.753   7.318  0.2412  0.3540 -0.1855
  142OSM    H9S15561   2.980   6.845   7.295 -0.9098  0.1564  1.6838
  142OSM    H9T15562   3.138   6.797   7.299  1.0294 -0.7968  1.1772
  142OSM   C10S15563   3.022   6.728   7.467  0.2414 -0.0722 -0.2123
  142OSM   H10S15564   3.063   6.632   7.504 -3.2189 -2.2417 -1.4259
  142OSM   H10T15565   2.917   6.703   7.495 -0.3066 -1.5982 -3.2267
  142OSM   C11S15566   3.083   6.838   7.553  0.0547 -0.2960  0.3264
  142OSM   H11S15567   3.030   6.935   7.557 -1.2491 -0.9967  0.7816
  142OSM   H11T15568   3.188   6.857   7.523  0.0051 -0.8948 -0.2603
  142OSM   C12S15569   3.090   6.777   7.694 -0.3091 -0.4533  0.6481
  142OSM   H12S15570   3.167   6.697   7.690 -0.9155 -1.0387 -3.3170
  142OSM   H12T15571   2.996   6.721   7.714 -0.3612 -0.4082  0.5255
  142OSM   C13S15572   3.096   6.885   7.803  0.1263 -0.4259  0.6330
  142OSM   H13S15573   2.998   6.937   7.808  1.1253  1.4528  1.5245
  142OSM   H13T15574   3.169   6.966   7.780 -0.3287 -0.5506 -1.4951
  142OSM   C14S15575   3.127   6.831   7.937  0.6605  0.4010  0.5216
  142OSM   H14S15576   3.234   6.819   7.960  1.0093 -0.1623 -1.2017
  142OSM   H14T15577   3.079   6.731   7.933 -0.7305  1.0511 -2.6570
  142OSM   C15S15578   3.060   6.915   8.043  0.3790 -0.6683  0.4377
  142OSM   H15S15579   2.952   6.933   8.022  0.4852 -0.8716 -0.3304
  142OSM   H15T15580   3.113   7.012   8.036  0.4913 -0.8037 -0.9255
  142OSM   C16S15581   3.087   6.866   8.188  0.1083  0.6575  0.6424
  142OSM   H16S15582   3.197   6.869   8.204 -0.0192  0.4478  1.6016
  142OSM   H16T15583   3.058   6.759   8.189  2.5768 -0.0723  1.5089
  142OSM   C17S15584   3.011   6.938   8.293 -0.0204  1.4713  0.4915
  142OSM   H17S15585   2.903   6.914   8.278  0.2297 -1.5349  2.5514
  142OSM   H17T15586   3.023   7.047   8.279  0.0010  1.3653 -0.3345
  142OSM   C18S15587   3.063   6.898   8.431  0.4253 -0.4641  0.4550
  142OSM   H18S15588   3.000   6.940   8.513  1.4622 -0.0157  1.0421
  142OSM   H18T15589   3.168   6.934   8.444  0.0780  1.0998 -0.7582
  142OSM   H18U15590   3.043   6.789   8.443  2.3947 -1.0085 -0.7465
  142OSM    C1F15591   3.104   6.805   6.826  0.0982 -0.3387  0.4330
  142OSM     OF15592   3.015   6.805   6.742 -0.0280  0.6406 -0.6465
  142OSM    C2F15593   3.149   6.926   6.898 -0.6714  0.3909  0.6439
  142OSM    H2F15594   3.071   6.966   6.967 -3.1047 -0.1091 -1.6480
  142OSM    H2G15595   3.179   7.004   6.825 -1.3142 -0.7682 -0.9367
  142OSM    C3F15596   3.275   6.896   7.004 -0.1062 -0.4294  0.0363
  142OSM    H3F15597   3.363   6.871   6.940  1.5373 -1.0691  2.4235
  142OSM    H3G15598   3.250   6.815   7.076  0.3416  2.0193  3.1461
  142OSM    C4F15599   3.292   7.017   7.099 -0.2705 -0.2889  0.2968
  142OSM    H4F15600   3.197   7.042   7.151  0.4526  1.4124  0.8764
  142OSM    H4G15601   3.320   7.111   7.046 -0.0772  0.0171  0.9330
  142OSM    C5F15602   3.398   6.987   7.210 -0.8213 -0.1497  0.1641
  142OSM    H5F15603   3.501   6.979   7.169 -1.2431  0.4879 -1.0685
  142OSM    H5G15604   3.366   6.904   7.277  0.3434  0.0042  0.9320
  142OSM    C6F15605   3.403   7.103   7.310  0.7345  0.0636 -0.5637
  142OSM    H6F15606   3.296   7.095   7.339  0.4386 -0.6868 -1.8152
  142OSM    H6G15607   3.411   7.199   7.255 -0.6435 -0.0547 -0.9959
  142OSM    C7F15608   3.505   7.090   7.421 -0.1127 -0.0955  0.6255
  142OSM    H7F15609   3.592   7.039   7.375 -0.7057 -0.1831 -0.4221
  142OSM    H7G15610   3.462   7.021   7.498 -1.2729 -0.3180 -0.1923
  142OSM    C8F15611   3.540   7.223   7.481  0.5447  0.4994  0.2549
  142OSM    H8F15612   3.443   7.271   7.508  1.1074  1.6833  0.2367
  142OSM    H8G15613   3.581   7.284   7.398  2.1727  1.1938  1.5137
  142OSM    C9F15614   3.618   7.219   7.609 -0.3525  0.1721  1.2639
  142OSM    H9F15615   3.726   7.214   7.588 -0.5400  0.5847  0.1587
  142OSM   C10F15616   3.581   7.219   7.737 -0.4258  0.2609 -0.5486
  142OSM   H10F15617   3.653   7.196   7.817 -0.0520  1.7327 -0.4370
  142OSM   C11F15618   3.436   7.228   7.790  0.2045 -0.9284  0.0753
  142OSM   H11F15619   3.365   7.197   7.710 -0.5054 -2.3080  1.1840
  142OSM   H11G15620   3.416   7.335   7.808  0.7576 -0.8114  0.0019
  142OSM   C12F15621   3.398   7.137   7.908  0.4143  0.0224  0.1914
  142OSM   H12F15622   3.464   7.048   7.909 -0.8479 -0.9904 -1.4136
  142OSM   H12G15623   3.293   7.101   7.910  0.6961 -0.7794  0.9233
  142OSM   C13F15624   3.403   7.210   8.038 -0.5358  0.5646  0.2153
  142OSM   H13F15625   3.330   7.293   8.044 -1.5571 -0.3009 -0.0268
  142OSM   H13G15626   3.507   7.250   8.039 -0.8142  1.7582 -3.4195
  142OSM   C14F15627   3.401   7.114   8.163  0.3369 -0.0304  0.0544
  142OSM   H14F15628   3.485   7.041   8.162 -0.7553 -1.3256 -1.5325
  142OSM   H14G15629   3.308   7.052   8.158 -0.3366  0.7824  1.7005
  142OSM   C15F15630   3.403   7.188   8.301  0.7372  0.5462 -0.1295
  142OSM   H15F15631   3.484   7.264   8.296  0.9824  0.2218 -1.9300
  142OSM   H15G15632   3.415   7.105   8.374 -1.7487 -0.0767 -0.3289
  142OSM   C16F15633   3.262   7.248   8.335 -0.8584 -0.1220 -0.3773
  142OSM   H16F15634   3.178   7.189   8.291 -1.8848  1.2387 -0.3303
  142OSM   H16G15635   3.254   7.351   8.295 -0.1540  0.5880  1.2482
  142OSM   C17F15636   3.259   7.269   8.491 -0.5017 -0.2316  0.2213
  142OSM   H17F15637   3.355   7.311   8.528  0.5191 -0.4057 -2.0404
  142OSM   H17G15638   3.235   7.176   8.547 -0.4500  0.3473  1.2276
  142OSM   C18F15639   3.145   7.365   8.517  0.3427 -0.0895  0.4367
  142OSM   H18F15640   3.142   7.450   8.446 -0.6437 -1.7471 -1.5964
  142OSM   H18G15641   3.145   7.405   8.621  0.8077  2.2997 -0.4097
  142OSM   H18H15642   3.053   7.304   8.511 -0.0226  0.1527  2.6887
  143OSM      N15643   4.114   2.042   6.105 -0.3905  0.1121  0.4191
  143OSM    C1515644   4.164   1.899   6.116  0.4851  0.9198 -0.0311
  143OSM   H15A15645   4.202   1.868   6.020 -0.4315 -0.5282  0.0324
  143OSM   H15B15646   4.086   1.837   6.158 -0.2123  1.6669 -0.1963
  143OSM   H15C15647   4.246   1.896   6.186  1.5745 -0.9956 -1.2888
  143OSM    C1415648   3.991   2.038   6.016 -0.0960  0.3700 -0.7470
  143OSM   H14A15649   4.017   1.998   5.919  0.1091 -0.7201 -0.2571
  143OSM   H14B15650   3.960   2.140   5.999  3.5228  1.6346 -0.7977
  143OSM   H14C15651   3.906   1.986   6.055  0.7053  0.5793  1.3978
  143OSM    C1315652   4.067   2.088   6.243 -0.1500 -0.0853 -0.3840
  143OSM   H13A15653   4.033   2.190   6.238  3.9689  1.6507  1.8250
  143OSM   H13B15654   4.158   2.092   6.302  1.0488  0.1748 -2.1448
  143OSM   H13C15655   3.988   2.027   6.283  1.4878 -2.2689 -0.2563
  143OSM    C1215656   4.225   2.128   6.059  0.0996 -0.0738  0.3605
  143OSM   H12A15657   4.272   2.087   5.971 -1.2318 -2.2111  0.5838
  143OSM   H12B15658   4.305   2.124   6.131  2.0412  1.3047 -1.5993
  143OSM    C1115659   4.187   2.283   6.033 -0.6449  0.6423  0.7216
  143OSM   H11A15660   4.126   2.291   5.941  3.0093 -0.8518 -2.0729
  143OSM   H11B15661   4.281   2.336   6.012 -0.8944  0.2846 -1.4548
  143OSM      P15662   4.127   2.493   6.178  0.1113  0.1016 -0.1506
  143OSM    O1315663   4.267   2.535   6.182 -0.2331  0.4102 -0.5723
  143OSM    O1415664   4.048   2.554   6.072 -0.0406  0.4865 -0.6922
  143OSM    O1115665   4.064   2.502   6.319 -0.6326 -0.7174 -0.8377
  143OSM    O1215666   4.129   2.337   6.153  0.1110 -0.6155 -0.2655
  143OSM    C1S15667   3.927   2.477   6.340  0.1515  0.4065  0.2500
  143OSM    H1S15668   3.903   2.371   6.314 -0.5616 -0.1572  2.9015
  143OSM    H1T15669   3.857   2.536   6.278 -1.9841 -1.9018  0.3080
  143OSM     NF15670   3.748   2.459   6.498  0.9913  0.5424  0.4992
  143OSM    HNF15671   3.670   2.522   6.497  0.1974 -0.4022  1.3107
  143OSM    C2S15672   3.883   2.510   6.486 -0.0142 -0.8573 -0.6921
  143OSM    H2S15673   3.940   2.456   6.565 -2.6058 -0.0654  1.8813
  143OSM    C3S15674   3.892   2.667   6.513  0.0473  0.1288  0.1562
  143OSM    H3S15675   3.829   2.728   6.445 -1.5718 -0.3997  1.1331
  143OSM     O315676   4.020   2.715   6.479  0.3333  0.5068  0.4206
  143OSM    HO315677   4.062   2.655   6.417 -1.5260 -1.1586  0.6886
  143OSM    C4S15678   3.864   2.701   6.656 -0.1659  0.0568  0.2311
  143OSM    H4S15679   3.956   2.697   6.716 -1.0476  0.0997  1.6327
  143OSM    C5S15680   3.755   2.756   6.710 -0.6231 -1.0880  0.2106
  143OSM    H5S15681   3.668   2.773   6.646  0.2365  0.2345 -0.6522
  143OSM    C6S15682   3.728   2.785   6.854 -0.3777  0.3577  0.3012
  143OSM    H6S15683   3.622   2.758   6.871 -0.2742 -0.2145  0.0650
  143OSM    H6T15684   3.730   2.893   6.879 -1.0501  0.3630  0.3259
  143OSM    C7S15685   3.820   2.716   6.960  0.4812 -0.0289  0.1960
  143OSM    H7S15686   3.922   2.755   6.944 -0.2322  1.4459 -1.0295
  143OSM    H7T15687   3.811   2.605   6.953  0.6273 -0.0054 -0.3830
  143OSM    C8S15688   3.767   2.756   7.102 -0.0967 -0.2189 -0.3660
  143OSM    H8S15689   3.659   2.734   7.101 -0.4929  1.5736 -1.0013
  143OSM    H8T15690   3.782   2.865   7.118  1.6387 -0.5189  0.2686
  143OSM    C9S15691   3.842   2.677   7.213  0.3911  0.0179 -0.2730
  143OSM    H9S15692   3.952   2.692   7.222  0.6664 -1.9122  0.1325
  143OSM    H9T15693   3.831   2.568   7.198 -0.6432 -0.0255  0.6752
  143OSM   C10S15694   3.770   2.722   7.346 -0.3066  0.6221 -0.3650
  143OSM   H10S15695   3.661   2.699   7.350 -0.3834  0.2427 -2.8854
  143OSM   H10T15696   3.782   2.832   7.352 -4.0024  1.1117  1.5054
  143OSM   C11S15697   3.845   2.659   7.474 -0.0265  0.4586  0.0647
  143OSM   H11S15698   3.806   2.708   7.566  2.5032  0.2307  1.3666
  143OSM   H11T15699   3.954   2.677   7.457 -0.2758  0.7340 -1.4124
  143OSM   C12S15700   3.830   2.512   7.500 -0.4500 -0.3500 -0.3697
  143OSM   H12S15701   3.889   2.469   7.416 -0.4681 -1.9387  0.3851
  143OSM   H12T15702   3.725   2.480   7.488 -0.9159  1.5189 -1.6708
  143OSM   C13S15703   3.882   2.460   7.634 -0.0544  0.0540 -0.1737
  143OSM   H13S15704   3.879   2.534   7.716 -2.0707 -1.1343  0.9095
  143OSM   H13T15705   3.991   2.443   7.621  0.3865  1.7528  1.0044
  143OSM   C14S15706   3.816   2.332   7.679  0.0973  0.4804 -0.0297
  143OSM   H14S15707   3.799   2.274   7.586 -0.1106  1.1399 -0.4018
  143OSM   H14T15708   3.714   2.365   7.710  0.3926  1.3486  0.0233
  143OSM   C15S15709   3.892   2.259   7.785  0.4164 -0.3030  0.1226
  143OSM   H15S15710   3.997   2.249   7.751  0.2994 -0.2928 -0.2434
  143OSM   H15T15711   3.853   2.158   7.810 -0.4414  0.4411  1.9770
  143OSM   C16S15712   3.901   2.336   7.919 -0.2460 -0.3246  0.0855
  143OSM   H16S15713   3.796   2.346   7.956 -1.1404 -1.7183 -1.8549
  143OSM   H16T15714   3.957   2.431   7.906 -1.1521  0.2810  0.5256
  143OSM   C17S15715   3.973   2.255   8.030  0.1161 -0.2647  0.4959
  143OSM   H17S15716   3.920   2.162   8.061  0.0979 -0.2793  0.4217
  143OSM   H17T15717   3.974   2.312   8.125  0.4933 -1.4495  1.2237
  143OSM   C18S15718   4.117   2.230   8.005 -0.0901  0.3374 -0.0784
  143OSM   H18S15719   4.137   2.208   7.898  0.1675 -0.0123  0.0362
  143OSM   H18T15720   4.147   2.144   8.070  0.0647  0.0570 -0.5169
  143OSM   H18U15721   4.175   2.316   8.045  0.6193  0.3157 -1.0226
  143OSM    C1F15722   3.715   2.337   6.518  0.6866  0.4896  0.2418
  143OSM     OF15723   3.799   2.244   6.520  0.5191  0.3086  0.3908
  143OSM    C2F15724   3.566   2.310   6.532 -0.4114 -0.2107  0.6829
  143OSM    H2F15725   3.558   2.202   6.558  0.3758 -0.0325  1.7409
  143OSM    H2G15726   3.516   2.327   6.435  1.6389  5.6638  0.2609
  143OSM    C3F15727   3.494   2.390   6.636  0.4838  0.3916 -0.4806
  143OSM    H3F15728   3.402   2.335   6.666  0.3288 -0.4456 -2.3392
  143OSM    H3G15729   3.465   2.487   6.591 -0.3129 -0.6894 -2.4111
  143OSM    C4F15730   3.568   2.416   6.772  0.0945  0.6159  0.3362
  143OSM    H4F15731   3.633   2.506   6.773  1.5074 -0.3723  0.4831
  143OSM    H4G15732   3.637   2.329   6.780 -1.3796 -0.8714 -1.9714
  143OSM    C5F15733   3.479   2.435   6.898  0.2936 -0.6769 -0.1644
  143OSM    H5F15734   3.398   2.359   6.900 -0.7962  0.4819  1.5337
  143OSM    H5G15735   3.447   2.541   6.892  0.9075 -0.2475  2.8385
  143OSM    C6F15736   3.566   2.422   7.023 -0.2426  0.8654  0.7826
  143OSM    H6F15737   3.649   2.495   7.023  1.8692 -1.3984 -0.8361
  143OSM    H6G15738   3.614   2.322   7.035  1.3574  1.4813 -0.3044
  143OSM    C7F15739   3.475   2.444   7.141 -0.5700  0.2498  0.4463
  143OSM    H7F15740   3.377   2.393   7.126  0.2340 -0.6002 -2.8723
  143OSM    H7G15741   3.455   2.552   7.161 -0.7393  0.4911 -0.9344
  143OSM    C8F15742   3.538   2.375   7.268 -0.5068  0.4442 -0.4151
  143OSM    H8F15743   3.644   2.408   7.275  0.1271 -0.9148 -2.5387
  143OSM    H8G15744   3.545   2.267   7.244 -0.6729  0.4083 -0.2979
  143OSM    C9F15745   3.445   2.390   7.392 -0.6734  0.2694 -0.4000
  143OSM    H9F15746   3.435   2.497   7.419  1.5548  0.3872  0.1571
  143OSM   C10F15747   3.378   2.308   7.469  0.4729  0.3349  0.2187
  143OSM   H10F15748   3.334   2.346   7.562 -0.8711 -0.8383  0.0871
  143OSM   C11F15749   3.377   2.161   7.460  0.5215 -0.2660 -0.7731
  143OSM   H11F15750   3.319   2.135   7.369 -2.9782  0.9537  0.9373
  143OSM   H11G15751   3.321   2.126   7.549  1.8217  0.1380  0.2413
  143OSM   C12F15752   3.520   2.087   7.478 -0.7140  0.1429  0.6827
  143OSM   H12F15753   3.582   2.146   7.548  1.0072 -3.0546  2.0438
  143OSM   H12G15754   3.567   2.096   7.377 -2.6850 -0.7633 -0.3905
  143OSM   C13F15755   3.501   1.935   7.505  0.0950 -0.4693 -0.8285
  143OSM   H13F15756   3.395   1.910   7.525 -0.1561  2.2997  2.0556
  143OSM   H13G15757   3.562   1.909   7.595 -0.1032  1.5886 -0.0492
  143OSM   C14F15758   3.559   1.835   7.401  0.2684 -0.4359 -0.1706
  143OSM   H14F15759   3.615   1.758   7.457  2.6670  1.9517  0.9469
  143OSM   H14G15760   3.627   1.896   7.337 -0.0572  1.2939  1.0495
  143OSM   C15F15761   3.451   1.765   7.322  0.3936  0.3723  0.6450
  143OSM   H15F15762   3.381   1.841   7.281 -3.2109 -2.7645  0.4720
  143OSM   H15G15763   3.395   1.700   7.392  1.1269 -0.6187  0.3380
  143OSM   C16F15764   3.513   1.677   7.213 -0.2072 -0.1377  0.2048
  143OSM   H16F15765   3.562   1.596   7.271 -0.7705 -0.3120  0.4368
  143OSM   H16G15766   3.601   1.726   7.167  0.4389  0.0722  1.6090
  143OSM   C17F15767   3.417   1.622   7.108 -0.5419 -0.0127  0.4153
  143OSM   H17F15768   3.345   1.703   7.082  0.2080  0.1589 -1.2699
  143OSM   H17G15769   3.355   1.539   7.148 -0.1101 -0.1472  0.8243
  143OSM   C18F15770   3.492   1.584   6.983 -0.0065  0.0829 -0.7408
  143OSM   H18F15771   3.567   1.658   6.949  0.5186 -0.1381 -0.1049
  143OSM   H18G15772   3.424   1.574   6.896  2.4977  2.1055 -3.0913
  143OSM   H18H15773   3.544   1.486   6.997 -1.3007 -0.4455  0.7342
  144OSM      N15774   2.979   1.717   6.255  0.7467  0.5519  0.2420
  144OSM    C1515775   3.035   1.597   6.322 -0.2388 -0.2453 -0.0257
  144OSM   H15A15776   3.016   1.511   6.260  1.3105  0.2239 -1.2338
  144OSM   H15B15777   2.991   1.576   6.418  0.0894 -1.1551 -0.0739
  144OSM   H15C15778   3.141   1.597   6.342 -0.3881 -1.8119  0.9010
  144OSM    C1415779   3.000   1.832   6.348  0.0020  0.3901  0.2660
  144OSM   H14A15780   2.973   1.796   6.446  1.7025 -2.4443 -0.2012
  144OSM   H14B15781   2.947   1.922   6.318 -0.4791 -0.0902 -0.3531
  144OSM   H14C15782   3.107   1.847   6.352  0.1339 -0.5244  0.3927
  144OSM    C1315783   3.048   1.735   6.120 -0.4465  0.1612 -0.2898
  144OSM   H13A15784   3.044   1.641   6.067  0.7280 -0.2068  0.2339
  144OSM   H13B15785   3.153   1.753   6.142 -1.0876  3.2315  0.7172
  144OSM   H13C15786   2.996   1.806   6.057 -1.4479 -0.0661  0.2721
  144OSM    C1215787   2.836   1.702   6.228  1.0165  0.0875  0.3627
  144OSM   H12A15788   2.798   1.798   6.197  0.3765 -0.4400 -0.5317
  144OSM   H12B15789   2.780   1.682   6.318  0.0888 -0.6293 -0.3542
  144OSM    C1115790   2.778   1.600   6.126  0.3631  0.0650  1.2887
  144OSM   H11A15791   2.791   1.621   6.018 -1.3247 -0.7239  0.8910
  144OSM   H11B15792   2.669   1.619   6.137  0.5690  3.5757 -1.1095
  144OSM      P15793   2.725   1.341   6.160 -0.3347 -0.2850  0.0098
  144OSM    O1315794   2.610   1.373   6.074 -0.8186  0.2292  0.3529
  144OSM    O1415795   2.794   1.210   6.133  0.5271 -0.1706  0.2701
  144OSM    O1115796   2.676   1.339   6.311 -0.4735 -0.0355 -0.1116
  144OSM    O1215797   2.826   1.467   6.155 -0.3303  0.2604 -0.0805
  144OSM    C1S15798   2.773   1.370   6.405  0.0984 -0.0308 -0.2733
  144OSM    H1S15799   2.796   1.478   6.407 -1.2892  0.2815 -0.2188
  144OSM    H1T15800   2.867   1.316   6.381  1.4099  1.2018  1.8435
  144OSM     NF15801   2.817   1.344   6.658 -0.6407  0.0387  0.0433
  144OSM    HNF15802   2.876   1.267   6.678 -0.0814  0.3611 -0.3395
  144OSM    C2S15803   2.723   1.322   6.545 -0.0278  0.5271  0.1514
  144OSM    H2S15804   2.630   1.381   6.556 -1.0369 -0.9796 -0.0210
  144OSM    C3S15805   2.669   1.167   6.540  0.1325 -0.0790 -0.0889
  144OSM    H3S15806   2.759   1.104   6.526 -0.1509 -0.4116 -0.4738
  144OSM     O315807   2.583   1.133   6.431  0.1361 -0.2672 -0.2858
  144OSM    HO315808   2.586   1.211   6.375 -0.6098  1.6367  2.1471
  144OSM    C4S15809   2.616   1.130   6.674  0.3104 -0.4141 -0.4285
  144OSM    H4S15810   2.691   1.086   6.740 -0.5630  1.3731  1.9082
  144OSM    C5S15811   2.494   1.137   6.726  0.1341 -0.0216 -0.0081
  144OSM    H5S15812   2.417   1.162   6.652  2.5669  0.9627 -2.3665
  144OSM    C6S15813   2.448   1.093   6.862  0.0623 -0.6443  0.2214
  144OSM    H6S15814   2.352   1.037   6.853 -0.3718  0.3858 -2.5825
  144OSM    H6T15815   2.418   1.178   6.926  0.5934 -2.3671  2.9107
  144OSM    C7S15816   2.554   1.015   6.943  0.4915 -0.1782  0.8444
  144OSM    H7S15817   2.647   1.077   6.949  1.3960 -1.1650 -1.4394
  144OSM    H7T15818   2.591   0.925   6.889 -0.0110 -0.8255  1.5683
  144OSM    C8S15819   2.503   0.969   7.072 -0.0841  0.9303 -0.1441
  144OSM    H8S15820   2.413   0.907   7.050 -0.8631  2.5749 -1.8149
  144OSM    H8T15821   2.477   1.069   7.113 -0.7075  0.8271 -0.2807
  144OSM    C9S15822   2.606   0.883   7.155  0.3397  0.2295  0.3940
  144OSM    H9S15823   2.673   0.836   7.079  0.9063  2.1248 -0.3305
  144OSM    H9T15824   2.544   0.806   7.206 -0.4849  1.1683  0.8248
  144OSM   C10S15825   2.703   0.960   7.240 -0.3909 -0.9442 -0.8448
  144OSM   H10S15826   2.652   1.033   7.306  0.3099 -0.6714 -0.5925
  144OSM   H10T15827   2.760   1.022   7.168  1.8314  0.3430  1.8192
  144OSM   C11S15828   2.818   0.880   7.312 -0.2015  0.0522  1.0266
  144OSM   H11S15829   2.896   0.953   7.341  1.1914 -0.3421 -1.4248
  144OSM   H11T15830   2.869   0.808   7.245 -2.4095 -0.2349 -0.4704
  144OSM   C12S15831   2.773   0.812   7.447 -0.4382 -0.6111 -0.8231
  144OSM   H12S15832   2.862   0.761   7.488 -0.4116  0.0700  0.0101
  144OSM   H12T15833   2.692   0.738   7.430  0.5633 -2.6730  2.4426
  144OSM   C13S15834   2.712   0.919   7.542 -0.2127  0.2885 -0.7402
  144OSM   H13S15835   2.612   0.961   7.520  0.2040  3.2228  2.1810
  144OSM   H13T15836   2.776   1.009   7.541 -1.5056  1.2343 -0.1281
  144OSM   C14S15837   2.721   0.859   7.680  0.7102  0.3732 -0.5266
  144OSM   H14S15838   2.815   0.810   7.713  1.3475  1.2845 -0.9382
  144OSM   H14T15839   2.640   0.783   7.685  0.9985  0.1304  1.6585
  144OSM   C15S15840   2.673   0.961   7.782 -0.2048 -0.1157 -0.5678
  144OSM   H15S15841   2.659   0.909   7.879 -1.1024 -1.2613 -1.2933
  144OSM   H15T15842   2.571   0.994   7.752 -1.2588 -1.5103  1.2844
  144OSM   C16S15843   2.764   1.082   7.788 -0.6171  0.5324  0.2435
  144OSM   H16S15844   2.748   1.144   7.697 -0.3906  1.5482  0.8703
  144OSM   H16T15845   2.871   1.052   7.785 -0.6835  0.3582 -0.5696
  144OSM   C17S15846   2.746   1.159   7.919  0.1099 -0.1273 -0.1704
  144OSM   H17S15847   2.809   1.248   7.898  0.5569 -0.5790 -0.7913
  144OSM   H17T15848   2.788   1.088   7.994  0.6965 -1.7328 -1.9175
  144OSM   C18S15849   2.598   1.201   7.952  0.1741 -0.0712  0.0500
  144OSM   H18S15850   2.558   1.262   7.868  1.5291  2.4029  1.1161
  144OSM   H18T15851   2.605   1.278   8.032 -2.5667  0.1040  0.2177
  144OSM   H18U15852   2.512   1.134   7.977  0.8845 -0.8869  0.3335
  144OSM    C1F15853   2.843   1.463   6.703  1.1090 -0.3756 -0.1842
  144OSM     OF15854   2.801   1.556   6.629 -0.0941  0.3924 -0.2311
  144OSM    C2F15855   2.918   1.482   6.836 -0.2927  0.6902 -0.0147
  144OSM    H2F15856   3.024   1.483   6.802 -0.6761 -0.8380 -1.3831
  144OSM    H2G15857   2.901   1.393   6.901  0.9680 -0.5030 -1.2537
  144OSM    C3F15858   2.887   1.610   6.922  0.6940  0.3767  0.3121
  144OSM    H3F15859   2.783   1.612   6.961  0.1455 -1.8066 -0.8767
  144OSM    H3G15860   2.908   1.690   6.848  2.9821 -0.7457 -0.3391
  144OSM    C4F15861   2.979   1.632   7.048  0.2371 -0.5331  0.7089
  144OSM    H4F15862   3.079   1.595   7.017  0.0536  0.8161 -1.7837
  144OSM    H4G15863   2.943   1.562   7.127 -2.4779  2.1693  2.1177
  144OSM    C5F15864   2.984   1.770   7.114  0.1616 -1.0382  0.3716
  144OSM    H5F15865   2.880   1.801   7.138  1.0186  1.5608  0.9649
  144OSM    H5G15866   3.028   1.833   7.034 -0.2819 -1.3590 -0.1292
  144OSM    C6F15867   3.060   1.760   7.247 -0.4925 -0.3015 -0.9034
  144OSM    H6F15868   3.166   1.731   7.230  0.3709  1.8211  0.3291
  144OSM    H6G15869   2.998   1.691   7.307  0.4690  2.4747  3.8523
  144OSM    C7F15870   3.051   1.895   7.325  0.0489  0.2225 -0.1081
  144OSM    H7F15871   2.943   1.919   7.331 -0.5809 -2.1182 -1.1413
  144OSM    H7G15872   3.092   1.974   7.258 -3.2920  2.2686  0.0159
  144OSM    C8F15873   3.125   1.899   7.459  0.4051 -0.7403  0.4012
  144OSM    H8F15874   3.125   2.001   7.502 -1.7856 -0.8627  0.7889
  144OSM    H8G15875   3.230   1.865   7.444 -0.2435 -1.6132 -2.7569
  144OSM    C9F15876   3.064   1.805   7.555  0.1734  0.6423  0.2149
  144OSM    H9F15877   3.027   1.714   7.506  3.0471 -0.8876  0.6118
  144OSM   C10F15878   3.047   1.813   7.688 -0.5738  0.5536  0.2907
  144OSM   H10F15879   3.006   1.722   7.735 -1.0119 -0.0474 -1.1784
  144OSM   C11F15880   3.084   1.920   7.789  0.2020  0.0283 -0.3021
  144OSM   H11F15881   3.132   2.006   7.738  0.4671  0.2062  0.2399
  144OSM   H11G15882   3.162   1.874   7.853  0.1776 -0.8893 -0.9157
  144OSM   C12F15883   2.976   1.989   7.865  0.4813 -0.8171 -1.0207
  144OSM   H12F15884   2.896   2.044   7.811 -2.4174 -2.1326  1.6345
  144OSM   H12G15885   3.030   2.071   7.918 -1.3265 -1.6801  2.4404
  144OSM   C13F15886   2.908   1.904   7.978  0.0964 -0.1905 -0.2506
  144OSM   H13F15887   2.990   1.864   8.041  0.5856  1.2602  0.0517
  144OSM   H13G15888   2.858   1.811   7.942 -0.2646 -0.5135  1.0366
  144OSM   C14F15889   2.815   1.993   8.068  0.6636 -0.2364 -0.8318
  144OSM   H14F15890   2.738   2.055   8.017  1.1830  0.8408 -0.3245
  144OSM   H14G15891   2.879   2.073   8.111  2.5582 -0.9439 -2.1658
  144OSM   C15F15892   2.746   1.916   8.175 -0.5569  0.5329 -0.3362
  144OSM   H15F15893   2.818   1.851   8.229  1.8035  1.2347 -2.4484
  144OSM   H15G15894   2.680   1.837   8.133  0.6891 -0.2682 -0.8293
  144OSM   C16F15895   2.657   2.001   8.271  0.9125 -0.6081  0.0887
  144OSM   H16F15896   2.581   2.049   8.206  1.9498  1.1589  0.1195
  144OSM   H16G15897   2.718   2.078   8.323  0.1334  0.1622 -0.1122
  144OSM   C17F15898   2.593   1.903   8.369 -0.5949  0.8585  0.6028
  144OSM   H17F15899   2.673   1.847   8.422  0.0674 -0.3909 -1.5918
  144OSM   H17G15900   2.545   1.833   8.298  0.7561 -0.2446  0.7447
  144OSM   C18F15901   2.495   1.965   8.464  0.1525  0.0292 -0.7904
  144OSM   H18F15902   2.557   2.030   8.530  0.4772  1.4439 -2.4047
  144OSM   H18G15903   2.441   1.886   8.521  1.3229 -0.6610 -0.6060
  144OSM   H18H15904   2.421   2.034   8.420  0.5914  2.2426  1.6468
  145SAPE     N15905   2.156   4.045  10.494 -0.0329  0.4282  0.1724
  145SAPE   HN115906   2.204   4.028  10.403  0.2217  2.9317 -0.2247
  145SAPE   HN215907   2.054   4.050  10.476  0.4522  3.4819 -2.8651
  145SAPE   HN315908   2.192   4.135  10.532  0.3802 -0.6849  2.6208
  145SAPE   C1215909   2.179   3.943  10.597  0.8046 -0.1325 -0.6013
  145SAPE  H12A15910   2.139   3.985  10.691 -0.3951 -1.5959 -0.4116
  145SAPE  H12B15911   2.287   3.915  10.597  1.2211  0.9774 -4.0349
  145SAPE   C1115912   2.103   3.805  10.563  0.8488  0.0706 -0.4764
  145SAPE  H11A15913   2.159   3.736  10.630  0.9275 -0.8798 -1.4892
  145SAPE  H11B15914   2.106   3.770  10.458  0.8084 -1.8669  0.1178
  145SAPE     P15915   1.853   3.871  10.518 -0.5144 -0.0296  0.0392
  145SAPE   O1315916   1.724   3.843  10.581  0.3208  0.3720 -0.0805
  145SAPE   O1415917   1.890   4.012  10.505 -0.2150 -0.1028 -0.1929
  145SAPE   O1215918   1.964   3.807  10.615 -0.2087  0.3810  0.0687
  145SAPE   O1115919   1.862   3.806  10.377  0.2561  0.1593 -0.5101
  145SAPE    C115920   1.795   3.684  10.336  0.7704 -0.1500 -0.0369
  145SAPE    HA15921   1.852   3.594  10.368  1.2334  0.8831  2.2057
  145SAPE    HB15922   1.694   3.668  10.380  0.3951 -0.3740 -0.9565
  145SAPE    C215923   1.788   3.676  10.189 -0.3115 -0.5724 -0.1465
  145SAPE    HS15924   1.893   3.693  10.156 -0.0045 -0.4607  0.8532
  145SAPE   O2115925   1.698   3.771  10.128  0.2254 -0.4999  0.1814
  145SAPE   C2115926   1.759   3.891  10.098 -0.7241  0.3197 -0.7311
  145SAPE   O2215927   1.882   3.904  10.087  0.1421 -0.3000 -0.1196
  145SAPE   C2215928   1.659   4.014  10.094  0.2017  0.0248 -0.2820
  145SAPE   H2R15929   1.564   3.980  10.140  1.0589 -1.4416  0.4964
  145SAPE   H2S15930   1.701   4.099  10.153 -0.8440  0.6763 -0.4525
  145SAPE    C315931   1.736   3.534  10.137  0.1008  0.3443 -0.2943
  145SAPE    HX15932   1.626   3.553  10.141  0.0990  0.1083  2.7263
  145SAPE    HY15933   1.765   3.463  10.217 -3.9331 -1.4455 -0.1768
  145SAPE   O3115934   1.781   3.507  10.004  0.3965  0.8646 -0.0017
  145SAPE   C3115935   1.821   3.380   9.976  0.2933 -0.3481  0.5970
  145SAPE   O3215936   1.837   3.295  10.057 -0.4578  0.6740 -0.2316
  145SAPE   C3215937   1.861   3.380   9.824  0.6201 -0.4855 -0.3744
  145SAPE   H2X15938   1.944   3.451   9.804  1.0937 -1.3380 -1.6113
  145SAPE   H2Y15939   1.764   3.411   9.780  0.8163 -0.2270 -0.6271
  145SAPE   C2315940   1.644   4.066   9.950 -0.2395  0.1125 -0.8093
  145SAPE   H3R15941   1.752   4.066   9.923  0.3565 -0.5808  1.3759
  145SAPE   H3S15942   1.610   4.172   9.956  0.2227  0.2286  0.0607
  145SAPE   C2415943   1.554   3.989   9.853 -0.2969 -0.3386  0.5276
  145SAPE   H4R15944   1.452   4.026   9.875  0.2854  1.0190  1.0483
  145SAPE   H4S15945   1.564   3.879   9.868 -0.1966 -0.4613 -0.3657
  145SAPE   C2515946   1.573   4.001   9.702  0.5068  0.1524 -0.0875
  145SAPE   H5R15947   1.499   4.062   9.649 -3.2383  0.9092  5.1329
  145SAPE   C2615948   1.665   3.941   9.630 -0.3644  0.2835 -0.2577
  145SAPE   H6R15949   1.663   3.978   9.527 -0.2994  2.3691  0.4297
  145SAPE   C2715950   1.780   3.858   9.675 -0.5300 -0.0264  0.8175
  145SAPE   H7R15951   1.814   3.881   9.779  1.0154  0.3076  0.2663
  145SAPE   H7S15952   1.870   3.878   9.613  0.1410 -1.3649  1.3151
  145SAPE   C2815953   1.735   3.714   9.665 -0.5994  0.1190  0.0809
  145SAPE   H8R15954   1.713   3.676   9.766  2.4951  1.5624  1.4334
  145SAPE   C2915955   1.732   3.636   9.556  0.1529  0.4165 -0.3452
  145SAPE   H9R15956   1.681   3.539   9.569 -1.2554  1.1705 -0.0266
  145SAPE  C21015957   1.783   3.669   9.418  0.3744 -0.2800 -0.1781
  145SAPE  H10R15958   1.762   3.777   9.402 -2.2455 -1.0751 -3.4206
  145SAPE  H10S15959   1.709   3.627   9.347 -1.5413  1.9723  0.3364
  145SAPE  C21115960   1.923   3.632   9.396  0.8294 -0.4384  0.4551
  145SAPE  H11R15961   1.989   3.637   9.484 -0.3050 -1.2042  1.3784
  145SAPE  C21215962   1.984   3.602   9.275 -0.8194  0.6494 -0.8047
  145SAPE  H12R15963   2.089   3.567   9.279 -0.3594  1.9913  2.5209
  145SAPE  C21315964   1.919   3.597   9.138  0.2547 -0.0549  0.0162
  145SAPE  H13R15965   1.809   3.582   9.143  0.1928  0.5398  0.6572
  145SAPE  H13S15966   1.946   3.499   9.094 -0.2538  0.5337 -1.6894
  145SAPE  C21415967   1.961   3.720   9.061 -0.4068  0.5188  1.0658
  145SAPE  H14R15968   2.020   3.792   9.120  0.3140  0.9866 -0.1926
  145SAPE  C21515969   1.916   3.750   8.936  1.0082  0.6529 -0.3856
  145SAPE  H15R15970   1.955   3.844   8.894  3.0778  0.3040  0.6199
  145SAPE  C21615971   1.812   3.674   8.864 -0.2735 -0.8703 -0.8884
  145SAPE  H16R15972   1.755   3.747   8.802 -1.5774 -1.4365 -0.3913
  145SAPE  H16S15973   1.738   3.633   8.936  2.5633 -3.7623  0.6313
  145SAPE  C21715974   1.861   3.562   8.771  0.6517  0.4959  0.4030
  145SAPE  H17R15975   1.912   3.484   8.831 -1.0414  1.1051  2.7825
  145SAPE  H17S15976   1.938   3.609   8.706  1.7199  1.4342  2.2778
  145SAPE  C21815977   1.742   3.498   8.697 -0.4247 -0.1165 -0.1904
  145SAPE  H18R15978   1.698   3.581   8.638 -1.1363  2.3337  3.4642
  145SAPE  H18S15979   1.663   3.477   8.772  1.4093 -2.4148  1.2374
  145SAPE  C21915980   1.765   3.376   8.608 -0.3440 -0.3930 -0.1955
  145SAPE  H19R15981   1.814   3.305   8.678  2.9280  0.7964 -1.0862
  145SAPE  H19S15982   1.835   3.395   8.523  1.3608 -2.8481  0.5494
  145SAPE  C22015983   1.635   3.341   8.543  0.1017 -0.1398  0.2086
  145SAPE  H20R15984   1.649   3.257   8.473  0.7383 -0.3221  0.5474
  145SAPE  H20S15985   1.586   3.428   8.493  1.9188  0.9821  0.3082
  145SAPE  H20T15986   1.562   3.305   8.619 -1.0087 -3.0237 -2.0405
  145SAPE   C3315987   1.906   3.239   9.775  0.7417 -0.1730 -0.3965
  145SAPE   H3X15988   1.816   3.174   9.773  0.0324  0.7550 -3.1293
  145SAPE   H3Y15989   1.985   3.197   9.841  1.6107  0.0732 -1.2502
  145SAPE   C3415990   1.974   3.245   9.636 -0.2845 -0.6303 -0.3470
  145SAPE   H4X15991   2.059   3.317   9.639 -1.6589  1.0389  0.4952
  145SAPE   H4Y15992   1.902   3.282   9.560  0.9260  0.4703 -1.0044
  145SAPE   C3515993   2.027   3.111   9.588  0.0931 -0.1354  0.1696
  145SAPE   H5X15994   1.946   3.044   9.555  1.1219 -1.5986  0.5386
  145SAPE   H5Y15995   2.089   3.058   9.664  0.6113 -2.0117 -1.4907
  145SAPE   C3615996   2.135   3.132   9.480  0.6508  0.2459  0.2669
  145SAPE   H6X15997   2.180   3.035   9.449  2.5689  0.2262  2.7976
  145SAPE   H6Y15998   2.217   3.188   9.529 -0.6524  1.1050  1.5211
  145SAPE   C3715999   2.080   3.205   9.348 -0.1505 -0.3908  0.2506
  145SAPE   H7X16000   2.074   3.315   9.365  2.6488  0.2790 -2.3067
  145SAPE   H7Y16001   1.981   3.163   9.320 -0.2433 -0.0423  0.0504
  145SAPE   C3816002   2.185   3.190   9.233 -0.4907  0.3827  0.8519
  145SAPE   H8X16003   2.282   3.240   9.254  0.1228  0.1863 -1.2380
  145SAPE   H8Y16004   2.138   3.242   9.147 -2.4055  1.4372  2.4470
  145SAPE   C3916005   2.186   3.048   9.183 -0.3281 -0.0641 -0.0928
  145SAPE   H9X16006   2.082   3.012   9.179 -1.5286  2.9760  0.5293
  145SAPE   H9Y16007   2.246   2.993   9.258 -1.6545 -0.2150  0.8896
  145SAPE  C31016008   2.272   3.041   9.054  0.7322 -0.5352 -0.3854
  145SAPE  H10X16009   2.375   3.080   9.069  1.3794 -2.9718  2.7810
  145SAPE  H10Y16010   2.235   3.099   8.967  2.2135 -1.4620 -1.6798
  145SAPE  C31116011   2.282   2.894   9.006 -0.6751  0.4653  1.3826
  145SAPE  H11X16012   2.181   2.852   8.986  0.0437 -0.7560  0.0966
  145SAPE  H11Y16013   2.335   2.836   9.084  1.1801 -1.4535 -1.0991
  145SAPE  C31216014   2.365   2.875   8.872  0.3220 -0.1257  0.6273
  145SAPE  H12X16015   2.359   2.962   8.803  1.5120 -0.2580  0.3409
  145SAPE  H12Y16016   2.327   2.783   8.824  1.0212  0.0228 -0.2451
  145SAPE  C31316017   2.513   2.844   8.906 -0.0202  0.1281  0.2155
  145SAPE  H13X16018   2.539   2.739   8.932  0.5710  0.3439  0.5141
  145SAPE  H13Y16019   2.553   2.907   8.988  0.5241  1.0697 -0.7524
  145SAPE  C31416020   2.594   2.856   8.777 -0.8251  0.0901 -0.5140
  145SAPE  H14X16021   2.582   2.957   8.732  0.9673  0.7143  0.3568
  145SAPE  H14Y16022   2.563   2.786   8.695  1.5645 -0.2064 -1.2284
  145SAPE  C31516023   2.744   2.827   8.809 -0.8615  0.2682 -0.5775
  145SAPE  H15X16024   2.760   2.726   8.852  0.4552  0.1413 -1.3116
  145SAPE  H15Y16025   2.771   2.901   8.888 -1.5885 -1.5988  1.5183
  145SAPE  C31616026   2.830   2.828   8.684 -0.6409 -0.1403  0.1844
  145SAPE  H16X16027   2.811   2.923   8.631  0.2479 -2.0811 -4.0314
  145SAPE  H16Y16028   2.798   2.754   8.608 -1.6355 -0.0013  0.4516
  145SAPE  C31716029   2.974   2.836   8.714 -0.0032 -0.0338  0.3869
  145SAPE  H17X16030   3.000   2.743   8.770  0.1138 -0.5790 -0.5551
  145SAPE  H17Y16031   2.995   2.929   8.771  0.6196  1.3171 -1.9573
  145SAPE  C31816032   3.072   2.841   8.591  0.1810  0.6170  0.1092
  145SAPE  H18X16033   3.028   2.899   8.508 -0.1315  1.6549  0.9896
  145SAPE  H18Y16034   3.103   2.736   8.568 -0.7279 -0.4330  3.1155
  145SAPE  H18Z16035   3.171   2.881   8.624  0.1497  1.9107 -1.2706
  146SAPE     N16036   0.444   4.004  10.880 -0.1701 -0.2000 -0.4750
  146SAPE   HN116037   0.501   3.944  10.942  0.1632 -0.3279 -0.8974
  146SAPE   HN216038   0.345   3.997  10.913 -2.2547 -3.2426 -5.9736
  146SAPE   HN316039   0.434   3.958  10.787 -1.2643 -0.4861 -0.2366
  146SAPE   C1216040   0.504   4.140  10.876  0.0182  1.1688  0.3863
  146SAPE  H12A16041   0.611   4.127  10.852  0.2336  2.7595  0.3687
  146SAPE  H12B16042   0.501   4.185  10.977  3.6044  1.2693  0.5519
  146SAPE   C1116043   0.427   4.233  10.774  0.2156 -0.2495  0.3159
  146SAPE  H11A16044   0.495   4.248  10.688 -1.0302  1.0424 -0.5004
  146SAPE  H11B16045   0.421   4.334  10.820 -1.7140 -0.6591  1.0768
  146SAPE     P16046   0.169   4.270  10.778  0.3278 -0.2326 -0.2877
  146SAPE   O1316047   0.153   4.253  10.926  0.1112  0.1462  0.4451
  146SAPE   O1416048   0.180   4.410  10.731 -0.2939  0.1416 -0.5041
  146SAPE   O1216049   0.293   4.180  10.729 -0.9283  0.1633 -0.4100
  146SAPE   O1116050   0.053   4.200  10.699  0.0097 -0.0300 -0.2543
  146SAPE    C116051   0.059   4.069  10.654  0.1724  0.2304 -0.0796
  146SAPE    HA16052   0.144   4.015  10.700 -0.6657 -0.0731  1.1756
  146SAPE    HB16053  -0.021   4.011  10.706 -0.4530  2.1182  1.1959
  146SAPE    C216054   0.040   4.057  10.498 -0.2055 -0.2616  0.2677
  146SAPE    HS16055   0.024   3.952  10.466 -0.5764 -0.4210  0.9689
  146SAPE   O2116056   0.149   4.118  10.418 -0.0088 -0.9081 -0.6307
  146SAPE   C2116057   0.275   4.072  10.427  0.1836 -0.4819 -1.2437
  146SAPE   O2216058   0.305   3.959  10.458  0.4731  0.3107  0.4453
  146SAPE   C2216059   0.377   4.175  10.375  0.6713  0.4924 -0.4995
  146SAPE   H2R16060   0.381   4.254  10.453 -0.5971 -0.2198  0.3291
  146SAPE   H2S16061   0.481   4.137  10.367  0.1984 -0.6346 -1.5013
  146SAPE    C316062  -0.102   4.117  10.453  0.2308 -1.0274  0.2674
  146SAPE    HX16063  -0.099   4.223  10.485  2.0900 -1.3472  1.2826
  146SAPE    HY16064  -0.179   4.066  10.515 -1.2108  0.5211 -0.1841
  146SAPE   O3116065  -0.116   4.100  10.314 -0.3614  0.7053  0.4998
  146SAPE   C3116066  -0.104   4.202  10.232 -0.1550  1.2310  0.1456
  146SAPE   O3216067  -0.075   4.314  10.266 -0.5143 -0.6480 -0.2268
  146SAPE   C3216068  -0.126   4.159  10.086  0.3889 -0.3428 -0.3193
  146SAPE   H2X16069  -0.232   4.126  10.084  0.3668 -0.5322  1.7306
  146SAPE   H2Y16070  -0.064   4.068  10.070  1.1780 -0.1166  1.2647
  146SAPE   C2316071   0.329   4.251  10.243 -0.0485  0.5780 -0.4082
  146SAPE   H3R16072   0.390   4.343  10.230 -1.6801  1.6763 -0.5817
  146SAPE   H3S16073   0.226   4.290  10.255 -1.6055 -2.1817 -3.1894
  146SAPE   C2416074   0.313   4.170  10.107 -0.6692 -0.2831 -0.0991
  146SAPE   H4R16075   0.288   4.256  10.041 -1.8376 -1.6136 -1.4632
  146SAPE   H4S16076   0.224   4.104  10.106 -1.7887  1.1525 -0.7799
  146SAPE   C2516077   0.437   4.099  10.077  0.0103  0.3600  0.8738
  146SAPE   H5R16078   0.439   3.994  10.110 -1.5313  0.0952  0.1949
  146SAPE   C2616079   0.536   4.147   9.996  0.0095 -0.1947 -0.1635
  146SAPE   H6R16080   0.621   4.080   9.978 -0.0299 -1.3772  3.3374
  146SAPE   C2716081   0.548   4.285   9.931 -0.8642 -0.0728 -0.5006
  146SAPE   H7R16082   0.514   4.372   9.991  0.8592  0.9716 -0.9513
  146SAPE   H7S16083   0.488   4.274   9.838  0.0244 -1.9965 -0.9071
  146SAPE   C2816084   0.692   4.311   9.893 -0.1316  0.0160 -0.0477
  146SAPE   H8R16085   0.769   4.290   9.968  0.0777 -0.3100 -0.3507
  146SAPE   C2916086   0.730   4.356   9.772 -0.4820  0.6434 -0.6869
  146SAPE   H9R16087   0.839   4.370   9.768 -0.0969 -1.8196 -0.0620
  146SAPE  C21016088   0.651   4.386   9.653 -0.0232  0.1797  0.0858
  146SAPE  H10R16089   0.545   4.398   9.684 -0.1078 -0.0019 -0.1320
  146SAPE  H10S16090   0.666   4.298   9.587 -0.4697 -0.6419  1.0529
  146SAPE  C21116091   0.698   4.517   9.591  0.1831 -0.4255 -0.4042
  146SAPE  H11R16092   0.684   4.602   9.660 -3.8115 -1.4419  0.2769
  146SAPE  C21216093   0.757   4.532   9.470  0.4871  0.3000 -0.0566
  146SAPE  H12R16094   0.782   4.633   9.433 -0.3628  0.5978  0.1589
  146SAPE  C21316095   0.776   4.417   9.377 -0.1702 -0.3943  0.1723
  146SAPE  H13R16096   0.830   4.331   9.422 -0.2847  0.3513  1.8084
  146SAPE  H13S16097   0.859   4.448   9.309 -0.0749 -0.5269  0.2290
  146SAPE  C21416098   0.648   4.390   9.303  0.0180  1.3111  0.1236
  146SAPE  H14R16099   0.574   4.323   9.350 -2.4209  1.5689 -3.0352
  146SAPE  C21516100   0.609   4.421   9.177  0.1451 -0.3205 -0.5982
  146SAPE  H15R16101   0.510   4.384   9.145 -0.5932 -0.5757  1.7544
  146SAPE  C21616102   0.677   4.505   9.078  0.4021 -0.5797 -0.0249
  146SAPE  H16R16103   0.694   4.430   8.998  1.1814  0.5262 -0.9145
  146SAPE  H16S16104   0.772   4.554   9.109  0.2378 -0.5184  0.3901
  146SAPE  C21716105   0.586   4.616   9.021  0.5768 -0.0889  0.5021
  146SAPE  H17R16106   0.567   4.696   9.096  2.4982  1.2180 -0.3036
  146SAPE  H17S16107   0.487   4.574   8.993  1.1536 -0.8536 -0.4472
  146SAPE  C21816108   0.647   4.691   8.904  0.4274 -0.2286  0.3130
  146SAPE  H18R16109   0.748   4.723   8.937 -0.7466  1.8009  2.2274
  146SAPE  H18S16110   0.590   4.785   8.891  0.9969 -0.0910 -1.4858
  146SAPE  C21916111   0.652   4.608   8.781  1.0166  0.0765 -0.2692
  146SAPE  H19R16112   0.555   4.566   8.748  1.2331 -1.9633  1.4583
  146SAPE  H19S16113   0.730   4.533   8.808  2.2842  2.0159  1.8709
  146SAPE  C22016114   0.710   4.694   8.671  0.3581  0.8525  0.3511
  146SAPE  H20R16115   0.727   4.631   8.581  0.6995  2.5010 -0.7849
  146SAPE  H20S16116   0.795   4.756   8.704 -0.5974  2.2842  0.2079
  146SAPE  H20T16117   0.630   4.763   8.637 -1.2594 -1.0332  0.0693
  146SAPE   C3316118  -0.078   4.275   9.988 -0.1681 -0.7165 -0.8045
  146SAPE   H3X16119   0.029   4.292  10.012 -0.4819  2.5973 -1.1934
  146SAPE   H3Y16120  -0.133   4.369  10.011  0.9094 -0.0414 -0.9259
  146SAPE   C3416121  -0.089   4.249   9.840 -0.0234  0.5958 -0.2054
  146SAPE   H4X16122  -0.185   4.207   9.804 -0.0187  1.5915 -1.4441
  146SAPE   H4Y16123  -0.013   4.172   9.813  0.4759  1.2019 -0.5513
  146SAPE   C3516124  -0.074   4.379   9.752 -0.2718 -0.0404 -0.8628
  146SAPE   H5X16125   0.015   4.436   9.789 -0.9890  0.1655  0.6402
  146SAPE   H5Y16126  -0.160   4.444   9.781 -1.1746 -1.9098  0.9125
  146SAPE   C3616127  -0.060   4.344   9.612 -0.4591 -0.6380 -0.3919
  146SAPE   H6X16128  -0.124   4.253   9.600  0.0776 -1.7459  3.6803
  146SAPE   H6Y16129   0.043   4.315   9.586  0.2602 -0.1305  1.7167
  146SAPE   C3716130  -0.100   4.457   9.507  0.8548  0.0389  0.6592
  146SAPE   H7X16131  -0.034   4.546   9.520  0.0121  0.8096 -0.2315
  146SAPE   H7Y16132  -0.205   4.490   9.520  0.3041 -0.6784 -1.5810
  146SAPE   C3816133  -0.099   4.414   9.356  0.2017  0.4477  0.2501
  146SAPE   H8X16134  -0.158   4.321   9.336 -2.4284  1.4698  2.5965
  146SAPE   H8Y16135   0.006   4.397   9.323  0.6309  3.9496 -0.5738
  146SAPE   C3916136  -0.146   4.520   9.261 -0.5204 -0.0416  0.0115
  146SAPE   H9X16137  -0.094   4.616   9.282 -0.8314  0.0434  0.3961
  146SAPE   H9Y16138  -0.255   4.533   9.281 -0.2534  0.4420  1.2491
  146SAPE  C31016139  -0.122   4.501   9.108  1.3085 -0.3849  0.0537
  146SAPE  H10X16140  -0.169   4.403   9.082  1.9385 -0.3844 -1.1210
  146SAPE  H10Y16141  -0.015   4.498   9.079  1.9041  0.3770  1.9960
  146SAPE  C31116142  -0.178   4.629   9.038  0.3472 -0.1179  0.2729
  146SAPE  H11X16143  -0.149   4.722   9.092 -0.4714 -0.0953  0.6889
  146SAPE  H11Y16144  -0.287   4.630   9.059 -0.0884 -1.2050 -1.6887
  146SAPE  C31216145  -0.157   4.622   8.886 -0.2303  0.5057  0.2346
  146SAPE  H12X16146  -0.060   4.662   8.849  0.4128 -1.7162 -0.6028
  146SAPE  H12Y16147  -0.228   4.691   8.836 -1.0505 -0.7734 -0.4183
  146SAPE  C31316148  -0.179   4.482   8.830 -0.1141 -0.1863 -0.6445
  146SAPE  H13X16149  -0.272   4.446   8.878  2.0380 -3.3783  1.5410
  146SAPE  H13Y16150  -0.099   4.407   8.847  0.2677 -0.6215 -3.7408
  146SAPE  C31416151  -0.195   4.473   8.674  0.1404  0.4730 -1.0140
  146SAPE  H14X16152  -0.118   4.530   8.618  1.5195  1.5087  1.7094
  146SAPE  H14Y16153  -0.290   4.524   8.648  0.2975  0.1405 -2.2569
  146SAPE  C31516154  -0.195   4.330   8.621  0.3786  0.2939 -0.0096
  146SAPE  H15X16155  -0.098   4.276   8.632 -1.0009 -2.8394 -1.9206
  146SAPE  H15Y16156  -0.212   4.338   8.512  0.9070  0.9062 -0.0533
  146SAPE  C31616157  -0.298   4.239   8.691  0.8126 -0.3235  0.1799
  146SAPE  H16X16158  -0.267   4.229   8.797  0.0123  0.1709  0.4683
  146SAPE  H16Y16159  -0.284   4.133   8.660 -0.5382 -1.2679  2.5462
  146SAPE  C31716160  -0.446   4.283   8.669 -0.3852  0.3820  0.5846
  146SAPE  H17X16161  -0.491   4.248   8.573  0.8217  0.6425 -0.0873
  146SAPE  H17Y16162  -0.463   4.393   8.670 -0.6898  0.3379  0.4503
  146SAPE  C31816163  -0.535   4.226   8.778 -0.3198 -0.3908 -0.5395
  146SAPE  H18X16164  -0.640   4.234   8.740 -0.2091  2.8343 -0.4912
  146SAPE  H18Y16165  -0.527   4.294   8.865  0.4608 -2.8776  1.4510
  146SAPE  H18Z16166  -0.522   4.120   8.807  2.1860  0.6040  2.4668
  147SAPE     N16167   2.884   4.804  11.155 -0.4733 -0.2369 -0.3124
  147SAPE   HN116168   2.857   4.798  11.255  0.8219  0.5372  0.0998
  147SAPE   HN216169   2.976   4.852  11.151  0.2155 -1.4969 -0.3584
  147SAPE   HN316170   2.816   4.850  11.092 -0.2641  1.2444  0.5122
  147SAPE   C1216171   2.913   4.667  11.095  0.2148  0.0344 -0.1402
  147SAPE  H12A16172   2.823   4.603  11.110  0.9588 -0.5294  2.4964
  147SAPE  H12B16173   3.004   4.629  11.148  0.6079  2.7581  1.3366
  147SAPE   C1116174   2.936   4.677  10.947 -0.8752 -0.3256  0.1143
  147SAPE  H11A16175   2.857   4.732  10.891 -0.8815 -1.5178 -1.1146
  147SAPE  H11B16176   2.947   4.573  10.910 -0.1188  0.6732 -2.7562
  147SAPE     P16177   3.190   4.687  10.904  0.0900 -0.0695 -0.0388
  147SAPE   O1316178   3.296   4.790  10.892  0.1529 -0.1168 -0.2392
  147SAPE   O1416179   3.202   4.594  11.015  0.1973  0.2609 -0.1812
  147SAPE   O1216180   3.053   4.749  10.910 -0.1783  0.4619 -0.5849
  147SAPE   O1116181   3.190   4.604  10.773 -0.4106 -0.1286  0.1046
  147SAPE    C116182   3.101   4.622  10.665  0.0753 -0.5279 -0.1443
  147SAPE    HA16183   3.038   4.533  10.645 -0.6331  0.2657 -1.5452
  147SAPE    HB16184   3.026   4.701  10.680  0.5778 -0.2508  1.0506
  147SAPE    C216185   3.169   4.654  10.536 -0.4672 -0.0221  0.6292
  147SAPE    HS16186   3.259   4.588  10.533  0.3340  0.8188  3.1319
  147SAPE   O2116187   3.210   4.792  10.536  0.0800 -0.3296  0.2872
  147SAPE   C2116188   3.316   4.817  10.473  0.2108  0.6149  1.1127
  147SAPE   O2216189   3.388   4.737  10.413  0.2160 -0.2132  0.8029
  147SAPE   C2216190   3.341   4.965  10.465  0.1479  0.1240  0.2456
  147SAPE   H2R16191   3.244   5.017  10.450 -0.2273 -1.1399 -2.1930
  147SAPE   H2S16192   3.371   4.987  10.570 -3.5562 -1.2486  1.7453
  147SAPE    C316193   3.070   4.635  10.414 -0.3330 -0.2406  0.1703
  147SAPE    HX16194   2.990   4.711  10.429  1.6910  2.5939 -2.1818
  147SAPE    HY16195   3.026   4.533  10.410  1.0570 -0.8643  0.1604
  147SAPE   O3116196   3.139   4.657  10.291 -0.0122  0.5055 -0.4786
  147SAPE   C3116197   3.213   4.557  10.241  0.0719 -0.0796  0.6652
  147SAPE   O3216198   3.228   4.448  10.286 -0.1621  0.0749 -0.0428
  147SAPE   C3216199   3.267   4.609  10.107  0.5559 -0.0044 -0.0221
  147SAPE   H2X16200   3.378   4.609  10.119  0.5182 -1.5111  0.5800
  147SAPE   H2Y16201   3.237   4.716  10.101 -2.4762 -0.8367 -1.1842
  147SAPE   C2316202   3.446   5.020  10.365  0.6340 -0.0387  0.1450
  147SAPE   H3R16203   3.514   4.938  10.334 -0.1793  0.1332 -2.2959
  147SAPE   H3S16204   3.510   5.097  10.412  0.2077  1.1638 -1.1596
  147SAPE   C2416205   3.385   5.106  10.255  0.3263  0.2900  0.7049
  147SAPE   H4R16206   3.331   5.191  10.301 -1.0682  0.5178 -1.2109
  147SAPE   H4S16207   3.298   5.052  10.210 -0.5003 -0.4263  3.0262
  147SAPE   C2516208   3.480   5.158  10.145  0.3334 -0.7361 -0.3632
  147SAPE   H5R16209   3.582   5.119  10.152  0.2272 -1.2014 -1.3344
  147SAPE   C2616210   3.438   5.232  10.038  0.1147  0.1475 -0.0213
  147SAPE   H6R16211   3.513   5.258   9.962  0.5988  1.3494  0.8411
  147SAPE   C2716212   3.296   5.279  10.017  0.3647  0.8664 -0.0596
  147SAPE   H7R16213   3.296   5.382   9.976  0.4579  0.8256 -0.1627
  147SAPE   H7S16214   3.236   5.279  10.111 -3.2817  0.0629 -2.2229
  147SAPE   C2816215   3.231   5.174   9.925  0.1156  0.2111 -0.9796
  147SAPE   H8R16216   3.193   5.084   9.975  1.7585 -1.5247 -2.6865
  147SAPE   C2916217   3.208   5.195   9.798 -0.0299 -0.5442  0.0508
  147SAPE   H9R16218   3.158   5.116   9.741  0.1713 -0.3249 -0.4441
  147SAPE  C21016219   3.235   5.327   9.728  0.3621  0.4500  0.1371
  147SAPE  H10R16220   3.333   5.333   9.677  0.4512  0.5130  0.3170
  147SAPE  H10S16221   3.218   5.411   9.799 -1.2432  0.3767 -0.1114
  147SAPE  C21116222   3.135   5.351   9.612 -0.0342  0.3282  0.2381
  147SAPE  H11R16223   3.032   5.377   9.641 -1.7517 -3.9492 -1.2477
  147SAPE  C21216224   3.154   5.334   9.479  0.0108 -0.1737  0.4281
  147SAPE  H12R16225   3.070   5.353   9.410  0.6587  1.4383  0.0521
  147SAPE  C21316226   3.283   5.314   9.410  0.2744  0.7146 -0.1486
  147SAPE  H13R16227   3.268   5.218   9.356 -3.7003  1.1394 -0.0773
  147SAPE  H13S16228   3.369   5.296   9.479  0.0073 -4.0806 -0.7713
  147SAPE  C21416229   3.313   5.424   9.319  0.8136  0.1555  0.7215
  147SAPE  H14R16230   3.257   5.518   9.333  0.7260  0.2920 -0.4438
  147SAPE  C21516231   3.421   5.427   9.231 -0.1894  0.0819 -0.8362
  147SAPE  H15R16232   3.438   5.508   9.158  1.8220  0.3405 -0.1536
  147SAPE  C21616233   3.522   5.316   9.210 -0.4826 -0.2901 -1.0478
  147SAPE  H16R16234   3.505   5.245   9.293  0.9508 -1.5575 -1.7762
  147SAPE  H16S16235   3.628   5.348   9.222 -0.6680 -0.4038  1.1969
  147SAPE  C21716236   3.503   5.253   9.075 -0.5937  0.9048  0.0691
  147SAPE  H17R16237   3.527   5.318   8.988  1.3728  0.0201 -0.1097
  147SAPE  H17S16238   3.397   5.240   9.047 -0.5506  2.4331 -0.9204
  147SAPE  C21816239   3.592   5.122   9.056  0.2160 -0.1306  0.2044
  147SAPE  H18R16240   3.697   5.134   9.089  0.8942 -0.2989 -1.7418
  147SAPE  H18S16241   3.599   5.088   8.950  0.6514 -4.1796  1.3606
  147SAPE  C21916242   3.510   5.001   9.114 -0.1358  0.3395  0.1877
  147SAPE  H19R16243   3.403   5.011   9.084 -0.8971  2.3465  3.0629
  147SAPE  H19S16244   3.497   5.013   9.224  0.9019 -3.0482  0.7926
  147SAPE  C22016245   3.560   4.856   9.083 -0.1211 -0.5249 -0.1945
  147SAPE  H20R16246   3.512   4.780   9.147 -1.8361  0.7916  0.1489
  147SAPE  H20S16247   3.665   4.854   9.120  0.6397  1.7106 -1.9758
  147SAPE  H20T16248   3.573   4.829   8.976 -0.9145  0.4961 -0.5578
  147SAPE   C3316249   3.226   4.517   9.995  0.5319 -0.6322  0.2886
  147SAPE   H3X16250   3.247   4.412  10.023  1.2680 -0.4370  0.4823
  147SAPE   H3Y16251   3.285   4.534   9.902  2.9593 -5.2502  0.7014
  147SAPE   C3416252   3.077   4.529   9.953 -0.1247  0.6422 -0.2305
  147SAPE   H4X16253   3.048   4.632   9.926 -0.5542  1.0238  1.6345
  147SAPE   H4Y16254   3.010   4.495  10.034 -0.8321  0.9740 -0.6711
  147SAPE   C3516255   3.060   4.453   9.824 -0.5114 -0.9292  1.1634
  147SAPE   H5X16256   3.064   4.342   9.829  0.6801 -1.0735 -1.3145
  147SAPE   H5Y16257   3.142   4.475   9.752 -1.3373 -1.2792  0.1056
  147SAPE   C3616258   2.923   4.478   9.754  0.0800 -0.1131  0.1269
  147SAPE   H6X16259   2.920   4.582   9.716  0.4247  0.5542  1.8653
  147SAPE   H6Y16260   2.847   4.452   9.830  0.3183  1.1091  0.8054
  147SAPE   C3716261   2.905   4.398   9.626 -0.8138 -0.7462  0.2834
  147SAPE   H7X16262   2.801   4.361   9.614 -1.3115 -0.3745  2.8162
  147SAPE   H7Y16263   2.967   4.307   9.638  2.1809  0.9329 -1.3119
  147SAPE   C3816264   2.923   4.462   9.486 -0.1135  1.1077  0.1651
  147SAPE   H8X16265   3.018   4.517   9.473 -0.0176  1.2547  1.3435
  147SAPE   H8Y16266   2.838   4.529   9.461 -0.0353  0.8338 -0.8747
  147SAPE   C3916267   2.924   4.346   9.379  0.1448 -0.1163 -0.2894
  147SAPE   H9X16268   2.825   4.297   9.390 -0.1819  0.5199 -0.3108
  147SAPE   H9Y16269   3.006   4.280   9.416 -0.1885 -0.7034 -0.5932
  147SAPE  C31016270   2.947   4.386   9.240 -0.7029 -0.2302 -0.0428
  147SAPE  H10X16271   3.045   4.438   9.240 -1.5362  1.5124 -2.0232
  147SAPE  H10Y16272   2.865   4.454   9.206  0.4822  1.6192  0.6565
  147SAPE  C31116273   2.969   4.271   9.134 -0.7415 -0.3967 -0.3862
  147SAPE  H11X16274   2.876   4.211   9.132 -0.6978 -0.5089  0.4412
  147SAPE  H11Y16275   3.034   4.201   9.191 -0.1578  0.4491  0.0192
  147SAPE  C31216276   3.013   4.313   8.998  0.4411  0.0530  0.7306
  147SAPE  H12X16277   2.958   4.404   8.968  2.1572  1.7214  2.3337
  147SAPE  H12Y16278   2.995   4.224   8.934  2.0523  0.6622 -0.6500
  147SAPE  C31316279   3.167   4.337   8.984 -0.3883 -0.0722  0.0718
  147SAPE  H13X16280   3.232   4.249   9.002  2.2096  0.9605 -3.1552
  147SAPE  H13Y16281   3.193   4.416   9.059 -1.3139 -1.1089  1.5434
  147SAPE  C31416282   3.200   4.386   8.838 -0.2108  0.1198 -0.6408
  147SAPE  H14X16283   3.309   4.409   8.837 -0.0716 -0.0822  2.0967
  147SAPE  H14Y16284   3.142   4.476   8.808 -1.6596 -0.2947  0.7644
  147SAPE  C31516285   3.178   4.273   8.732 -0.4624 -0.0675  0.4026
  147SAPE  H15X16286   3.179   4.315   8.629  0.2827 -1.1147 -0.0344
  147SAPE  H15Y16287   3.070   4.250   8.745 -0.5062  0.5244  1.1719
  147SAPE  C31616288   3.260   4.144   8.751 -0.5410  0.1232 -0.1967
  147SAPE  H16X16289   3.239   4.087   8.844 -1.4646  2.8264  1.3667
  147SAPE  H16Y16290   3.365   4.181   8.756 -0.6435  0.9093 -2.6109
  147SAPE  C31716291   3.244   4.039   8.636 -0.1555 -0.2774 -0.1686
  147SAPE  H17X16292   3.245   4.097   8.541  0.8724  2.3585  1.3445
  147SAPE  H17Y16293   3.141   3.998   8.631  0.1385 -0.8383 -2.8984
  147SAPE  C31816294   3.350   3.925   8.638 -0.2358 -0.2994  0.4465
  147SAPE  H18X16295   3.435   3.960   8.574  1.7283 -0.5243  2.7863
  147SAPE  H18Y16296   3.308   3.836   8.585 -0.6638  0.3851 -0.3857
  147SAPE  H18Z16297   3.402   3.899   8.733  1.7867 -2.3954 -1.1004
  148SAPE     N16298   4.432   2.042  10.665 -0.1436 -0.0544  0.0109
  148SAPE   HN116299   4.501   2.116  10.688  1.7192 -1.6215 -0.2998
  148SAPE   HN216300   4.377   2.018  10.750 -1.0551  1.2848 -0.1633
  148SAPE   HN316301   4.496   1.964  10.640  1.7582  1.1819  0.7667
  148SAPE   C1216302   4.347   2.091  10.542  0.0924 -0.3764 -0.3851
  148SAPE  H12A16303   4.405   2.084  10.448  3.0117 -1.2289  1.3470
  148SAPE  H12B16304   4.327   2.197  10.568  1.7331 -0.7627  2.9393
  148SAPE   C1116305   4.212   2.018  10.546 -0.2163 -0.0967  0.7930
  148SAPE  H11A16306   4.224   1.908  10.537 -0.2254 -0.0104 -0.3718
  148SAPE  H11B16307   4.160   2.036  10.450  0.9981  0.5904  0.2433
  148SAPE     P16308   3.984   2.076  10.676  0.2964  0.0117  0.4869
  148SAPE   O1316309   3.938   2.006  10.803  0.2516 -0.1908  0.1273
  148SAPE   O1416310   3.959   2.226  10.674  0.1703  0.4169  0.1415
  148SAPE   O1216311   4.139   2.056  10.663 -0.2075  0.2490 -0.1536
  148SAPE   O1116312   3.929   2.006  10.546  0.2145 -0.3806  0.3836
  148SAPE    C116313   3.790   2.004  10.513 -0.6802  0.0260  0.3404
  148SAPE    HA16314   3.773   1.897  10.489  0.1138 -0.5464  2.1456
  148SAPE    HB16315   3.713   2.036  10.587 -1.1640 -1.0943  0.3385
  148SAPE    C216316   3.782   2.100  10.398  0.5046 -0.3433  0.3004
  148SAPE    HS16317   3.808   2.199  10.441  1.2231 -0.2081 -0.4262
  148SAPE   O2116318   3.650   2.097  10.338 -0.3543 -0.0828 -0.1091
  148SAPE   C2116319   3.564   2.186  10.384  0.2879 -0.2714 -0.0880
  148SAPE   O2216320   3.587   2.250  10.485  0.1531  0.0793  0.0644
  148SAPE   C2216321   3.427   2.160  10.321 -0.5255  0.0779  0.2575
  148SAPE   H2R16322   3.444   2.117  10.220  2.0971 -0.0478  0.6792
  148SAPE   H2S16323   3.374   2.099  10.398 -1.6541 -0.1643 -0.6898
  148SAPE    C316324   3.883   2.075  10.286 -0.3043 -0.7097  0.1463
  148SAPE    HX16325   3.984   2.095  10.329 -0.3470  0.1849 -0.1566
  148SAPE    HY16326   3.871   2.144  10.201 -3.1078 -1.1259  0.1282
  148SAPE   O3116327   3.883   1.934  10.239 -0.4437  0.0046 -0.8688
  148SAPE   C3116328   3.926   1.911  10.112  0.4879 -0.9351 -0.5128
  148SAPE   O3216329   3.975   2.000  10.047 -0.6220  0.6888  0.2892
  148SAPE   C3216330   3.912   1.767  10.084  0.0631 -0.2691  0.4565
  148SAPE   H2X16331   3.804   1.743  10.088  0.1766 -0.6632  1.2619
  148SAPE   H2Y16332   3.956   1.713  10.170 -0.6154  1.7048  2.1229
  148SAPE   C2316333   3.346   2.291  10.318 -0.4057  0.1087 -0.0897
  148SAPE   H3R16334   3.324   2.310  10.425 -0.8923 -4.8775  0.9253
  148SAPE   H3S16335   3.241   2.282  10.281  0.1465 -0.6055 -1.5658
  148SAPE   C2416336   3.423   2.410  10.259  0.2059 -0.0474  0.1283
  148SAPE   H4R16337   3.526   2.422  10.300  0.4341  0.4420 -0.5490
  148SAPE   H4S16338   3.375   2.507  10.285  0.0873  0.3539 -1.4688
  148SAPE   C2516339   3.417   2.400  10.111  0.2547  0.0021 -0.6803
  148SAPE   H5R16340   3.319   2.424  10.066 -0.1734 -1.4045 -0.5557
  148SAPE   C2616341   3.515   2.344  10.034  0.5638 -0.3328 -0.0568
  148SAPE   H6R16342   3.504   2.339   9.925 -0.3997  1.2099 -0.0592
  148SAPE   C2716343   3.658   2.302  10.063  0.5652  0.3498  0.3543
  148SAPE   H7R16344   3.650   2.194  10.086 -1.0616  0.2675 -0.4884
  148SAPE   H7S16345   3.694   2.357  10.153 -0.0975  1.3618  0.0185
  148SAPE   C2816346   3.747   2.346   9.952 -0.0071 -0.0520  0.0882
  148SAPE   H8R16347   3.788   2.448   9.958 -1.3510  0.4991  0.1782
  148SAPE   C2916348   3.798   2.259   9.863 -0.2016 -0.5304 -0.0912
  148SAPE   H9R16349   3.852   2.302   9.777  0.2440  0.9459  0.8894
  148SAPE  C21016350   3.779   2.109   9.840 -0.3071  0.1758 -0.4444
  148SAPE  H10R16351   3.716   2.061   9.917 -0.6079 -2.8048 -2.3519
  148SAPE  H10S16352   3.877   2.057   9.849  0.0128  0.4769 -1.8448
  148SAPE  C21116353   3.704   2.083   9.709 -0.0657  0.3664  0.1165
  148SAPE  H11R16354   3.598   2.057   9.720  0.0142 -0.5500 -1.1430
  148SAPE  C21216355   3.756   2.085   9.584  0.0879 -0.1775 -0.1606
  148SAPE  H12R16356   3.680   2.069   9.506  0.1228 -0.5894 -0.1094
  148SAPE  C21316357   3.894   2.122   9.543 -0.5163  0.2532  0.1397
  148SAPE  H13R16358   3.957   2.121   9.634 -0.3556 -1.5953  0.0388
  148SAPE  H13S16359   3.898   2.224   9.499 -0.7578  0.6381  0.9713
  148SAPE  C21416360   3.974   2.028   9.458  0.2195 -0.0525 -0.8409
  148SAPE  H14R16361   3.996   1.934   9.510  0.3631  1.2261  1.5304
  148SAPE  C21516362   4.016   2.046   9.333 -0.4337 -0.0667  0.3990
  148SAPE  H15R16363   4.081   1.968   9.289  2.6877  1.4163  2.0846
  148SAPE  C21616364   4.002   2.175   9.256 -0.0095  0.3255  0.0947
  148SAPE  H16R16365   4.087   2.241   9.284 -0.7546  1.6523 -0.6828
  148SAPE  H16S16366   3.913   2.240   9.273  0.4809  1.5354 -1.6580
  148SAPE  C21716367   4.017   2.161   9.099  0.2072 -0.3527 -0.2036
  148SAPE  H17R16368   3.968   2.252   9.060 -1.4532 -0.6976  0.9393
  148SAPE  H17S16369   3.957   2.078   9.056 -0.1680  1.0024 -2.4156
  148SAPE  C21816370   4.163   2.149   9.048 -0.8738  0.1396  0.0944
  148SAPE  H18R16371   4.215   2.058   9.083  0.3390  0.3390 -1.1200
  148SAPE  H18S16372   4.219   2.239   9.081 -0.5596  0.6032 -1.6399
  148SAPE  C21916373   4.165   2.160   8.896 -0.9806 -0.0253 -0.1108
  148SAPE  H19R16374   4.119   2.259   8.876  2.1714  1.5212 -0.2073
  148SAPE  H19S16375   4.109   2.072   8.857  0.4321 -0.7852 -0.4965
  148SAPE  C22016376   4.308   2.152   8.840  0.7325 -0.2239  0.2487
  148SAPE  H20R16377   4.364   2.237   8.885 -0.0979  0.4091  0.1032
  148SAPE  H20S16378   4.305   2.163   8.729 -2.1696  4.3017  0.5496
  148SAPE  H20T16379   4.363   2.057   8.860  0.8428 -0.6785 -1.9234
  148SAPE   C3316380   3.964   1.729   9.938 -0.1572 -0.0574 -0.4128
  148SAPE   H3X16381   4.073   1.728   9.961 -0.2942 -2.5930  0.3994
  148SAPE   H3Y16382   3.932   1.797   9.856  1.6592  0.4663 -0.7502
  148SAPE   C3416383   3.916   1.586   9.900 -0.1215 -0.1046  0.7202
  148SAPE   H4X16384   3.806   1.576   9.885 -0.0369  0.4924 -0.3973
  148SAPE   H4Y16385   3.937   1.530   9.994  1.0380 -1.0227 -0.0640
  148SAPE   C3516386   3.998   1.519   9.784 -0.3754  0.1949  0.2889
  148SAPE   H5X16387   3.963   1.414   9.771 -0.8345  0.3354  0.3848
  148SAPE   H5Y16388   4.102   1.505   9.820 -0.9641  0.1011  2.0389
  148SAPE   C3616389   3.973   1.585   9.647  0.1137  0.1798 -0.0623
  148SAPE   H6X16390   4.015   1.687   9.660  0.5543 -0.2726  2.5247
  148SAPE   H6Y16391   3.864   1.606   9.639  0.0958  1.5703  2.7086
  148SAPE   C3716392   4.034   1.526   9.521  0.1697  0.2883  0.1898
  148SAPE   H7X16393   4.006   1.418   9.515  0.8627  0.1169 -0.1627
  148SAPE   H7Y16394   4.145   1.532   9.519  0.1105  1.4824  0.2058
  148SAPE   C3816395   3.981   1.586   9.387 -0.2363  0.2437  0.0101
  148SAPE   H8X16396   3.933   1.681   9.420  2.4751  1.6464  0.1925
  148SAPE   H8Y16397   3.905   1.520   9.342  1.2568 -3.8207  2.8362
  148SAPE   C3916398   4.091   1.608   9.282  0.1288  0.2532 -0.7542
  148SAPE   H9X16399   4.166   1.673   9.331  0.0627 -0.1062 -0.1763
  148SAPE   H9Y16400   4.045   1.665   9.198 -0.1882  0.3437 -0.5208
  148SAPE  C31016401   4.140   1.480   9.222 -0.2323  0.6258  0.3985
  148SAPE  H10X16402   4.066   1.412   9.175 -0.1679  1.7555 -1.4736
  148SAPE  H10Y16403   4.188   1.417   9.300  4.7756  0.0605 -2.6567
  148SAPE  C31116404   4.244   1.504   9.110  1.2364 -0.2209  0.1223
  148SAPE  H11X16405   4.330   1.558   9.156  0.0070  1.7409  0.2449
  148SAPE  H11Y16406   4.199   1.564   9.029 -1.5036 -0.7119  1.1824
  148SAPE  C31216407   4.295   1.376   9.038 -0.8384 -0.8551 -0.7945
  148SAPE  H12X16408   4.206   1.326   8.994  0.6366 -2.8611 -1.6712
  148SAPE  H12Y16409   4.339   1.309   9.114  0.9376  2.3989  1.2599
  148SAPE  C31316410   4.388   1.416   8.922 -0.4329  0.1118  0.0107
  148SAPE  H13X16411   4.491   1.430   8.962 -0.7817  3.3471  0.0389
  148SAPE  H13Y16412   4.372   1.521   8.892  1.3251  0.1055 -1.1269
  148SAPE  C31416413   4.380   1.323   8.801 -0.4377  0.5166  0.4067
  148SAPE  H14X16414   4.282   1.326   8.749  0.6657  1.8222 -1.7133
  148SAPE  H14Y16415   4.391   1.217   8.833  1.9674  0.3817 -0.6423
  148SAPE  C31516416   4.478   1.355   8.689 -0.2343 -0.6084  1.3466
  148SAPE  H15X16417   4.581   1.368   8.727 -0.6761  0.0698  2.3408
  148SAPE  H15Y16418   4.454   1.460   8.660  0.3638 -1.0713 -1.0505
  148SAPE  C31616419   4.464   1.269   8.564  0.0298  0.1863  0.6506
  148SAPE  H16X16420   4.370   1.302   8.516 -0.2148 -0.3438  0.7486
  148SAPE  H16Y16421   4.455   1.164   8.601 -0.3208  0.3401  1.0111
  148SAPE  C31716422   4.578   1.273   8.455 -0.4425  0.8498 -0.1921
  148SAPE  H17X16423   4.578   1.172   8.409 -2.3305 -0.1864  1.8462
  148SAPE  H17Y16424   4.681   1.290   8.492  0.1375 -1.0551 -0.8277
  148SAPE  C31816425   4.563   1.391   8.359 -0.4467  0.5707 -0.3014
  148SAPE  H18X16426   4.632   1.365   8.275 -0.0866 -0.9734  0.4355
  148SAPE  H18Y16427   4.583   1.487   8.411  1.3292 -0.3902  0.9025
  148SAPE  H18Z16428   4.461   1.386   8.317 -0.0953 -0.2986 -1.1053
  149SAPE     N16429   5.288   3.838  11.320  0.1517 -0.4422  0.2982
  149SAPE   HN116430   5.191   3.868  11.342 -0.0172 -0.4494 -0.4289
  149SAPE   HN216431   5.324   3.911  11.257 -2.3147  2.3959  1.9032
  149SAPE   HN316432   5.280   3.750  11.266 -1.0596  0.0687 -0.3975
  149SAPE   C1216433   5.373   3.840  11.449  0.3014 -0.4523  0.8551
  149SAPE  H12A16434   5.336   3.752  11.506 -2.0620  0.2643  0.5328
  149SAPE  H12B16435   5.349   3.933  11.505  0.5371  0.6021 -0.7085
  149SAPE   C1116436   5.520   3.836  11.403  0.1804  0.0493  0.1096
  149SAPE  H11A16437   5.572   3.861  11.497 -1.6645 -1.9442  1.7610
  149SAPE  H11B16438   5.535   3.927  11.340  2.5733 -0.3254  0.0711
  149SAPE     P16439   5.707   3.702  11.277 -0.3969 -0.2363 -0.0146
  149SAPE   O1316440   5.812   3.742  11.376  0.2642  0.4863  0.7483
  149SAPE   O1416441   5.725   3.565  11.216  0.0278  0.0272  0.3123
  149SAPE   O1216442   5.568   3.719  11.340 -0.1591  0.4469  0.5593
  149SAPE   O1116443   5.710   3.798  11.162  0.7649 -0.1998  0.0833
  149SAPE    C116444   5.640   3.784  11.035  0.3230  0.2195  0.3505
  149SAPE    HA16445   5.643   3.681  10.994  1.2102  1.0952 -1.9107
  149SAPE    HB16446   5.535   3.820  11.039  0.1259  0.2658 -2.7777
  149SAPE    C216447   5.727   3.865  10.939  0.2058 -0.6377 -0.3124
  149SAPE    HS16448   5.714   3.973  10.958 -1.8548 -0.6074 -1.5647
  149SAPE   O2116449   5.688   3.845  10.799 -0.2807  0.2679  0.0806
  149SAPE   C2116450   5.579   3.908  10.746 -0.8177  0.1284  0.4941
  149SAPE   O2216451   5.507   3.981  10.809  0.1974  0.2628 -0.2691
  149SAPE   C2216452   5.561   3.862  10.598 -0.6674 -0.2813  0.0257
  149SAPE   H2R16453   5.650   3.803  10.568  0.1844  1.6408 -1.4128
  149SAPE   H2S16454   5.465   3.809  10.579 -0.6456 -0.1421 -0.4673
  149SAPE    C316455   5.879   3.835  10.956 -0.1125 -0.2642  0.8876
  149SAPE    HX16456   5.910   3.729  10.948 -1.6041 -0.6006 -1.6571
  149SAPE    HY16457   5.903   3.871  11.058  0.0288 -0.2859  0.8633
  149SAPE   O3116458   5.955   3.923  10.867  0.4631  0.3535  0.1431
  149SAPE   C3116459   5.996   3.864  10.752  0.5050  0.1961 -0.2338
  149SAPE   O3216460   5.988   3.745  10.729 -0.5296  0.1217  0.1879
  149SAPE   C3216461   6.057   3.967  10.658  1.0030  0.0305 -0.3035
  149SAPE   H2X16462   6.161   3.973  10.698  1.3448  0.6041 -1.2389
  149SAPE   H2Y16463   6.015   4.068  10.675 -1.7134 -1.1626  0.6095
  149SAPE   C2316464   5.548   3.983  10.500  0.1152 -0.5567  0.2206
  149SAPE   H3R16465   5.632   4.055  10.503  0.4455 -0.8550 -1.2401
  149SAPE   H3S16466   5.458   4.048  10.506  1.7752  2.2597 -2.4719
  149SAPE   C2416467   5.542   3.949  10.346 -0.5606 -0.0008 -0.6704
  149SAPE   H4R16468   5.615   3.873  10.311 -2.3948 -1.1723 -2.1618
  149SAPE   H4S16469   5.555   4.045  10.293  1.0674  0.2312  0.0813
  149SAPE   C2516470   5.411   3.883  10.311  0.1207 -0.5560 -0.5078
  149SAPE   H5R16471   5.359   3.829  10.392  2.1409  0.4886  1.6002
  149SAPE   C2616472   5.353   3.897  10.189 -0.5889  0.0645 -0.5218
  149SAPE   H6R16473   5.264   3.840  10.157 -0.0048  0.3181 -2.7460
  149SAPE   C2716474   5.413   3.974  10.070 -0.2168  0.5615  0.4666
  149SAPE   H7R16475   5.488   4.052  10.095 -1.5409  1.5468  1.4727
  149SAPE   H7S16476   5.334   4.028  10.014 -0.4222  1.1353  1.2995
  149SAPE   C2816477   5.479   3.870   9.973 -0.3007 -1.0743 -0.0636
  149SAPE   H8R16478   5.549   3.798  10.018  3.0126  0.6402 -2.1215
  149SAPE   C2916479   5.463   3.854   9.838 -0.4177 -0.4655  0.5690
  149SAPE   H9R16480   5.518   3.773   9.787  0.4419  0.4040  0.0900
  149SAPE  C21016481   5.370   3.929   9.751  0.1724  0.3139  0.0882
  149SAPE  H10R16482   5.295   3.981   9.814  2.0745  1.6074  1.4041
  149SAPE  H10S16483   5.320   3.844   9.700 -2.1124  0.8194  1.3565
  149SAPE  C21116484   5.446   4.021   9.661  0.0030 -0.5955  0.1630
  149SAPE  H11R16485   5.512   4.093   9.712 -0.8378 -0.0598  0.5159
  149SAPE  C21216486   5.442   4.033   9.525  0.7890  0.4286 -0.5050
  149SAPE  H12R16487   5.505   4.104   9.469  0.5045  1.3884  0.3772
  149SAPE  C21316488   5.371   3.938   9.436  0.4235 -0.4256  1.0376
  149SAPE  H13R16489   5.348   3.999   9.346  0.8677  0.4270  1.4905
  149SAPE  H13S16490   5.273   3.908   9.479  0.5044 -1.8123  0.3350
  149SAPE  C21416491   5.443   3.808   9.396  0.0833  0.1963  0.0373
  149SAPE  H14R16492   5.429   3.733   9.475 -1.2422  0.6386  0.2549
  149SAPE  C21516493   5.493   3.763   9.280  0.1009  0.4945  0.1360
  149SAPE  H15R16494   5.549   3.668   9.280 -0.7248 -0.0257 -1.3511
  149SAPE  C21616495   5.491   3.837   9.150  0.3623  0.0395 -0.2479
  149SAPE  H16R16496   5.584   3.814   9.094  0.9513  1.1552  0.2453
  149SAPE  H16S16497   5.486   3.945   9.174 -0.8980 -0.5075  2.3181
  149SAPE  C21716498   5.371   3.802   9.056 -0.1628 -0.9222 -0.2649
  149SAPE  H17R16499   5.279   3.819   9.116 -0.3588 -0.4137 -0.7071
  149SAPE  H17S16500   5.368   3.695   9.025 -0.2578 -0.8592 -0.4710
  149SAPE  C21816501   5.382   3.882   8.930  0.4130 -0.5551 -0.5219
  149SAPE  H18R16502   5.489   3.880   8.901  1.1095  0.0987  1.7495
  149SAPE  H18S16503   5.340   3.984   8.945  0.6292 -0.5293 -0.0552
  149SAPE  C21916504   5.307   3.806   8.824 -0.6473  0.5761  0.0593
  149SAPE  H19R16505   5.352   3.706   8.811 -1.6733  0.1550 -0.4019
  149SAPE  H19S16506   5.317   3.863   8.729 -1.4628  1.4473  0.4749
  149SAPE  C22016507   5.153   3.801   8.846 -0.9811  0.4265 -0.8004
  149SAPE  H20R16508   5.094   3.760   8.762 -1.2632  1.7695 -1.2810
  149SAPE  H20S16509   5.107   3.901   8.864 -1.9228  0.1901 -1.7982
  149SAPE  H20T16510   5.131   3.731   8.929 -0.0264  0.7505 -0.2530
  149SAPE   C3316511   6.060   3.932  10.506 -0.9929  0.0391  0.5845
  149SAPE   H3X16512   5.953   3.914  10.484 -1.7997  2.0709  2.4956
  149SAPE   H3Y16513   6.132   3.847  10.501  0.6982  1.2885  2.1344
  149SAPE   C3416514   6.090   4.051  10.425 -0.3082  0.3143  0.6301
  149SAPE   H4X16515   6.185   4.092  10.466  0.1070 -2.0014  2.2017
  149SAPE   H4Y16516   6.018   4.133  10.447  0.2974  0.6332  1.4932
  149SAPE   C3516517   6.127   4.029  10.277  0.2252 -0.5317 -0.1520
  149SAPE   H5X16518   6.191   3.939  10.262  2.0370  0.9081 -1.5390
  149SAPE   H5Y16519   6.182   4.114  10.232 -2.9064  1.0521 -1.2418
  149SAPE   C3616520   6.005   4.005  10.186 -0.0439  0.3162 -0.0542
  149SAPE   H6X16521   5.942   4.096  10.183  0.2591  0.5323 -3.1510
  149SAPE   H6Y16522   5.936   3.923  10.218  0.1545  0.9315  2.1368
  149SAPE   C3716523   6.045   3.977  10.038  0.5484 -0.5674 -0.1543
  149SAPE   H7X16524   6.082   3.872  10.039 -0.4668 -0.9744  2.0855
  149SAPE   H7Y16525   6.127   4.035   9.992  3.0035 -2.6686  1.2704
  149SAPE   C3816526   5.925   3.992   9.937 -0.3355 -0.4702 -0.5361
  149SAPE   H8X16527   5.882   4.094   9.949  2.1885  0.4113  2.0189
  149SAPE   H8Y16528   5.844   3.921   9.965 -1.9054  1.3442 -0.2312
  149SAPE   C3916529   5.978   3.953   9.798 -1.1558 -0.0723  0.3591
  149SAPE   H9X16530   6.006   3.846   9.798  0.8149  0.3959 -0.6739
  149SAPE   H9Y16531   6.073   4.010   9.787 -0.3657 -1.6510 -1.4271
  149SAPE  C31016532   5.884   3.987   9.681 -0.6233  0.3541  0.5564
  149SAPE  H10X16533   5.859   4.092   9.658  0.3626  0.6643  0.8541
  149SAPE  H10Y16534   5.786   3.939   9.703 -0.6881 -0.5967 -1.5767
  149SAPE  C31116535   5.935   3.935   9.548 -0.3073 -0.3909 -0.3331
  149SAPE  H11X16536   5.937   3.824   9.557  3.1138 -0.2879  2.8933
  149SAPE  H11Y16537   6.040   3.970   9.535 -0.3249  0.2871  1.1107
  149SAPE  C31216538   5.854   3.984   9.428  0.5100 -0.6772  0.4795
  149SAPE  H12X16539   5.820   4.090   9.436  1.4748  0.1814 -3.8957
  149SAPE  H12Y16540   5.766   3.919   9.407  1.6240 -1.5791 -1.8400
  149SAPE  C31316541   5.926   3.979   9.289 -0.4402 -0.0990 -0.0900
  149SAPE  H13X16542   5.972   3.880   9.270 -0.7186 -1.5215  5.1665
  149SAPE  H13Y16543   6.015   4.045   9.297  0.3107 -1.0780 -0.3080
  149SAPE  C31416544   5.839   4.017   9.170  0.3991 -0.6986 -0.3185
  149SAPE  H14X16545   5.816   4.125   9.180  1.0036 -0.6263  0.3824
  149SAPE  H14Y16546   5.739   3.967   9.174 -1.0269  1.9256 -1.2440
  149SAPE  C31516547   5.906   3.972   9.041  0.2694 -0.4737 -0.3383
  149SAPE  H15X16548   5.927   3.863   9.047 -0.5609 -0.7063 -1.2880
  149SAPE  H15Y16549   6.007   4.013   9.020 -1.0336  3.1495 -0.1877
  149SAPE  C31616550   5.819   3.997   8.922 -1.1909 -0.5214 -0.3594
  149SAPE  H16X16551   5.709   3.990   8.933 -1.0278 -1.2304  1.1772
  149SAPE  H16Y16552   5.846   3.916   8.850  1.4250 -0.8864  0.9159
  149SAPE  C31716553   5.848   4.129   8.844 -0.8308 -0.1591 -0.5056
  149SAPE  H17X16554   5.957   4.136   8.828 -0.7755  0.3306  0.0398
  149SAPE  H17Y16555   5.831   4.220   8.907  4.4982 -0.3874  1.8114
  149SAPE  C31816556   5.767   4.137   8.711  0.2804 -0.7761 -0.2031
  149SAPE  H18X16557   5.806   4.209   8.636  0.9284 -0.7054  0.1925
  149SAPE  H18Y16558   5.665   4.173   8.738 -0.4577 -0.5977 -2.9608
  149SAPE  H18Z16559   5.767   4.041   8.655  0.7963  0.2354 -2.0156
  150SAPE     N16560   0.653   3.545  11.345 -0.5580 -0.2725 -0.0455
  150SAPE   HN116561   0.604   3.453  11.341  1.4232 -1.6025  2.5930
  150SAPE   HN216562   0.670   3.570  11.445  2.8020 -2.3596  0.0651
  150SAPE   HN316563   0.593   3.621  11.307  0.4856  0.9856  0.7219
  150SAPE   C1216564   0.794   3.546  11.282 -0.3975 -0.4998  0.6166
  150SAPE  H12A16565   0.859   3.466  11.324  0.8921 -0.8217 -1.7885
  150SAPE  H12B16566   0.843   3.640  11.316 -0.3709 -0.4698  0.4966
  150SAPE   C1116567   0.787   3.546  11.129  0.4262 -0.8927  0.3542
  150SAPE  H11A16568   0.745   3.449  11.097  0.4940 -0.5115 -0.9779
  150SAPE  H11B16569   0.892   3.560  11.096 -0.4158  0.6546 -1.9731
  150SAPE     P16570   0.762   3.798  11.040 -0.1806 -0.5546  0.0565
  150SAPE   O1316571   0.643   3.882  11.007 -0.5852 -0.0462 -0.2888
  150SAPE   O1416572   0.855   3.849  11.150  0.4383  0.2523 -0.5672
  150SAPE   O1216573   0.701   3.663  11.086  0.9225  0.2488 -0.6338
  150SAPE   O1116574   0.840   3.765  10.907 -0.1558  0.2834 -0.6924
  150SAPE    C116575   0.783   3.686  10.807 -0.3686  0.0090  0.2608
  150SAPE    HA16576   0.793   3.577  10.824 -1.7221 -0.0629  0.7268
  150SAPE    HB16577   0.673   3.699  10.807 -0.4520 -0.6792 -0.4596
  150SAPE    C216578   0.826   3.723  10.670 -0.1532  0.2746 -0.0202
  150SAPE    HS16579   0.773   3.662  10.593  2.5980 -1.8349 -0.4273
  150SAPE   O2116580   0.970   3.699  10.659 -0.5698  0.1379 -0.1277
  150SAPE   C2116581   1.006   3.654  10.531  0.1280 -0.3185 -0.1225
  150SAPE   O2216582   0.926   3.633  10.443 -0.4813  0.1861  0.2220
  150SAPE   C2216583   1.165   3.637  10.527  0.6013 -0.3366  0.5523
  150SAPE   H2R16584   1.210   3.738  10.519 -3.5665  1.6971  0.1463
  150SAPE   H2S16585   1.189   3.596  10.627  1.7649  0.4186  0.5967
  150SAPE    C316586   0.797   3.878  10.642  0.0362  0.4481 -0.0636
  150SAPE    HX16587   0.821   3.935  10.734  0.7923 -1.9011  1.2973
  150SAPE    HY16588   0.687   3.891  10.629 -0.5515 -1.7417  1.8380
  150SAPE   O3116589   0.878   3.917  10.534 -0.3206 -0.0533 -0.1749
  150SAPE   C3116590   0.850   4.035  10.479  0.0397 -0.2037 -0.6041
  150SAPE   O3216591   0.759   4.103  10.516  0.0427  0.0879  0.3004
  150SAPE   C3216592   0.947   4.071  10.377 -0.9623  0.2436  0.0754
  150SAPE   H2X16593   0.992   3.976  10.340 -0.0976  0.6796 -0.0118
  150SAPE   H2Y16594   1.023   4.137  10.423  0.1177 -0.5617 -0.5014
  150SAPE   C2316595   1.233   3.544  10.424  0.6134  0.1514  0.8568
  150SAPE   H3R16596   1.181   3.446  10.435  1.9586 -0.6946  0.0712
  150SAPE   H3S16597   1.341   3.523  10.440  0.3933 -1.7400  0.1875
  150SAPE   C2416598   1.204   3.607  10.279 -0.8575  0.6455 -0.7726
  150SAPE   H4R16599   1.100   3.637  10.256 -1.4354 -0.5577  0.1519
  150SAPE   H4S16600   1.217   3.518  10.213  1.5234  1.6004 -1.6938
  150SAPE   C2516601   1.305   3.710  10.250  0.5122 -0.7842  0.5432
  150SAPE   H5R16602   1.341   3.773  10.333  3.0890  0.5513 -1.4509
  150SAPE   C2616603   1.337   3.750  10.125  0.6487 -0.5131  0.2898
  150SAPE   H6R16604   1.407   3.832  10.100  0.1492  0.3402  1.5925
  150SAPE   C2716605   1.289   3.682   9.997  0.3034  0.4297  0.5306
  150SAPE   H7R16606   1.205   3.745   9.960  0.8156  0.5080 -0.5395
  150SAPE   H7S16607   1.235   3.586  10.011  0.2080  0.4050 -0.0102
  150SAPE   C2816608   1.380   3.671   9.880  0.3426 -0.3786 -0.6328
  150SAPE   H8R16609   1.489   3.684   9.889  0.4020  0.3205 -2.0579
  150SAPE   C2916610   1.339   3.626   9.755 -0.2729 -0.3866 -0.4561
  150SAPE   H9R16611   1.412   3.629   9.673 -0.3538  0.5763 -0.4973
  150SAPE  C21016612   1.204   3.574   9.718  1.1960 -0.0746  0.0094
  150SAPE  H10R16613   1.164   3.517   9.804  1.0558  0.7705  0.5187
  150SAPE  H10S16614   1.219   3.511   9.628  1.6095  1.3137 -0.9296
  150SAPE  C21116615   1.113   3.686   9.678 -0.1650  0.3111  0.1120
  150SAPE  H11R16616   1.033   3.715   9.747 -0.7787  1.9517 -1.2237
  150SAPE  C21216617   1.127   3.768   9.565  0.2583  0.6764 -0.1817
  150SAPE  H12R16618   1.063   3.856   9.552  0.9146  1.0653 -0.8899
  150SAPE  C21316619   1.228   3.763   9.455 -0.1444  0.4457 -0.3319
  150SAPE  H13R16620   1.182   3.803   9.362  1.1104  1.0131 -0.7313
  150SAPE  H13S16621   1.247   3.656   9.432  0.1223  0.2213  0.8760
  150SAPE  C21416622   1.360   3.836   9.465  1.2075  0.7405  0.0008
  150SAPE  H14R16623   1.412   3.840   9.561  1.7592  2.7226 -0.3262
  150SAPE  C21516624   1.426   3.878   9.355  0.1359 -0.1252  0.6826
  150SAPE  H15R16625   1.529   3.917   9.368  1.3335 -1.8378 -2.6576
  150SAPE  C21616626   1.400   3.876   9.206  0.0585 -0.1978  0.1893
  150SAPE  H16R16627   1.293   3.902   9.198 -0.0447 -0.5138  0.5398
  150SAPE  H16S16628   1.417   3.778   9.157  1.4915  1.0994 -2.1348
  150SAPE  C21716629   1.473   3.976   9.108  0.2184 -0.1514  0.3939
  150SAPE  H17R16630   1.441   4.077   9.139 -1.0556 -1.1292  2.5264
  150SAPE  H17S16631   1.427   3.958   9.008 -1.9532 -3.3844  1.8104
  150SAPE  C21816632   1.630   3.966   9.095 -0.0668  0.0034 -0.3592
  150SAPE  H18R16633   1.668   3.870   9.053  0.2984  0.2960 -0.7060
  150SAPE  H18S16634   1.676   3.971   9.196 -1.5357  0.5399  0.3127
  150SAPE  C21916635   1.688   4.079   9.007  0.0438  0.7249  0.2532
  150SAPE  H19R16636   1.798   4.096   9.015 -0.1557  1.2986  2.3054
  150SAPE  H19S16637   1.641   4.175   9.039 -1.5704 -0.5677  1.9286
  150SAPE  C22016638   1.648   4.055   8.861 -0.2290  0.3832 -0.7484
  150SAPE  H20R16639   1.693   4.129   8.792 -0.2292  1.7844  0.7058
  150SAPE  H20S16640   1.538   4.047   8.846 -0.0519  2.6363 -4.6400
  150SAPE  H20T16641   1.686   3.955   8.831  1.1167  0.7445 -0.2886
  150SAPE   C3316642   0.881   4.142  10.254  0.2230 -0.1363  0.2946
  150SAPE   H3X16643   0.887   4.250  10.279  0.0677 -0.2586  0.8775
  150SAPE   H3Y16644   0.777   4.111  10.231  0.7256 -1.9519  0.3460
  150SAPE   C3416645   0.968   4.134  10.136  0.0013 -0.1021  0.7526
  150SAPE   H4X16646   1.074   4.130  10.169 -0.2221 -2.0919  1.3994
  150SAPE   H4Y16647   0.954   4.225  10.074  0.2769  0.3045  1.2803
  150SAPE   C3516648   0.923   4.011  10.054 -0.1786 -0.5147  0.6377
  150SAPE   H5X16649   0.812   4.009  10.045 -0.1356  1.1286 -0.6503
  150SAPE   H5Y16650   0.970   3.923  10.103 -0.1780 -0.4117  0.8205
  150SAPE   C3616651   0.980   4.030   9.905  0.9919 -0.2807  0.3311
  150SAPE   H6X16652   0.903   4.084   9.844  0.7834 -2.4563 -1.4633
  150SAPE   H6Y16653   0.985   3.929   9.860  0.7559 -0.8397  1.5267
  150SAPE   C3716654   1.116   4.100   9.898 -0.0427 -0.2148  0.0974
  150SAPE   H7X16655   1.190   4.057   9.969  0.7236  0.8537 -0.0294
  150SAPE   H7Y16656   1.099   4.206   9.927 -0.8777 -0.3870  0.2478
  150SAPE   C3816657   1.182   4.110   9.765 -0.5415 -0.0625 -0.1047
  150SAPE   H8X16658   1.192   4.012   9.713 -2.5367 -0.0928 -0.5319
  150SAPE   H8Y16659   1.282   4.155   9.779 -0.4854  0.1034 -1.0072
  150SAPE   C3916660   1.114   4.199   9.664 -0.0478 -0.1159  1.5573
  150SAPE   H9X16661   1.097   4.301   9.703 -1.2920 -0.5295  2.1417
  150SAPE   H9Y16662   1.011   4.163   9.644 -0.2764  1.2238  0.1988
  150SAPE  C31016663   1.196   4.198   9.537  0.1088  0.5374  0.3219
  150SAPE  H10X16664   1.173   4.098   9.494  0.8005 -0.5490  2.3544
  150SAPE  H10Y16665   1.304   4.198   9.563  0.7289 -1.7783 -1.8788
  150SAPE  C31116666   1.146   4.289   9.422  0.6182  0.6635  0.5011
  150SAPE  H11X16667   1.164   4.395   9.450 -1.3724  0.9508  0.8844
  150SAPE  H11Y16668   1.037   4.268   9.413  0.3083  1.7157  1.5337
  150SAPE  C31216669   1.216   4.246   9.289  0.0639 -0.0514  1.3391
  150SAPE  H12X16670   1.211   4.138   9.266 -0.2423  0.1540  0.3828
  150SAPE  H12Y16671   1.325   4.264   9.294  0.4118 -0.5379 -2.1021
  150SAPE  C31316672   1.155   4.316   9.171  0.3463 -0.3076  0.1036
  150SAPE  H13X16673   1.157   4.424   9.194 -1.6470  0.0842 -1.2191
  150SAPE  H13Y16674   1.045   4.301   9.167 -0.0898  2.1954  1.2113
  150SAPE  C31416675   1.218   4.295   9.036 -0.6030 -0.0675  0.7750
  150SAPE  H14X16676   1.249   4.189   9.023  0.6894  0.1752  1.6327
  150SAPE  H14Y16677   1.317   4.344   9.020 -0.9219 -0.3479 -2.7088
  150SAPE  C31516678   1.140   4.332   8.912  0.7466 -0.3184  0.4629
  150SAPE  H15X16679   1.083   4.246   8.871 -1.9669  1.5999 -0.1116
  150SAPE  H15Y16680   1.209   4.360   8.830  0.2333 -1.3570 -0.3424
  150SAPE  C31616681   1.033   4.455   8.931 -0.1924  0.6867  0.3247
  150SAPE  H16X16682   0.998   4.456   9.037  2.0208 -1.7565  1.1751
  150SAPE  H16Y16683   0.952   4.449   8.856 -0.2023  2.7106  0.1011
  150SAPE  C31716684   1.101   4.583   8.912 -0.1900 -0.0361 -0.0611
  150SAPE  H17X16685   1.203   4.593   8.955 -0.1819  0.5285 -0.2044
  150SAPE  H17Y16686   1.035   4.659   8.958  0.1494 -0.3228  0.9427
  150SAPE  C31816687   1.120   4.623   8.764 -0.3234  0.5053  0.4632
  150SAPE  H18X16688   1.214   4.582   8.721 -0.3347  0.2800  0.6541
  150SAPE  H18Y16689   1.131   4.732   8.744 -0.3884  0.3796 -0.2755
  150SAPE  H18Z16690   1.033   4.591   8.703 -0.5819  0.9108  0.6138
  151SAPE     N16691   5.877   1.038  10.466  0.0273  0.5731  0.3610
  151SAPE   HN116692   5.783   1.080  10.476  0.2261  1.4300 -1.1468
  151SAPE   HN216693   5.951   1.111  10.473  0.4714  0.1193  0.4988
  151SAPE   HN316694   5.883   0.993  10.372 -1.9822  0.8172  0.0804
  151SAPE   C1216695   5.894   0.938  10.568 -1.1337  0.2908 -0.0524
  151SAPE  H12A16696   5.808   0.869  10.576 -0.4500 -0.5918 -0.1202
  151SAPE  H12B16697   5.908   0.993  10.664 -1.6882  1.5820 -0.6958
  151SAPE   C1116698   6.023   0.861  10.538 -0.2606  0.4695  0.0114
  151SAPE  H11A16699   6.024   0.797  10.447 -0.2376  0.1250  0.2503
  151SAPE  H11B16700   6.025   0.783  10.618 -0.6524  1.6772  1.2335
  151SAPE     P16701   6.275   0.890  10.554 -0.0761  0.0700 -0.5479
  151SAPE   O1316702   6.342   0.951  10.680  0.5730  0.4883  0.6681
  151SAPE   O1416703   6.267   0.743  10.548  0.0961  0.1818  0.5646
  151SAPE   O1216704   6.136   0.947  10.535 -0.4860 -0.0152 -0.5165
  151SAPE   O1116705   6.364   0.934  10.432 -0.3476  0.1386  0.3082
  151SAPE    C116706   6.319   1.023  10.324  0.7800  0.0806 -0.7743
  151SAPE    HA16707   6.269   1.112  10.366 -1.4470 -0.7662 -1.4961
  151SAPE    HB16708   6.406   1.060  10.265  0.2336  0.9560 -1.0458
  151SAPE    C216709   6.220   0.955  10.228 -0.0773  0.0972  0.3128
  151SAPE    HS16710   6.133   0.935  10.293 -0.7370  0.2375 -0.5094
  151SAPE   O2116711   6.271   0.824  10.193 -0.7428  0.3100  0.0148
  151SAPE   C2116712   6.202   0.745  10.127 -0.0177 -0.4535 -0.4476
  151SAPE   O2216713   6.081   0.744  10.120  0.1887  0.1883  0.0656
  151SAPE   C2216714   6.288   0.644  10.061 -0.2159  0.0006  0.5783
  151SAPE   H2R16715   6.336   0.705   9.981 -2.3172  0.2060 -0.5833
  151SAPE   H2S16716   6.368   0.602  10.126  0.4361 -0.5616 -0.5571
  151SAPE    C316717   6.187   1.039  10.109  0.1303  0.3537 -0.3146
  151SAPE    HX16718   6.151   1.134  10.152  2.0684  0.5133  1.1069
  151SAPE    HY16719   6.094   1.002  10.060  0.0902  0.0301  0.0016
  151SAPE   O3116720   6.302   1.057  10.022  0.7721 -0.0767  0.2478
  151SAPE   C3116721   6.288   1.000   9.903  0.7651  0.0979 -0.3198
  151SAPE   O3216722   6.194   0.942   9.865  0.7818 -0.1549  0.1967
  151SAPE   C3216723   6.419   1.012   9.827 -0.3382 -0.2275 -0.8779
  151SAPE   H2X16724   6.492   1.046   9.903  0.7717  0.0895 -2.0472
  151SAPE   H2Y16725   6.403   1.079   9.740 -0.1100 -2.3173 -2.5993
  151SAPE   C2316726   6.201   0.525  10.006  0.1566  1.0172  0.4762
  151SAPE   H3R16727   6.143   0.574   9.925 -0.0975 -0.6162 -0.3703
  151SAPE   H3S16728   6.125   0.484  10.075 -0.4110  1.0663 -0.1133
  151SAPE   C2416729   6.287   0.409   9.948  0.2078 -0.0336  0.4089
  151SAPE   H4R16730   6.215   0.327   9.926 -1.9717  1.9388 -0.1088
  151SAPE   H4S16731   6.348   0.373  10.033  0.3489  0.5725  0.5703
  151SAPE   C2516732   6.368   0.450   9.832 -0.4709  0.3002  0.7135
  151SAPE   H5R16733   6.456   0.512   9.858 -0.6617  1.4503 -1.2174
  151SAPE   C2616734   6.368   0.398   9.708 -0.3655 -0.0462 -0.5905
  151SAPE   H6R16735   6.427   0.433   9.622 -1.7489  3.9486 -0.1330
  151SAPE   C2716736   6.264   0.294   9.667  0.1718  0.4862 -0.3855
  151SAPE   H7R16737   6.234   0.311   9.561 -0.0044 -4.2809 -1.3446
  151SAPE   H7S16738   6.164   0.310   9.714 -2.0641 -2.2178 -3.6737
  151SAPE   C2816739   6.307   0.147   9.688  0.4830 -0.1803  0.5297
  151SAPE   H8R16740   6.335   0.120   9.790 -0.9061 -1.4362  0.6087
  151SAPE   C2916741   6.331   0.057   9.589 -0.4575  0.4354  0.1458
  151SAPE   H9R16742   6.362  -0.047   9.605  1.0604  0.7665 -0.5017
  151SAPE  C21016743   6.306   0.081   9.445 -0.2700  0.4389  0.0496
  151SAPE  H10R16744   6.206   0.129   9.444 -0.8166 -0.6145  1.1143
  151SAPE  H10S16745   6.287  -0.017   9.398  2.0030  0.8018 -1.8118
  151SAPE  C21116746   6.408   0.159   9.365 -0.8208  0.0296 -0.3489
  151SAPE  H11R16747   6.413   0.263   9.400  1.0954 -0.6011  1.4970
  151SAPE  C21216748   6.499   0.108   9.280  0.0562  0.6937  0.3927
  151SAPE  H12R16749   6.576   0.171   9.232  1.3362 -0.3884  0.9529
  151SAPE  C21316750   6.519  -0.033   9.248  0.0238  0.5474 -0.2701
  151SAPE  H13R16751   6.523  -0.098   9.338 -1.4387 -2.2794 -2.0423
  151SAPE  H13S16752   6.613  -0.057   9.195  0.8331  0.1596  1.2977
  151SAPE  C21416753   6.399  -0.080   9.163  0.5106 -0.3419 -0.5135
  151SAPE  H14R16754   6.314  -0.126   9.215  0.5837  1.4226  1.2423
  151SAPE  C21516755   6.395  -0.069   9.025  0.1052 -0.0481 -0.8967
  151SAPE  H15R16756   6.313  -0.116   8.969  0.3456 -0.9069 -0.5411
  151SAPE  C21616757   6.498  -0.010   8.932 -0.1818 -0.0625  0.5044
  151SAPE  H16R16758   6.589   0.034   8.979  0.7878  0.7937 -2.0190
  151SAPE  H16S16759   6.466   0.065   8.857 -1.7740 -1.5876 -0.4078
  151SAPE  C21716760   6.568  -0.124   8.852  0.4507 -0.5571  0.1928
  151SAPE  H17R16761   6.497  -0.178   8.785  0.5120 -0.8532  0.3659
  151SAPE  H17S16762   6.613  -0.200   8.920  2.6378 -0.6882 -1.2880
  151SAPE  C21816763   6.684  -0.074   8.759 -0.1203 -0.2811 -0.6094
  151SAPE  H18R16764   6.734  -0.162   8.713  0.0540 -0.6503  0.2746
  151SAPE  H18S16765   6.757  -0.031   8.831 -0.7719 -0.1366 -0.0282
  151SAPE  C21916766   6.647   0.033   8.655  0.3449 -0.0065  0.0639
  151SAPE  H19R16767   6.741   0.077   8.616  0.6001  1.3788  2.1086
  151SAPE  H19S16768   6.592   0.117   8.703 -1.9746 -0.3840 -1.7448
  151SAPE  C22016769   6.566  -0.021   8.538  0.3064  0.1847 -0.1475
  151SAPE  H20R16770   6.624  -0.103   8.491 -0.8690  0.4016 -2.0723
  151SAPE  H20S16771   6.555   0.059   8.462 -1.4857  0.5264  0.4186
  151SAPE  H20T16772   6.470  -0.055   8.581  1.9872 -1.3380  2.7377
  151SAPE   C3316773   6.483   0.878   9.776 -0.3112  0.4889 -0.4151
  151SAPE   H3X16774   6.490   0.801   9.856  0.1058 -0.3601 -1.2526
  151SAPE   H3Y16775   6.590   0.897   9.755 -0.1235 -0.8133 -0.7040
  151SAPE   C3416776   6.412   0.827   9.647 -0.2388 -0.8729 -0.4332
  151SAPE   H4X16777   6.396   0.914   9.580 -0.5687 -2.9662 -3.2441
  151SAPE   H4Y16778   6.312   0.789   9.676  0.8302 -1.5772  2.6763
  151SAPE   C3516779   6.491   0.738   9.562 -0.2639 -0.4583 -0.4791
  151SAPE   H5X16780   6.493   0.638   9.612  4.1541 -0.6746 -0.7170
  151SAPE   H5Y16781   6.595   0.773   9.550 -0.3495 -0.1676 -0.3786
  151SAPE   C3616782   6.423   0.717   9.425  0.0968  0.7703  0.2148
  151SAPE   H6X16783   6.400   0.805   9.362 -0.2628  1.2762  1.0311
  151SAPE   H6Y16784   6.322   0.680   9.454 -0.0016  2.4103  2.2176
  151SAPE   C3716785   6.498   0.611   9.347  0.3972  0.2402  0.0239
  151SAPE   H7X16786   6.536   0.521   9.401 -1.1727  0.7675  2.1187
  151SAPE   H7Y16787   6.585   0.668   9.307 -1.5730  2.5554 -1.1994
  151SAPE   C3816788   6.417   0.567   9.230  0.2392 -0.2121  0.7396
  151SAPE   H8X16789   6.378   0.660   9.183  1.1790  0.6467  1.6364
  151SAPE   H8Y16790   6.331   0.508   9.268  0.5973  0.1512  2.1480
  151SAPE   C3916791   6.494   0.487   9.125 -0.1632 -0.0237 -0.0462
  151SAPE   H9X16792   6.510   0.394   9.185  0.5504 -0.9864 -1.6498
  151SAPE   H9Y16793   6.594   0.523   9.093 -0.5954  1.4507  0.2320
  151SAPE  C31016794   6.422   0.444   8.997 -0.3168  0.6247 -1.1366
  151SAPE  H10X16795   6.313   0.464   8.998  0.0222  2.7840 -1.4348
  151SAPE  H10Y16796   6.449   0.337   8.982  1.4467  0.3645  2.7872
  151SAPE  C31116797   6.477   0.520   8.877  0.2173  0.5039  0.1371
  151SAPE  H11X16798   6.442   0.467   8.786  0.9322  0.9435 -0.4106
  151SAPE  H11Y16799   6.589   0.521   8.876  0.2372 -0.3424  0.8302
  151SAPE  C31216800   6.433   0.661   8.864 -0.5341  0.1562  0.0352
  151SAPE  H12X16801   6.509   0.711   8.799 -0.6841 -0.9766 -1.0351
  151SAPE  H12Y16802   6.441   0.725   8.955  1.2762 -0.2102  0.1661
  151SAPE  C31316803   6.287   0.688   8.818  0.0475 -0.4472 -0.2635
  151SAPE  H13X16804   6.211   0.623   8.867  1.2541 -1.6316  0.0938
  151SAPE  H13Y16805   6.282   0.659   8.711  2.4801  0.4142 -0.6825
  151SAPE  C31416806   6.235   0.832   8.846 -0.3165  0.4395 -0.0733
  151SAPE  H14X16807   6.300   0.907   8.797 -0.4816 -1.1451 -2.9512
  151SAPE  H14Y16808   6.258   0.847   8.953  1.5085  0.7033 -0.4648
  151SAPE  C31516809   6.091   0.845   8.823  0.4537 -0.7104 -0.3790
  151SAPE  H15X16810   6.044   0.921   8.889  0.3979 -0.4960 -0.6654
  151SAPE  H15Y16811   6.049   0.748   8.858 -0.9913  0.2552  0.6850
  151SAPE  C31616812   6.048   0.858   8.680  0.1573  0.0042 -0.6347
  151SAPE  H16X16813   5.940   0.832   8.673  0.0121  0.7208 -1.1131
  151SAPE  H16Y16814   6.093   0.788   8.607  3.8519  1.3508  0.1414
  151SAPE  C31716815   6.057   1.000   8.634  0.3923  0.2693 -0.1096
  151SAPE  H17X16816   6.156   1.048   8.642  0.4933  0.2642 -1.1213
  151SAPE  H17Y16817   5.994   1.064   8.700 -0.5668 -1.8600  1.1415
  151SAPE  C31816818   5.995   1.012   8.492 -0.1739 -0.9440  0.2153
  151SAPE  H18X16819   6.050   0.954   8.415  1.0007 -1.9484  1.7363
  151SAPE  H18Y16820   5.981   1.115   8.451  0.2028 -0.6793  0.7387
  151SAPE  H18Z16821   5.891   0.974   8.498 -0.3538 -0.6074 -0.6339
  152SAPE     N16822   1.142   0.391  11.004 -0.0589  0.1813  0.1946
  152SAPE   HN116823   1.220   0.443  10.959  0.0012 -1.8279 -2.3088
  152SAPE   HN216824   1.078   0.458  11.051 -0.2207 -0.1366  0.4306
  152SAPE   HN316825   1.191   0.327  11.070  3.1426  0.5123 -1.6676
  152SAPE   C1216826   1.070   0.317  10.893 -1.2352 -0.7580 -0.4441
  152SAPE  H12A16827   1.124   0.223  10.870  2.0670  0.0235  3.1361
  152SAPE  H12B16828   1.078   0.385  10.805  2.2766 -1.1457 -0.5427
  152SAPE   C1116829   0.917   0.308  10.919 -0.1217 -1.1932 -0.0254
  152SAPE  H11A16830   0.879   0.411  10.937  1.7244 -0.3926 -0.4581
  152SAPE  H11B16831   0.889   0.242  11.004  0.6581  0.3623  1.4949
  152SAPE     P16832   0.702   0.271  10.757 -0.4189 -0.2388  0.0271
  152SAPE   O1316833   0.664   0.181  10.654 -0.7545  0.6377  0.5840
  152SAPE   O1416834   0.617   0.253  10.878 -0.2204  0.0824 -0.2785
  152SAPE   O1216835   0.855   0.244  10.803 -0.3854  0.0436  0.3002
  152SAPE   O1116836   0.705   0.417  10.697  0.1087  0.0724  0.3741
  152SAPE    C116837   0.816   0.442  10.611  0.5833  0.0179 -0.1960
  152SAPE    HA16838   0.826   0.552  10.613  0.2795  0.0491  2.3602
  152SAPE    HB16839   0.917   0.409  10.643 -0.0579  0.1561  2.1188
  152SAPE    C216840   0.803   0.392  10.460  0.3390 -0.9153 -0.2821
  152SAPE    HS16841   0.836   0.289  10.437 -3.7441 -1.8220 -3.1936
  152SAPE   O2116842   0.875   0.489  10.382 -0.5263 -0.4997 -0.1595
  152SAPE   C2116843   0.920   0.449  10.266  0.6403  0.0674 -0.6003
  152SAPE   O2216844   0.918   0.340  10.223 -0.3628 -0.5420 -0.0133
  152SAPE   C2216845   0.960   0.578  10.190 -0.2468 -0.1884 -0.0651
  152SAPE   H2R16846   0.867   0.637  10.203 -2.1186 -2.6500 -1.3308
  152SAPE   H2S16847   1.037   0.639  10.242 -0.5052  1.5254 -1.6221
  152SAPE    C316848   0.654   0.394  10.417 -0.1401 -0.0592 -0.5814
  152SAPE    HX16849   0.627   0.501  10.429  0.9834  0.1541  0.1382
  152SAPE    HY16850   0.601   0.334  10.495  0.1973 -1.1874 -1.1949
  152SAPE   O3116851   0.642   0.333  10.284  1.4189  0.1311  0.0785
  152SAPE   C3116852   0.524   0.366  10.232  0.5087  1.0609  0.1782
  152SAPE   O3216853   0.439   0.442  10.280  0.2985 -0.3311  0.5189
  152SAPE   C3216854   0.503   0.293  10.102  0.7869  0.5700 -0.6275
  152SAPE   H2X16855   0.514   0.183  10.117  0.2771  0.5272 -0.5611
  152SAPE   H2Y16856   0.583   0.326  10.032  0.0813  0.9643 -1.2651
  152SAPE   C2316857   0.972   0.576  10.037 -0.0739  0.1290 -0.1095
  152SAPE   H3R16858   1.040   0.493  10.011 -1.6033 -1.7668  1.6506
  152SAPE   H3S16859   1.008   0.677  10.005 -0.3559  1.2954  2.9172
  152SAPE   C2416860   0.836   0.550   9.965  0.1522 -0.4894 -0.5868
  152SAPE   H4R16861   0.784   0.455   9.991  2.4819 -2.0120 -1.1538
  152SAPE   H4S16862   0.877   0.529   9.864  3.8006  1.9850  0.1818
  152SAPE   C2516863   0.740   0.669   9.960 -0.0998 -0.5600 -0.1213
  152SAPE   H5R16864   0.691   0.697  10.054 -1.1358  0.0770 -0.8351
  152SAPE   C2616865   0.714   0.753   9.856  0.2289 -0.0142 -0.2270
  152SAPE   H6R16866   0.651   0.841   9.873  2.7936  1.7534  0.5762
  152SAPE   C2716867   0.788   0.745   9.724  0.1661 -0.0542  0.3796
  152SAPE   H7R16868   0.830   0.645   9.699 -2.3068 -0.9844 -0.3681
  152SAPE   H7S16869   0.868   0.822   9.719  1.3840 -1.3437 -0.8932
  152SAPE   C2816870   0.693   0.776   9.607 -0.3531 -0.5434  0.2452
  152SAPE   H8R16871   0.586   0.756   9.622 -1.1560  1.9651 -1.4845
  152SAPE   C2916872   0.733   0.824   9.486  1.2061  0.1730 -0.1428
  152SAPE   H9R16873   0.660   0.852   9.409  2.0974 -0.5329 -1.2828
  152SAPE  C21016874   0.872   0.852   9.434  0.2236 -0.1431 -0.4735
  152SAPE  H10R16875   0.905   0.769   9.369 -0.0266 -0.0526 -0.7191
  152SAPE  H10S16876   0.947   0.863   9.515  0.5870 -0.8078 -0.7208
  152SAPE  C21116877   0.891   0.982   9.366  0.2713 -0.2922  0.3962
  152SAPE  H11R16878   0.850   1.072   9.414 -0.9975 -0.2821 -0.6624
  152SAPE  C21216879   0.966   1.003   9.257 -0.0950 -0.9829  0.3374
  152SAPE  H12R16880   0.965   1.108   9.226  1.2498 -0.6742  1.2570
  152SAPE  C21316881   1.051   0.912   9.172 -0.4871  0.8450 -0.0255
  152SAPE  H13R16882   1.025   0.924   9.065 -0.9790  0.4332  0.0454
  152SAPE  H13S16883   1.025   0.806   9.192  1.3644  0.0186 -1.6425
  152SAPE  C21416884   1.198   0.939   9.207 -0.1237 -0.9718  0.1372
  152SAPE  H14R16885   1.217   0.937   9.315 -3.2443 -1.6479  0.7887
  152SAPE  C21516886   1.311   0.967   9.134  0.2476 -0.0652 -0.1543
  152SAPE  H15R16887   1.409   0.971   9.184  0.3368 -2.2432 -0.0960
  152SAPE  C21616888   1.302   0.997   8.983 -0.3918 -0.4843 -0.5113
  152SAPE  H16R16889   1.196   1.025   8.962 -1.0329 -2.2157  0.2563
  152SAPE  H16S16890   1.322   0.903   8.928  0.0539 -1.2529  0.9158
  152SAPE  C21716891   1.397   1.115   8.934 -0.5421  0.2127 -0.0647
  152SAPE  H17R16892   1.499   1.082   8.962 -0.8430  1.1105  2.3913
  152SAPE  H17S16893   1.359   1.202   8.992 -2.3467 -1.5521  1.5813
  152SAPE  C21816894   1.397   1.147   8.784 -0.0737  0.2042  0.5723
  152SAPE  H18R16895   1.298   1.179   8.743 -0.6304 -0.2796  1.5111
  152SAPE  H18S16896   1.426   1.052   8.733  2.4372  0.9499  0.4999
  152SAPE  C21916897   1.515   1.241   8.748  0.1355 -0.2552  0.1081
  152SAPE  H19R16898   1.603   1.188   8.791  0.2334 -0.4472 -0.3244
  152SAPE  H19S16899   1.498   1.331   8.812 -1.9857 -0.1398 -0.5350
  152SAPE  C22016900   1.524   1.280   8.608  0.0429 -0.1316 -0.4235
  152SAPE  H20R16901   1.445   1.349   8.573  2.0947  1.7088 -1.7452
  152SAPE  H20S16902   1.535   1.201   8.531 -0.6414  1.1857 -1.9239
  152SAPE  H20T16903   1.619   1.339   8.604 -0.9117  1.3829 -1.7940
  152SAPE   C3316904   0.379   0.327  10.029  0.2384 -0.1016 -0.5124
  152SAPE   H3X16905   0.393   0.434  10.003 -0.0297 -0.2313 -1.2272
  152SAPE   H3Y16906   0.300   0.316  10.106 -0.7216  0.6544 -1.3472
  152SAPE   C3416907   0.354   0.248   9.901  0.1129 -0.4525  0.0779
  152SAPE   H4X16908   0.249   0.268   9.869 -0.0612  1.3163  1.6087
  152SAPE   H4Y16909   0.348   0.138   9.921 -1.7529 -0.5909 -0.9561
  152SAPE   C3516910   0.453   0.270   9.788 -0.2600 -0.0621 -0.3404
  152SAPE   H5X16911   0.454   0.179   9.723  1.1243 -0.0318 -0.3895
  152SAPE   H5Y16912   0.554   0.277   9.833 -0.5616 -0.2999  0.3968
  152SAPE   C3616913   0.419   0.396   9.713 -0.3948 -0.1696 -0.3088
  152SAPE   H6X16914   0.431   0.483   9.780  0.5952 -0.0943 -0.5688
  152SAPE   H6Y16915   0.312   0.408   9.686 -0.2049  0.3994 -0.8283
  152SAPE   C3716916   0.513   0.436   9.595 -0.4140  0.0533 -0.2341
  152SAPE   H7X16917   0.622   0.433   9.614 -0.7962 -2.1128  2.1664
  152SAPE   H7Y16918   0.482   0.539   9.566  0.0564  0.2909  0.0982
  152SAPE   C3816919   0.481   0.350   9.477  0.1558  0.5204 -0.1307
  152SAPE   H8X16920   0.386   0.386   9.432 -0.7296  0.9963  1.9793
  152SAPE   H8Y16921   0.485   0.241   9.499  1.7652  0.6721  0.4752
  152SAPE   C3916922   0.586   0.380   9.368  0.4008 -0.4699  0.6192
  152SAPE   H9X16923   0.564   0.294   9.301  1.9168  0.3047 -0.9450
  152SAPE   H9Y16924   0.689   0.381   9.411  1.1333  2.3680 -0.9680
  152SAPE  C31016925   0.571   0.510   9.294  0.4818 -0.1433  0.3863
  152SAPE  H10X16926   0.600   0.585   9.371  0.2504  1.4605 -1.0084
  152SAPE  H10Y16927   0.462   0.523   9.277  0.6764  1.1116  0.0064
  152SAPE  C31116928   0.656   0.518   9.173 -0.6790 -0.2694  0.5226
  152SAPE  H11X16929   0.635   0.442   9.096  0.2038  1.1135 -1.1556
  152SAPE  H11Y16930   0.760   0.506   9.211 -1.3252  0.7751  2.8151
  152SAPE  C31216931   0.652   0.662   9.122 -0.3551  0.0318 -0.9325
  152SAPE  H12X16932   0.696   0.731   9.197  0.4519  0.9090 -2.1680
  152SAPE  H12Y16933   0.546   0.691   9.105 -1.0660 -0.5643  1.9319
  152SAPE  C31316934   0.737   0.663   8.993 -0.4640 -0.4902 -0.1890
  152SAPE  H13X16935   0.700   0.599   8.910 -1.3947 -0.4958  0.2132
  152SAPE  H13Y16936   0.839   0.643   9.032  0.9402  1.1924 -2.7103
  152SAPE  C31416937   0.738   0.812   8.936  1.1214  0.0927 -0.3418
  152SAPE  H14X16938   0.729   0.874   9.028 -1.6140 -1.1188  0.3046
  152SAPE  H14Y16939   0.645   0.829   8.877  1.7133  1.2313 -0.9882
  152SAPE  C31516940   0.867   0.860   8.853  0.0522 -0.0732  0.3875
  152SAPE  H15X16941   0.961   0.826   8.902 -0.6202  0.9306  2.4677
  152SAPE  H15Y16942   0.868   0.971   8.846  2.1490 -0.1362 -2.1999
  152SAPE  C31616943   0.866   0.802   8.713  0.9120 -0.0417  0.4543
  152SAPE  H16X16944   0.768   0.836   8.673  0.6913  1.9893  2.5548
  152SAPE  H16Y16945   0.850   0.692   8.714 -0.0213  0.0353 -1.2778
  152SAPE  C31716946   0.985   0.823   8.629 -0.1762 -0.0230  0.0296
  152SAPE  H17X16947   1.082   0.805   8.682  0.6105  1.7372 -0.7304
  152SAPE  H17Y16948   0.983   0.926   8.588 -0.7810 -0.0815 -0.0962
  152SAPE  C31816949   0.984   0.726   8.506 -0.0985  0.3427  0.1830
  152SAPE  H18X16950   1.082   0.724   8.454 -0.7742  0.2370 -1.1166
  152SAPE  H18Y16951   0.909   0.749   8.427  1.2020 -1.0654 -1.5523
  152SAPE  H18Z16952   0.957   0.623   8.538  0.1942  0.3660  0.5043
  153SAPE     N16953   0.321   1.016  10.770  0.1498 -0.2729  0.0258
  153SAPE   HN116954   0.251   0.974  10.836  0.7819 -0.4075  0.6263
  153SAPE   HN216955   0.380   0.940  10.729 -0.4998 -0.8236  0.0894
  153SAPE   HN316956   0.372   1.090  10.823 -1.3201  0.8392 -0.0512
  153SAPE   C1216957   0.259   1.085  10.655 -0.3076  0.2832  0.3343
  153SAPE  H12A16958   0.207   1.169  10.706  0.1088 -0.3570  1.9036
  153SAPE  H12B16959   0.180   1.017  10.616  1.4985 -1.5181 -0.3677
  153SAPE   C1116960   0.345   1.122  10.542  0.4526  0.0827 -0.2078
  153SAPE  H11A16961   0.284   1.176  10.466  0.2508 -1.3054 -1.0719
  153SAPE  H11B16962   0.378   1.030  10.489  1.5026 -0.3609  1.1860
  153SAPE     P16963   0.462   1.323  10.666 -0.0102  0.0344  0.0719
  153SAPE   O1316964   0.441   1.298  10.812 -0.2443 -0.1381  0.7185
  153SAPE   O1416965   0.585   1.401  10.640  0.0389 -0.0809 -0.1125
  153SAPE   O1216966   0.460   1.189  10.582 -0.0072 -0.6287  0.0065
  153SAPE   O1116967   0.344   1.409  10.610 -0.6816 -0.1308 -0.2367
  153SAPE    C116968   0.347   1.477  10.478 -0.6277  0.0652 -0.5555
  153SAPE    HA16969   0.406   1.571  10.485  0.1917 -0.4476 -0.3583
  153SAPE    HB16970   0.397   1.417  10.400  0.1189  0.4999 -0.4257
  153SAPE    C216971   0.203   1.509  10.442  0.5326 -0.3874  0.0243
  153SAPE    HS16972   0.151   1.547  10.532  2.0404  0.0341  0.7496
  153SAPE   O2116973   0.145   1.391  10.389 -0.9199  0.1129  0.3910
  153SAPE   C2116974   0.016   1.373  10.414  0.1267  0.8395  0.1078
  153SAPE   O2216975  -0.051   1.447  10.482  0.7129  0.4785  0.0055
  153SAPE   C2216976  -0.034   1.249  10.341  0.2949  0.4416 -0.5193
  153SAPE   H2R16977   0.052   1.184  10.315 -1.6562 -2.9608  0.9025
  153SAPE   H2S16978  -0.103   1.196  10.411 -1.7407  2.8631 -0.5564
  153SAPE    C316979   0.195   1.619  10.335  0.1481  0.0579  0.8338
  153SAPE    HX16980   0.261   1.592  10.250  2.1388  0.2043  2.2717
  153SAPE    HY16981   0.232   1.717  10.373  0.5661  0.8888 -1.5468
  153SAPE   O3116982   0.062   1.650  10.289  0.1102 -0.1456 -0.6861
  153SAPE   C3116983  -0.009   1.737  10.356 -0.6420 -0.4725  0.6811
  153SAPE   O3216984   0.032   1.815  10.444  0.0169  0.2318 -0.4937
  153SAPE   C3216985  -0.147   1.734  10.311  0.4841 -0.1747  0.5960
  153SAPE   H2X16986  -0.200   1.817  10.362  0.5847  0.4873 -0.3597
  153SAPE   H2Y16987  -0.200   1.649  10.359 -0.6010  0.6344  0.8785
  153SAPE   C2316988  -0.118   1.278  10.219  0.7812  0.1290  0.8394
  153SAPE   H3R16989  -0.197   1.352  10.244 -2.1641 -2.2118 -0.7521
  153SAPE   H3S16990  -0.175   1.185  10.195  0.0933  1.0607 -1.3683
  153SAPE   C2416991  -0.057   1.345  10.096  0.4990  0.1031 -0.5689
  153SAPE   H4R16992  -0.033   1.453  10.112 -0.0987  0.0522  0.7601
  153SAPE   H4S16993  -0.129   1.353  10.012  1.7458 -0.0017 -1.6940
  153SAPE   C2516994   0.065   1.270  10.041  0.4729  0.0318 -0.3764
  153SAPE   H5R16995   0.152   1.260  10.107 -0.0268 -0.7928  0.1817
  153SAPE   C2616996   0.081   1.208   9.918  0.6438 -0.1088 -0.6555
  153SAPE   H6R16997   0.177   1.158   9.897  0.5005 -0.5041 -0.3963
  153SAPE   C2716998  -0.021   1.203   9.802 -0.0844 -0.2323  0.5718
  153SAPE   H7R16999  -0.126   1.209   9.840  0.0582  1.8348  0.7513
  153SAPE   H7S17000  -0.010   1.099   9.766 -0.5571 -0.5369  1.2806
  153SAPE   C2817001   0.002   1.312   9.696 -0.2235 -0.3622 -0.0440
  153SAPE   H8R17002   0.009   1.410   9.746  1.0514 -0.7584  0.5867
  153SAPE   C2917003   0.016   1.290   9.568 -0.0639  0.3138 -0.1731
  153SAPE   H9R17004   0.040   1.372   9.499 -1.4562 -2.7262 -4.6620
  153SAPE  C21017005   0.001   1.151   9.501 -0.1747 -0.1482  0.5013
  153SAPE  H10R17006   0.057   1.073   9.558  0.4744 -1.5537 -1.9425
  153SAPE  H10S17007   0.050   1.153   9.402 -0.8145  2.1664  0.1801
  153SAPE  C21117008  -0.141   1.099   9.483 -0.6025  0.1871 -0.7706
  153SAPE  H11R17009  -0.205   1.115   9.571 -1.4705 -0.4100 -1.2772
  153SAPE  C21217010  -0.210   1.050   9.374  0.7163  0.6082  0.3762
  153SAPE  H12R17011  -0.311   1.011   9.391  0.9578  0.2592  1.0390
  153SAPE  C21317012  -0.157   1.024   9.240 -0.5732  0.5329  0.5005
  153SAPE  H13R17013  -0.129   0.916   9.234  0.9626  0.9218  0.1705
  153SAPE  H13S17014  -0.054   1.065   9.228  0.3793 -1.3891  1.5347
  153SAPE  C21417015  -0.243   1.053   9.127 -0.6302 -0.5255 -0.2742
  153SAPE  H14R17016  -0.347   1.075   9.157 -0.8120 -2.6320  0.7748
  153SAPE  C21517017  -0.212   1.052   9.002  0.5150 -0.1872  0.5027
  153SAPE  H15R17018  -0.292   1.082   8.932 -1.9765  0.6464  3.4751
  153SAPE  C21617019  -0.080   1.027   8.942 -0.0421 -0.2160  0.3384
  153SAPE  H16R17020  -0.090   0.929   8.890  0.6258  0.7364 -1.6921
  153SAPE  H16S17021  -0.000   1.021   9.019  0.9666  0.3331 -0.6300
  153SAPE  C21717022  -0.024   1.118   8.833  0.0650 -0.1957 -0.1514
  153SAPE  H17R17023  -0.022   1.221   8.875 -0.4310 -0.9721  1.9037
  153SAPE  H17S17024  -0.088   1.111   8.743 -0.9816  0.5513  0.5053
  153SAPE  C21817025   0.122   1.078   8.798  0.2495 -0.2618  0.9329
  153SAPE  H18R17026   0.123   0.970   8.772  0.9737  0.0844 -0.6112
  153SAPE  H18S17027   0.189   1.106   8.881  0.9013 -1.9593  1.0271
  153SAPE  C21917028   0.179   1.152   8.674 -0.1305  0.8499 -0.0166
  153SAPE  H19R17029   0.273   1.094   8.659 -0.9717 -1.5067  2.8668
  153SAPE  H19S17030   0.193   1.258   8.700 -1.3440  1.1476 -0.4751
  153SAPE  C22017031   0.107   1.133   8.544  0.3881  0.3284 -0.2279
  153SAPE  H20R17032   0.078   1.028   8.525  0.5883  0.2505 -0.1117
  153SAPE  H20S17033   0.165   1.167   8.455 -2.8056 -1.2777 -3.1561
  153SAPE  H20T17034   0.010   1.187   8.550  1.3653  2.1897 -0.3706
  153SAPE   C3317035  -0.161   1.738  10.160 -0.1238  0.2594 -0.4470
  153SAPE   H3X17036  -0.131   1.640  10.117 -1.9986 -0.9118  0.7427
  153SAPE   H3Y17037  -0.091   1.813  10.119 -0.2947  0.4886 -0.3205
  153SAPE   C3417038  -0.301   1.777  10.110 -0.1225  0.2613  0.1375
  153SAPE   H4X17039  -0.341   1.857  10.175 -1.5744  0.0653 -0.4765
  153SAPE   H4Y17040  -0.369   1.690  10.117  0.8566 -0.9450 -3.1359
  153SAPE   C3517041  -0.290   1.802   9.955 -0.1583 -0.2456  0.0019
  153SAPE   H5X17042  -0.244   1.720   9.896  1.9087  0.5501  0.4215
  153SAPE   H5Y17043  -0.227   1.893   9.943  0.7401 -0.8817 -0.2237
  153SAPE   C3617044  -0.426   1.835   9.895 -0.4962  0.3165  0.5706
  153SAPE   H6X17045  -0.458   1.936   9.927 -0.3736  0.2687  0.8402
  153SAPE   H6Y17046  -0.501   1.755   9.912  0.4757 -1.4799 -2.5807
  153SAPE   C3717047  -0.426   1.842   9.736 -0.4760 -0.2002  0.5022
  153SAPE   H7X17048  -0.424   1.741   9.688 -2.1322  0.1899 -0.4468
  153SAPE   H7Y17049  -0.332   1.881   9.692 -1.6039  0.0579 -1.8277
  153SAPE   C3817050  -0.546   1.910   9.679  0.2452  0.4327 -0.0236
  153SAPE   H8X17051  -0.534   2.020   9.689 -2.2349  0.9076 -1.4596
  153SAPE   H8Y17052  -0.646   1.875   9.712 -0.5825  0.4891 -2.2767
  153SAPE   C3917053  -0.545   1.884   9.526  0.2026 -0.4406 -0.1998
  153SAPE   H9X17054  -0.554   1.775   9.508 -0.8540 -0.6873  1.5532
  153SAPE   H9Y17055  -0.450   1.916   9.479 -0.0985  0.3833 -0.2581
  153SAPE  C31017056  -0.653   1.948   9.449  0.6505 -0.8660  0.2343
  153SAPE  H10X17057  -0.656   2.059   9.452  1.1795 -0.7847 -1.2961
  153SAPE  H10Y17058  -0.758   1.919   9.471 -0.1933  2.5541  1.4211
  153SAPE  C31117059  -0.628   1.918   9.298 -0.6116 -0.9802  0.2287
  153SAPE  H11X17060  -0.620   1.810   9.272 -0.3556 -0.5651 -1.5825
  153SAPE  H11Y17061  -0.523   1.947   9.276 -0.5940 -0.5640  0.8357
  153SAPE  C31217062  -0.722   1.986   9.198 -0.1035 -0.4940 -0.6767
  153SAPE  H12X17063  -0.723   2.094   9.225 -1.7017 -0.6196 -0.1249
  153SAPE  H12Y17064  -0.827   1.963   9.227 -0.3058 -0.4242 -1.3388
  153SAPE  C31317065  -0.703   1.948   9.053  0.2679  0.5035 -0.6110
  153SAPE  H13X17066  -0.707   1.839   9.030 -2.8803  0.9007 -2.5359
  153SAPE  H13Y17067  -0.601   1.989   9.035  0.0998  0.3363 -2.0563
  153SAPE  C31417068  -0.806   2.008   8.956  0.2645  0.1751  1.0246
  153SAPE  H14X17069  -0.814   2.115   8.984 -0.9859  0.3078  0.2348
  153SAPE  H14Y17070  -0.901   1.959   8.984 -0.2342  0.1616 -0.5906
  153SAPE  C31517071  -0.786   1.973   8.811  0.2582 -0.6800  0.1463
  153SAPE  H15X17072  -0.792   1.867   8.780  0.2732 -0.0905 -2.0309
  153SAPE  H15Y17073  -0.685   2.014   8.787  1.1609 -1.4557  2.3648
  153SAPE  C31617074  -0.890   2.050   8.728 -0.0333  0.2948 -0.2565
  153SAPE  H16X17075  -0.890   2.157   8.760  0.9646  0.3199 -0.3304
  153SAPE  H16Y17076  -0.997   2.021   8.741 -0.0341  0.1146 -0.6611
  153SAPE  C31717077  -0.853   2.036   8.579 -0.3545  0.0158  0.5706
  153SAPE  H17X17078  -0.839   1.927   8.562  1.1392  0.2401  0.2294
  153SAPE  H17Y17079  -0.751   2.071   8.552 -0.3658 -0.5150 -0.1917
  153SAPE  C31817080  -0.967   2.075   8.484  0.4544 -0.2721  0.0224
  153SAPE  H18X17081  -1.058   2.016   8.508  0.2562 -0.8348 -1.9487
  153SAPE  H18Y17082  -0.942   2.048   8.379  0.5063  1.7140 -0.5120
  153SAPE  H18Z17083  -0.987   2.184   8.493 -1.8775 -0.6827  0.6083
  154SAPE     N17084   0.497   0.619  11.088  0.5722  0.4722 -0.0172
  154SAPE   HN117085   0.536   0.558  11.163  2.5850  0.6896 -0.8154
  154SAPE   HN217086   0.486   0.719  11.114  0.9878  0.2583  1.0390
  154SAPE   HN317087   0.404   0.585  11.059  0.6551 -1.8061  2.0462
  154SAPE   C1217088   0.600   0.600  10.982  0.1462 -0.0859 -0.7210
  154SAPE  H12A17089   0.596   0.494  10.949 -2.9039 -0.1952 -0.3047
  154SAPE  H12B17090   0.695   0.623  11.033 -0.1541 -1.4099  0.4690
  154SAPE   C1117091   0.601   0.705  10.860  0.6657 -0.4473  0.5399
  154SAPE  H11A17092   0.498   0.689  10.820 -0.7613  1.3882  3.1190
  154SAPE  H11B17093   0.680   0.691  10.783  0.9610  1.9013  0.3359
  154SAPE     P17094   0.728   0.932  10.904  0.0399 -0.1131 -0.1657
  154SAPE   O1317095   0.687   1.064  10.962 -0.7690 -0.0009 -0.1646
  154SAPE   O1417096   0.829   0.856  10.972 -0.8157  0.1861 -0.2320
  154SAPE   O1217097   0.599   0.839  10.905  0.1251  0.1922  0.1408
  154SAPE   O1117098   0.767   0.941  10.747 -0.6383  0.0570 -0.4472
  154SAPE    C117099   0.685   0.914  10.631 -0.5201 -0.2703  0.5509
  154SAPE    HA17100   0.655   0.808  10.622  0.7972 -0.5035 -1.5621
  154SAPE    HB17101   0.589   0.970  10.639 -1.6436 -2.1504  0.6321
  154SAPE    C217102   0.755   0.948  10.500 -0.1007 -0.3862  0.3589
  154SAPE    HS17103   0.815   1.039  10.524  1.7292 -1.9060  1.8284
  154SAPE   O2117104   0.656   0.960  10.406  0.2196 -0.5721  0.0496
  154SAPE   C2117105   0.654   1.075  10.342 -0.6444 -0.2149 -0.1643
  154SAPE   O2217106   0.732   1.169  10.362  0.2348 -0.1162 -0.0451
  154SAPE   C2217107   0.547   1.068  10.240 -0.1333 -0.5624 -0.1649
  154SAPE   H2R17108   0.570   0.978  10.179  1.8457  0.0544 -0.3866
  154SAPE   H2S17109   0.446   1.076  10.287  0.3273  2.1171  0.5319
  154SAPE    C317110   0.875   0.856  10.450  0.0397 -0.5321  0.1390
  154SAPE    HX17111   0.842   0.751  10.442 -0.8113 -0.1907 -1.1707
  154SAPE    HY17112   0.956   0.868  10.526  1.7428 -1.1300 -1.4869
  154SAPE   O3117113   0.924   0.895  10.315 -0.8219  0.0671 -0.0862
  154SAPE   C3117114   1.021   0.984  10.321 -0.4156  0.3085  0.7750
  154SAPE   O3217115   1.064   1.038  10.422 -0.8108  0.5041 -0.1230
  154SAPE   C3217116   1.079   0.987  10.181 -0.3723  0.2758 -0.6287
  154SAPE   H2X17117   1.124   0.887  10.163 -2.1638 -0.7555  0.2832
  154SAPE   H2Y17118   1.162   1.060  10.176  0.0089 -0.0147  0.9901
  154SAPE   C2317119   0.554   1.202  10.162  0.1459 -0.7400  0.2212
  154SAPE   H3R17120   0.650   1.221  10.110  0.2783 -1.0058  0.3696
  154SAPE   H3S17121   0.529   1.285  10.232  2.0430 -0.3255  0.4502
  154SAPE   C2417122   0.434   1.205  10.061  0.2702  0.1800  0.4597
  154SAPE   H4R17123   0.409   1.307  10.027  1.1318  0.3676  0.3568
  154SAPE   H4S17124   0.351   1.171  10.126  0.8389  0.4054  1.3223
  154SAPE   C2517125   0.446   1.103   9.950 -0.0259  0.1691  0.2577
  154SAPE   H5R17126   0.410   1.004   9.980 -0.8043  0.3853  0.0483
  154SAPE   C2617127   0.500   1.117   9.826 -0.2422 -0.4963  0.0902
  154SAPE   H6R17128   0.488   1.034   9.755  0.0119 -0.4567  0.0010
  154SAPE   C2717129   0.548   1.252   9.765 -0.5510 -0.2073  0.1477
  154SAPE   H7R17130   0.639   1.244   9.701 -0.9800  1.8744 -0.8320
  154SAPE   H7S17131   0.581   1.328   9.838  1.5287 -3.2031  2.5414
  154SAPE   C2817132   0.433   1.312   9.681  0.2218  0.2482 -0.8000
  154SAPE   H8R17133   0.378   1.391   9.735  1.8342 -0.2471  1.7806
  154SAPE   C2917134   0.402   1.276   9.557  0.4425  0.1635 -0.9152
  154SAPE   H9R17135   0.322   1.331   9.505  0.6457  3.3689  1.8102
  154SAPE  C21017136   0.479   1.178   9.474 -0.4618 -0.3126  0.0333
  154SAPE  H10R17137   0.566   1.146   9.536 -1.3550  0.3611  1.6881
  154SAPE  H10S17138   0.519   1.231   9.385  3.1288 -0.7404  1.2172
  154SAPE  C21117139   0.401   1.054   9.442  0.7158  0.5054  0.3350
  154SAPE  H11R17140   0.344   1.015   9.527  3.3202  1.4415  2.6589
  154SAPE  C21217141   0.404   0.995   9.323  0.1251 -0.3960  0.3849
  154SAPE  H12R17142   0.337   0.910   9.301 -0.2780 -0.8764  3.1102
  154SAPE  C21317143   0.471   1.046   9.199 -0.3599  0.2869  0.4368
  154SAPE  H13R17144   0.495   0.957   9.138  0.5481  0.9519 -0.2082
  154SAPE  H13S17145   0.570   1.087   9.229 -0.5078  1.2615 -0.3499
  154SAPE  C21417146   0.400   1.153   9.118  0.3575 -0.0337 -0.7995
  154SAPE  H14R17147   0.303   1.180   9.161  0.3798  0.4171 -1.0295
  154SAPE  C21517148   0.450   1.212   9.011  0.0294  0.4507  0.6032
  154SAPE  H15R17149   0.404   1.303   8.970  1.1524  1.2441  1.0643
  154SAPE  C21617150   0.582   1.177   8.947  0.4822 -0.8205  0.1053
  154SAPE  H16R17151   0.559   1.167   8.839  1.5237  1.6504 -0.4008
  154SAPE  H16S17152   0.616   1.079   8.986  3.0787  0.1102  0.3626
  154SAPE  C21717153   0.696   1.280   8.968  0.6207  0.0748  0.3774
  154SAPE  H17R17154   0.747   1.255   9.064  0.5196 -0.5037  0.2828
  154SAPE  H17S17155   0.672   1.388   8.957  1.5420  0.0433 -2.6443
  154SAPE  C21817156   0.801   1.261   8.855  0.4244  0.1715 -0.0681
  154SAPE  H18R17157   0.758   1.269   8.753  2.5485  2.0683 -0.9008
  154SAPE  H18S17158   0.838   1.158   8.870 -1.9089 -0.8946 -1.0116
  154SAPE  C21917159   0.918   1.360   8.859 -0.2122  0.1448 -0.3214
  154SAPE  H19R17160   0.937   1.380   8.967 -1.3567  1.7519 -0.3963
  154SAPE  H19S17161   0.873   1.457   8.829 -0.2891  0.8940  1.9995
  154SAPE  C22017162   1.038   1.311   8.777 -0.7119  0.7235  0.2677
  154SAPE  H20R17163   1.125   1.378   8.794  1.8068 -1.6052 -2.3056
  154SAPE  H20S17164   1.026   1.304   8.667  0.0868  1.1590  0.1445
  154SAPE  H20T17165   1.075   1.212   8.811 -0.0938  1.0348  0.5342
  154SAPE   C3317166   0.966   1.013  10.078  0.0337  0.2277 -0.2109
  154SAPE   H3X17167   0.870   0.964  10.106  0.0137 -1.4133 -2.8978
  154SAPE   H3Y17168   0.993   0.960   9.985 -0.8265  0.1638 -0.4353
  154SAPE   C3417169   0.949   1.165  10.065 -0.0646  0.5401  0.0544
  154SAPE   H4X17170   1.047   1.218  10.055 -0.4427  1.6483  1.7117
  154SAPE   H4Y17171   0.893   1.199  10.155 -2.5620 -2.9484 -0.0082
  154SAPE   C3517172   0.875   1.201   9.934  0.3095 -0.2638  0.2175
  154SAPE   H5X17173   0.815   1.293   9.951  0.1482 -0.5110  1.0519
  154SAPE   H5Y17174   0.802   1.122   9.911  0.2104  0.4466 -2.1290
  154SAPE   C3617175   0.961   1.225   9.810  0.6693 -0.1376 -0.2739
  154SAPE   H6X17176   1.009   1.323   9.828 -1.3359  1.2260 -1.8369
  154SAPE   H6Y17177   0.888   1.231   9.726  0.1950 -1.3181  0.0285
  154SAPE   C3717178   1.066   1.118   9.795 -0.1156 -0.6734 -0.4291
  154SAPE   H7X17179   1.016   1.029   9.751  1.0590 -0.4716 -2.3024
  154SAPE   H7Y17180   1.114   1.089   9.891 -0.6118  0.1113  0.0691
  154SAPE   C3817181   1.181   1.161   9.706 -0.4321 -0.6045  0.5886
  154SAPE   H8X17182   1.251   1.076   9.693  1.0948  0.8352 -1.1321
  154SAPE   H8Y17183   1.230   1.250   9.751 -2.5475  1.0052 -0.0897
  154SAPE   C3917184   1.125   1.207   9.568  0.1866  0.4328  0.4419
  154SAPE   H9X17185   1.058   1.296   9.573 -0.1604  0.1619  0.6672
  154SAPE   H9Y17186   1.061   1.128   9.523 -0.7040  0.6273  1.3161
  154SAPE  C31017187   1.234   1.242   9.472  0.2588 -0.2990 -0.2371
  154SAPE  H10X17188   1.286   1.158   9.421  2.4277 -0.0451  1.3789
  154SAPE  H10Y17189   1.318   1.292   9.526 -0.2407 -2.5964  2.9680
  154SAPE  C31117190   1.172   1.326   9.355 -0.1333 -0.0398 -0.1268
  154SAPE  H11X17191   1.120   1.412   9.402  0.2701  0.2116 -0.1391
  154SAPE  H11Y17192   1.101   1.263   9.296  0.2889 -2.5607  1.8802
  154SAPE  C31217193   1.279   1.379   9.257  0.2716 -0.6783  0.0316
  154SAPE  H12X17194   1.328   1.288   9.216 -1.5319 -2.4957  1.6774
  154SAPE  H12Y17195   1.359   1.447   9.294 -0.0509  0.3982 -1.1515
  154SAPE  C31317196   1.210   1.457   9.144 -0.3619 -0.5111 -0.2106
  154SAPE  H13X17197   1.130   1.515   9.195  0.1780  0.4616 -0.4484
  154SAPE  H13Y17198   1.174   1.382   9.070  1.8616 -1.7096 -0.1496
  154SAPE  C31417199   1.313   1.552   9.085 -0.2536 -0.2787  0.2954
  154SAPE  H14X17200   1.418   1.514   9.086  0.1188  0.6923 -0.4641
  154SAPE  H14Y17201   1.305   1.647   9.143  0.3033 -0.4045  0.5922
  154SAPE  C31517202   1.270   1.578   8.932 -0.3868  0.7428  0.4744
  154SAPE  H15X17203   1.174   1.631   8.951 -0.1839  1.7417 -1.1551
  154SAPE  H15Y17204   1.242   1.486   8.876 -2.4230  0.8718  1.1939
  154SAPE  C31617205   1.361   1.671   8.864  0.2288 -0.7910  1.1429
  154SAPE  H16X17206   1.460   1.621   8.858  0.2274 -0.6842  0.1458
  154SAPE  H16Y17207   1.381   1.763   8.923  2.1112  0.4918 -1.3498
  154SAPE  C31717208   1.325   1.717   8.723  0.2041  0.0335 -0.4812
  154SAPE  H17X17209   1.384   1.808   8.700  0.9586 -0.1858  0.5369
  154SAPE  H17Y17210   1.217   1.741   8.716  0.2085  0.3637  0.5112
  154SAPE  C31817211   1.360   1.610   8.613  0.1735  0.3015  0.0574
  154SAPE  H18X17212   1.307   1.639   8.519  1.6578 -0.7389 -1.1395
  154SAPE  H18Y17213   1.314   1.513   8.643 -1.8385  1.2356  0.2106
  154SAPE  H18Z17214   1.466   1.585   8.594  0.7392  2.5147  0.0418
  155SAPE     N17215   1.180   2.873  11.209  0.2814 -0.1618 -0.5236
  155SAPE   HN117216   1.269   2.918  11.240 -1.0782  1.8191  0.7734
  155SAPE   HN217217   1.118   2.881  11.292  0.4122 -1.7363 -0.2337
  155SAPE   HN317218   1.191   2.770  11.202 -2.3573 -0.6781  1.2115
  155SAPE   C1217219   1.130   2.933  11.084  0.7689 -0.1528 -0.5297
  155SAPE  H12A17220   1.126   3.042  11.104  0.7058  0.0178 -1.3998
  155SAPE  H12B17221   1.023   2.906  11.069  0.4023  0.8087  0.2343
  155SAPE   C1117222   1.232   2.917  10.964 -0.0330 -0.1958 -0.3994
  155SAPE  H11A17223   1.186   2.971  10.878 -2.2810  0.2807  1.0100
  155SAPE  H11B17224   1.242   2.810  10.936 -0.5536 -0.3109 -0.1611
  155SAPE     P17225   1.479   2.948  10.902  0.1661  0.0759  0.3531
  155SAPE   O1317226   1.587   3.032  10.946  0.0662 -0.2265  0.6769
  155SAPE   O1417227   1.508   2.804  10.898 -0.1159 -0.2261  0.1844
  155SAPE   O1217228   1.356   2.970  10.997 -0.9533 -0.5715 -0.1139
  155SAPE   O1117229   1.414   3.006  10.765 -0.4314  0.2465  0.3329
  155SAPE    C117230   1.443   3.146  10.722 -0.0320  0.7747 -0.2027
  155SAPE    HA17231   1.392   3.215  10.792 -0.0312  3.2376 -2.4490
  155SAPE    HB17232   1.552   3.164  10.734  0.2350 -1.4519  1.2616
  155SAPE    C217233   1.375   3.181  10.586 -0.1967  0.4242 -0.5722
  155SAPE    HS17234   1.371   3.292  10.578 -1.3894  0.6780  2.2088
  155SAPE   O2117235   1.245   3.130  10.590  0.0931  0.8327  0.2381
  155SAPE   C2117236   1.153   3.204  10.655  0.1304 -0.1168  0.1334
  155SAPE   O2217237   1.164   3.313  10.704 -0.0120  0.1682  0.5698
  155SAPE   C2217238   1.027   3.119  10.660  0.4869  0.0766  0.3612
  155SAPE   H2R17239   0.996   3.093  10.557  0.1603  1.2403  0.1535
  155SAPE   H2S17240   1.043   3.026  10.720  1.0509  0.7342  1.2613
  155SAPE    C317241   1.444   3.117  10.461  0.6462 -0.3683 -0.6452
  155SAPE    HX17242   1.436   3.007  10.471  1.7261 -0.4487 -0.5649
  155SAPE    HY17243   1.555   3.123  10.462  0.5923  0.8232 -0.3918
  155SAPE   O3117244   1.396   3.170  10.341 -0.3664 -0.0398 -0.5441
  155SAPE   C3117245   1.466   3.268  10.281  0.4357 -0.1186 -0.3016
  155SAPE   O3217246   1.561   3.330  10.325  1.0043 -0.4976 -0.6279
  155SAPE   C3217247   1.398   3.290  10.143  0.2408 -0.3422  0.5098
  155SAPE   H2X17248   1.402   3.398  10.118  2.6570  0.2696  2.9453
  155SAPE   H2Y17249   1.290   3.268  10.155  0.0779 -1.2074 -1.9904
  155SAPE   C2317250   0.922   3.203  10.745  0.4650  1.0751 -0.6373
  155SAPE   H3R17251   0.970   3.261  10.827 -0.2699 -1.3648  1.6399
  155SAPE   H3S17252   0.853   3.132  10.794  0.4915  0.9870 -0.7274
  155SAPE   C2417253   0.838   3.307  10.666  0.0204  0.4515  0.5532
  155SAPE   H4R17254   0.909   3.384  10.628  0.1550  0.1523  0.1936
  155SAPE   H4S17255   0.764   3.354  10.735  0.2035  1.4925  0.0642
  155SAPE   C2517256   0.753   3.272  10.542  0.1135  0.9995 -0.1815
  155SAPE   H5R17257   0.650   3.240  10.560  0.3901 -0.6009 -1.2397
  155SAPE   C2617258   0.796   3.255  10.412  0.6134 -0.1955  0.1234
  155SAPE   H6R17259   0.721   3.254  10.332  0.5083  3.8265 -0.0716
  155SAPE   C2717260   0.937   3.271  10.379  0.3198 -0.5106  0.0062
  155SAPE   H7R17261   0.986   3.176  10.348  0.9416 -0.3554  0.4901
  155SAPE   H7S17262   0.993   3.315  10.464  0.9487 -1.1676 -0.0563
  155SAPE   C2817263   0.938   3.373  10.268 -0.1517 -0.4075 -0.6643
  155SAPE   H8R17264   0.890   3.469  10.293 -0.7021 -0.8963  0.2117
  155SAPE   C2917265   0.974   3.356  10.143  0.4870  1.1687 -0.2439
  155SAPE   H9R17266   0.955   3.439  10.073 -1.3254  2.2769  1.4511
  155SAPE  C21017267   1.026   3.226  10.087  0.0596  0.2689  0.2505
  155SAPE  H10R17268   1.096   3.187  10.164 -1.8176 -3.1353  0.4302
  155SAPE  H10S17269   1.091   3.248   9.999 -0.7484  0.7155 -0.2429
  155SAPE  C21117270   0.932   3.108  10.048  0.4314  0.2340 -0.0063
  155SAPE  H11R17271   0.903   3.054  10.139 -0.4474  0.8835  0.1053
  155SAPE  C21217272   0.886   3.070   9.919 -0.7647 -0.2723 -0.0709
  155SAPE  H12R17273   0.816   2.986   9.909  0.3968 -1.3327  0.3866
  155SAPE  C21317274   0.930   3.132   9.787  0.1964 -0.1435  0.6152
  155SAPE  H13R17275   0.933   3.049   9.713 -0.7356  1.2822 -1.1082
  155SAPE  H13S17276   1.035   3.166   9.800  0.6063 -1.8591  2.1797
  155SAPE  C21417277   0.847   3.248   9.743  0.6182 -0.2211  0.6026
  155SAPE  H14R17278   0.790   3.302   9.821 -0.3642 -0.5921  0.1570
  155SAPE  C21517279   0.794   3.268   9.616  0.2329  0.3696 -0.8982
  155SAPE  H15R17280   0.746   3.366   9.598  1.0724  1.1062  0.6611
  155SAPE  C21617281   0.830   3.180   9.490  0.2814 -0.8522 -0.3859
  155SAPE  H16R17282   0.742   3.120   9.458 -0.0961 -0.3617 -0.2744
  155SAPE  H16S17283   0.913   3.109   9.508  1.8042  1.1321  0.7792
  155SAPE  C21717284   0.879   3.257   9.365 -0.4698 -0.4354  0.1796
  155SAPE  H17R17285   0.804   3.328   9.326  0.3617  1.0508  1.1728
  155SAPE  H17S17286   0.903   3.173   9.295  2.1733  0.5244 -0.1860
  155SAPE  C21817287   1.016   3.314   9.393 -0.3393 -0.4049  0.1607
  155SAPE  H18R17288   1.093   3.234   9.402  0.0533  0.1258  1.8361
  155SAPE  H18S17289   1.012   3.372   9.487 -0.2849  2.1296 -1.3070
  155SAPE  C21917290   1.061   3.414   9.284 -0.0888  0.4404 -0.5061
  155SAPE  H19R17291   1.075   3.356   9.190 -1.9403 -0.5984 -0.1847
  155SAPE  H19S17292   1.159   3.461   9.310  1.2296 -1.1333 -2.3606
  155SAPE  C22017293   0.957   3.522   9.262 -0.4414 -0.3480 -0.2024
  155SAPE  H20R17294   0.926   3.562   9.361 -1.3676 -2.2006  0.3064
  155SAPE  H20S17295   0.859   3.486   9.224 -0.9046 -0.3644  0.9784
  155SAPE  H20T17296   1.008   3.600   9.201  0.2664 -0.7929 -0.1958
  155SAPE   C3317297   1.462   3.198  10.035 -0.4135 -0.1856 -0.1146
  155SAPE   H3X17298   1.461   3.092  10.068  1.2976  0.3463  1.8666
  155SAPE   H3Y17299   1.557   3.251  10.013 -1.4248  1.9953  0.3732
  155SAPE   C3417300   1.383   3.213   9.906 -0.5978  0.3146 -0.7449
  155SAPE   H4X17301   1.360   3.319   9.881  2.5334  1.1152 -0.6807
  155SAPE   H4Y17302   1.287   3.158   9.908  0.3879 -1.4767  0.5626
  155SAPE   C3517303   1.454   3.157   9.784  0.1672 -0.3986  0.1551
  155SAPE   H5X17304   1.438   3.049   9.764  1.5220 -0.5990  0.0545
  155SAPE   H5Y17305   1.564   3.160   9.798  0.1513 -0.1632  0.2223
  155SAPE   C3617306   1.422   3.235   9.658  0.0624  0.4076  0.3690
  155SAPE   H6X17307   1.422   3.339   9.696 -2.2328 -0.0069  1.7365
  155SAPE   H6Y17308   1.319   3.204   9.630 -0.2348  0.8342  0.9651
  155SAPE   C3717309   1.525   3.214   9.546 -0.0888  0.3826  0.1331
  155SAPE   H7X17310   1.538   3.108   9.516 -0.5912  0.7363 -1.4207
  155SAPE   H7Y17311   1.616   3.265   9.584  0.4436 -0.1831 -0.3479
  155SAPE   C3817312   1.504   3.301   9.427 -0.1337 -0.2895  0.1801
  155SAPE   H8X17313   1.539   3.401   9.461 -0.1262  0.4242 -1.7984
  155SAPE   H8Y17314   1.400   3.326   9.395 -0.3425  0.7919  1.5903
  155SAPE   C3917315   1.579   3.264   9.298  0.0988  0.8317 -0.7917
  155SAPE   H9X17316   1.540   3.168   9.259 -0.4507  0.6386  0.2134
  155SAPE   H9Y17317   1.684   3.254   9.334  0.0928  0.6946 -0.8123
  155SAPE  C31017318   1.559   3.368   9.186 -0.3676 -0.0056  0.2266
  155SAPE  H10X17319   1.609   3.325   9.097 -0.4169  1.9507 -0.7985
  155SAPE  H10Y17320   1.620   3.456   9.216  0.4032 -0.3430 -0.3367
  155SAPE  C31117321   1.417   3.417   9.137  0.1624 -0.3928 -0.2486
  155SAPE  H11X17322   1.360   3.465   9.219  1.4290 -1.3108  1.2351
  155SAPE  H11Y17323   1.360   3.328   9.104 -1.4789 -0.1567  1.7508
  155SAPE  C31217324   1.436   3.513   9.026  0.0664  0.0880  0.0804
  155SAPE  H12X17325   1.485   3.474   8.934  0.6744  2.5088 -0.6889
  155SAPE  H12Y17326   1.488   3.600   9.071 -0.9402  1.1886 -0.8355
  155SAPE  C31317327   1.290   3.555   8.980 -0.5364  0.7310 -0.0549
  155SAPE  H13X17328   1.231   3.575   9.072 -1.4247 -0.6083 -0.3126
  155SAPE  H13Y17329   1.247   3.463   8.936  0.0513  0.0513  0.7413
  155SAPE  C31417330   1.286   3.671   8.880  0.1550  0.3972 -0.1101
  155SAPE  H14X17331   1.346   3.642   8.792 -0.2924  2.5883 -1.2285
  155SAPE  H14Y17332   1.348   3.754   8.920  2.9486 -0.9292 -1.4353
  155SAPE  C31517333   1.147   3.728   8.836 -0.0684  0.2300 -0.0458
  155SAPE  H15X17334   1.091   3.754   8.929 -2.1520  2.7035 -1.8562
  155SAPE  H15Y17335   1.092   3.649   8.781 -0.1827  0.3096 -0.0476
  155SAPE  C31617336   1.150   3.846   8.743 -0.1397  0.4186 -0.6884
  155SAPE  H16X17337   1.164   3.813   8.638 -0.2757  1.5840 -1.0859
  155SAPE  H16Y17338   1.237   3.912   8.761 -0.5611  0.4538  1.4821
  155SAPE  C31717339   1.020   3.928   8.746  0.1586 -0.1874  0.0820
  155SAPE  H17X17340   1.020   4.018   8.681 -0.1004 -1.4743 -1.7528
  155SAPE  H17Y17341   1.006   3.972   8.847 -2.8623  0.4978 -0.5562
  155SAPE  C31817342   0.900   3.846   8.702  0.1598 -0.4771 -0.0170
  155SAPE  H18X17343   0.862   3.767   8.770 -1.9720  0.2802 -0.2428
  155SAPE  H18Y17344   0.925   3.802   8.603 -2.8358  1.4727 -1.7778
  155SAPE  H18Z17345   0.818   3.919   8.686  0.2721 -0.4234 -0.3486
  156SAPE     N17346   0.835   6.087  10.649 -0.0936 -0.2838 -0.4019
  156SAPE   HN117347   0.874   6.173  10.605  1.4239  0.2735  1.8681
  156SAPE   HN217348   0.760   6.125  10.710 -0.2006  1.5277 -1.5839
  156SAPE   HN317349   0.914   6.035  10.692 -0.5944 -0.5019  0.2763
  156SAPE   C1217350   0.770   5.990  10.557 -0.1784 -0.3222 -0.3188
  156SAPE  H12A17351   0.846   5.959  10.482  2.0225  1.9988  0.8300
  156SAPE  H12B17352   0.701   6.039  10.485 -1.0986 -2.6032 -1.1015
  156SAPE   C1117353   0.710   5.873  10.621 -0.2193  0.1894  0.1383
  156SAPE  H11A17354   0.603   5.895  10.644 -0.8228 -0.7479 -1.6326
  156SAPE  H11B17355   0.753   5.862  10.723 -1.7720 -2.4456  0.6187
  156SAPE     P17356   0.848   5.661  10.569 -0.0738 -0.0343 -0.1669
  156SAPE   O1317357   0.953   5.746  10.633  0.2431 -0.4867  0.1057
  156SAPE   O1417358   0.809   5.541  10.643  0.6261  0.8043  0.4178
  156SAPE   O1217359   0.714   5.752  10.551  0.2003  0.3428  0.6035
  156SAPE   O1117360   0.881   5.628  10.413 -0.3704  0.3109 -0.1981
  156SAPE    C117361   0.783   5.620  10.315  0.0650 -0.2880 -0.4371
  156SAPE    HA17362   0.813   5.531  10.255 -1.1979  0.3993 -2.1660
  156SAPE    HB17363   0.681   5.599  10.355 -0.0439 -0.8254 -0.9716
  156SAPE    C217364   0.773   5.747  10.224  0.3191 -0.2153 -0.6512
  156SAPE    HS17365   0.748   5.826  10.297  3.1649  0.3021 -0.1174
  156SAPE   O2117366   0.658   5.735  10.130  0.0323 -0.4836  0.6734
  156SAPE   C2117367   0.607   5.849  10.089 -0.0798 -0.5455 -0.5660
  156SAPE   O2217368   0.618   5.962  10.142 -0.1034 -0.0907  0.1321
  156SAPE   C2217369   0.530   5.817   9.960 -0.0265 -0.6569  0.1128
  156SAPE   H2R17370   0.533   5.902   9.888  2.7347 -1.6340 -1.0595
  156SAPE   H2S17371   0.577   5.738   9.897 -2.5706 -1.3350 -1.0753
  156SAPE    C317372   0.903   5.767  10.148 -0.6021 -0.3658  0.2438
  156SAPE    HX17373   0.902   5.683  10.076  1.0508 -0.2690  0.0743
  156SAPE    HY17374   0.994   5.762  10.212 -0.1272  2.1657 -0.0971
  156SAPE   O3117375   0.896   5.882  10.065  0.3192 -0.3487 -0.2445
  156SAPE   C3117376   0.927   5.998  10.137  0.4453 -0.7258 -0.2610
  156SAPE   O3217377   0.965   5.999  10.251  0.0171 -0.2400  0.0976
  156SAPE   C3217378   0.922   6.116  10.041 -0.5808 -0.7596 -0.4964
  156SAPE   H2X17379   1.023   6.120   9.996  0.7768  0.4868  2.3960
  156SAPE   H2Y17380   0.910   6.205  10.107 -2.5291 -1.1843 -0.1963
  156SAPE   C2317381   0.380   5.777   9.987  0.3924 -0.3379  0.1463
  156SAPE   H3R17382   0.340   5.849  10.062 -0.3486 -0.3349 -0.2429
  156SAPE   H3S17383   0.367   5.683  10.044  2.1471  0.0602  1.2617
  156SAPE   C2417384   0.290   5.783   9.862 -0.1110 -0.6640 -0.6025
  156SAPE   H4R17385   0.324   5.868   9.799 -0.8266 -1.6168 -2.3417
  156SAPE   H4S17386   0.190   5.804   9.906 -0.5633 -0.7921 -1.5595
  156SAPE   C2517387   0.292   5.665   9.771  0.0753  0.3752  0.2144
  156SAPE   H5R17388   0.252   5.574   9.819 -1.4118  0.5138 -0.6868
  156SAPE   C2617389   0.319   5.659   9.636 -0.5600 -0.7442  0.5801
  156SAPE   H6R17390   0.325   5.560   9.589 -1.5290 -0.2240 -0.6899
  156SAPE   C2717391   0.368   5.782   9.558  0.3487  0.6205 -0.3063
  156SAPE   H7R17392   0.398   5.862   9.628 -1.0573 -0.1972  1.3061
  156SAPE   H7S17393   0.283   5.822   9.498  1.8584  0.4411 -2.7269
  156SAPE   C2817394   0.486   5.733   9.476  0.0421 -1.0593 -0.6144
  156SAPE   H8R17395   0.551   5.664   9.531 -1.8615 -1.7618  0.8971
  156SAPE   C2917396   0.515   5.753   9.345  0.2376  0.5776 -0.3910
  156SAPE   H9R17397   0.612   5.716   9.307  1.7025  3.3398  0.4030
  156SAPE  C21017398   0.430   5.832   9.248  0.0442  0.1382 -0.0678
  156SAPE  H10R17399   0.322   5.807   9.255  0.6377 -3.2903 -1.0139
  156SAPE  H10S17400   0.462   5.814   9.143 -0.9041 -2.2833 -0.0066
  156SAPE  C21117401   0.441   5.976   9.270 -0.2964  1.2418  0.2045
  156SAPE  H11R17402   0.484   6.008   9.366 -0.9400  0.5619  0.7370
  156SAPE  C21217403   0.387   6.067   9.186  0.4489 -0.0621 -0.1880
  156SAPE  H12R17404   0.398   6.176   9.199 -1.4077  0.3364 -1.5425
  156SAPE  C21317405   0.315   6.033   9.056  0.0553 -0.2665 -0.2090
  156SAPE  H13R17406   0.228   6.101   9.054  1.1067  1.1282 -2.8641
  156SAPE  H13S17407   0.270   5.932   9.057 -1.7067  0.4775  1.1697
  156SAPE  C21417408   0.400   6.034   8.931 -0.4847  0.4419 -0.0340
  156SAPE  H14R17409   0.497   5.983   8.937 -1.8183 -2.1424  1.5642
  156SAPE  C21517410   0.361   6.094   8.815  0.1064 -0.2605  0.2398
  156SAPE  H15R17411   0.431   6.084   8.731  0.0584 -0.8486  0.2692
  156SAPE  C21617412   0.224   6.163   8.792 -0.0013  0.4338 -0.1490
  156SAPE  H16R17413   0.224   6.274   8.803  0.8850  0.3493  0.7926
  156SAPE  H16S17414   0.148   6.123   8.863  1.0075  0.7135  1.1371
  156SAPE  C21717415   0.164   6.145   8.653  0.3238 -0.6610  0.0106
  156SAPE  H17R17416   0.149   6.040   8.619  1.7303 -0.7429 -0.4205
  156SAPE  H17S17417   0.233   6.195   8.582 -1.2948  1.6246 -0.0691
  156SAPE  C21817418   0.027   6.210   8.645  0.2744 -0.3583 -0.0928
  156SAPE  H18R17419   0.042   6.318   8.665 -1.2657  0.0020 -0.6697
  156SAPE  H18S17420  -0.049   6.189   8.724  1.8122 -1.5772  1.1239
  156SAPE  C21917421  -0.013   6.214   8.502 -0.7442  0.7889  0.2987
  156SAPE  H19R17422   0.011   6.124   8.442  1.3015  1.7672 -0.4666
  156SAPE  H19S17423   0.070   6.271   8.453 -1.2986  0.6820 -0.7913
  156SAPE  C22017424  -0.147   6.264   8.474  0.6067  0.3944  0.4621
  156SAPE  H20R17425  -0.225   6.198   8.517  0.7229  0.0819  0.1899
  156SAPE  H20S17426  -0.167   6.274   8.365  1.2372  1.4952  0.4261
  156SAPE  H20T17427  -0.157   6.363   8.524  2.2498 -0.5989  3.0012
  156SAPE   C3317428   0.799   6.122   9.944 -0.3990  0.6382 -0.6069
  156SAPE   H3X17429   0.717   6.182   9.988  1.4063  1.8070  1.3544
  156SAPE   H3Y17430   0.748   6.026   9.921 -1.6530  0.5172  2.2524
  156SAPE   C3417431   0.838   6.187   9.811  0.2406  0.0352  0.0044
  156SAPE   H4X17432   0.932   6.141   9.772 -0.1265 -2.3459  1.7338
  156SAPE   H4Y17433   0.849   6.295   9.834  0.3541 -0.0722  0.4612
  156SAPE   C3517434   0.738   6.176   9.700  0.0550 -0.2280 -0.0295
  156SAPE   H5X17435   0.638   6.175   9.749 -1.2739 -2.9372 -2.4851
  156SAPE   H5Y17436   0.740   6.071   9.662  1.8804 -0.1168 -0.3256
  156SAPE   C3617437   0.730   6.289   9.594  0.0540 -0.4160 -0.0130
  156SAPE   H6X17438   0.832   6.330   9.583 -0.0785 -0.2297 -0.5731
  156SAPE   H6Y17439   0.664   6.371   9.629  1.8393  1.5430 -0.9869
  156SAPE   C3717440   0.681   6.252   9.452 -0.4217 -0.2732  0.7950
  156SAPE   H7X17441   0.574   6.226   9.439 -0.5111  0.7857 -0.9738
  156SAPE   H7Y17442   0.739   6.163   9.417 -0.5734 -0.3011  0.6144
  156SAPE   C3817443   0.709   6.364   9.348  0.2769  0.0806 -0.1647
  156SAPE   H8X17444   0.809   6.353   9.302  0.0425 -0.3639 -0.5747
  156SAPE   H8Y17445   0.692   6.458   9.405 -2.8653 -0.5276  0.0659
  156SAPE   C3917446   0.610   6.357   9.233  0.0079  0.5724 -0.5778
  156SAPE   H9X17447   0.509   6.369   9.278 -0.5393  0.5912 -1.7835
  156SAPE   H9Y17448   0.621   6.255   9.189 -1.9679  0.6623 -1.4197
  156SAPE  C31017449   0.626   6.461   9.129 -0.1005 -1.0201  0.1404
  156SAPE  H10X17450   0.723   6.454   9.075 -0.6218  3.3856 -1.7806
  156SAPE  H10Y17451   0.612   6.563   9.170  0.4310 -1.2397  0.9023
  156SAPE  C31117452   0.522   6.440   9.012  0.1466  0.0208  0.6658
  156SAPE  H11X17453   0.421   6.449   9.057 -0.2149 -0.3024 -0.0719
  156SAPE  H11Y17454   0.535   6.338   8.970  1.6710 -0.0258  1.1578
  156SAPE  C31217455   0.539   6.556   8.905 -0.0811  0.5565 -0.6721
  156SAPE  H12X17456   0.648   6.571   8.887  0.6369  1.2869  3.2381
  156SAPE  H12Y17457   0.506   6.649   8.956  0.8262  0.3851  0.2790
  156SAPE  C31317458   0.463   6.523   8.774 -0.0229 -0.5926  0.1729
  156SAPE  H13X17459   0.357   6.497   8.796  0.4005 -1.3005  1.4809
  156SAPE  H13Y17460   0.506   6.431   8.729 -0.7967 -0.1681 -1.4989
  156SAPE  C31417461   0.479   6.636   8.671  0.4551  0.0773  0.0173
  156SAPE  H14X17462   0.587   6.660   8.658  0.4272  0.8294  0.9756
  156SAPE  H14Y17463   0.436   6.733   8.706  1.8448 -0.3633  3.3411
  156SAPE  C31517464   0.423   6.585   8.533  0.0427 -0.4997 -0.3066
  156SAPE  H15X17465   0.466   6.486   8.509  0.9267 -0.4656  1.0310
  156SAPE  H15Y17466   0.476   6.645   8.456  0.3940  0.4821  0.6711
  156SAPE  C31617467   0.273   6.605   8.504  0.5202  0.7112 -0.8221
  156SAPE  H16X17468   0.234   6.693   8.558 -3.0892 -0.3507 -1.4514
  156SAPE  H16Y17469   0.216   6.525   8.555  1.8872 -0.8119 -1.5758
  156SAPE  C31717470   0.242   6.614   8.351  0.6917 -0.1999  0.1779
  156SAPE  H17X17471   0.263   6.519   8.299 -0.3742  0.0054 -0.6572
  156SAPE  H17Y17472   0.303   6.693   8.301  1.7347 -0.1663  1.4368
  156SAPE  C31817473   0.093   6.647   8.305 -0.2124 -0.4522  0.9058
  156SAPE  H18X17474   0.021   6.566   8.328  0.4871 -0.3770  3.6395
  156SAPE  H18Y17475   0.095   6.663   8.195  0.0830 -1.7351  0.7085
  156SAPE  H18Z17476   0.063   6.749   8.339 -0.0198  0.0727 -0.4233
  157SAPE     N17477   5.140   0.036  10.493  0.5208  0.5411  0.3128
  157SAPE   HN117478   5.063  -0.026  10.526 -1.4124  2.4550 -0.2867
  157SAPE   HN217479   5.174   0.000  10.401 -2.3451 -1.2076 -0.2075
  157SAPE   HN317480   5.219   0.027  10.559  0.2182 -1.0357  0.4861
  157SAPE   C1217481   5.098   0.170  10.464  0.5380  0.4930  0.1439
  157SAPE  H12A17482   4.995   0.177  10.422 -0.5485  3.6273  2.8766
  157SAPE  H12B17483   5.165   0.193  10.379  0.3272 -0.1791 -0.2123
  157SAPE   C1117484   5.126   0.273  10.572 -0.0129  0.3726  0.7856
  157SAPE  H11A17485   5.109   0.373  10.527  1.1255  0.0105 -0.5073
  157SAPE  H11B17486   5.233   0.274  10.600  0.3685  1.6481 -0.5851
  157SAPE     P17487   4.923   0.325  10.722  0.3765  0.0280 -0.0914
  157SAPE   O1317488   4.845   0.255  10.824  0.1892  0.7232  0.3709
  157SAPE   O1417489   4.965   0.464  10.752  0.3143 -0.5959 -0.6007
  157SAPE   O1217490   5.048   0.240  10.687  0.2275  0.0946  0.0412
  157SAPE   O1117491   4.841   0.319  10.584  0.1753  0.2226 -0.7106
  157SAPE    C117492   4.765   0.197  10.558 -0.0071  0.0778 -0.5905
  157SAPE    HA17493   4.760   0.189  10.448 -0.0055 -0.4229 -0.5569
  157SAPE    HB17494   4.824   0.109  10.592  2.0993  1.3556 -0.7520
  157SAPE    C217495   4.619   0.202  10.611  0.2340 -0.1296 -0.0313
  157SAPE    HS17496   4.621   0.164  10.715 -1.8595  1.6209  0.7330
  157SAPE   O2117497   4.548   0.125  10.513 -0.3828 -0.3579 -0.0338
  157SAPE   C2117498   4.444   0.059  10.565 -1.1965  0.1627  0.1374
  157SAPE   O2217499   4.405   0.072  10.681  0.4732 -0.2262 -0.0965
  157SAPE   C2217500   4.375  -0.036  10.461  0.5606  0.0543 -0.2714
  157SAPE   H2R17501   4.455  -0.055  10.385  1.0114  2.0096 -0.3445
  157SAPE   H2S17502   4.358  -0.126  10.523  1.7771  0.4377  0.6749
  157SAPE    C317503   4.551   0.346  10.620  0.3891 -0.0765  0.4430
  157SAPE    HX17504   4.600   0.408  10.698 -0.2764  1.9783 -0.6968
  157SAPE    HY17505   4.446   0.331  10.654  0.5509  0.5469  1.2523
  157SAPE   O3117506   4.559   0.409  10.494 -0.7877  0.0706  0.6501
  157SAPE   C3117507   4.462   0.391  10.400 -0.0680  0.0274 -1.0751
  157SAPE   O3217508   4.354   0.342  10.422  0.0129 -0.1278  0.1395
  157SAPE   C3217509   4.502   0.449  10.261 -1.1499  0.3749  0.4692
  157SAPE   H2X17510   4.583   0.394  10.209  0.3615  0.5051  2.5748
  157SAPE   H2Y17511   4.540   0.552  10.279 -2.7395  0.9264  0.8325
  157SAPE   C2317512   4.252   0.026  10.401  0.2517 -0.4325 -0.6530
  157SAPE   H3R17513   4.274   0.118  10.343 -1.5389  1.0779  0.9495
  157SAPE   H3S17514   4.178   0.051  10.479  0.9584  0.6390 -0.2987
  157SAPE   C2417515   4.191  -0.073  10.307  0.4067 -0.4906  0.4310
  157SAPE   H4R17516   4.182  -0.176  10.346  0.9484 -1.3054 -1.4705
  157SAPE   H4S17517   4.262  -0.082  10.221  1.1778  0.9158  0.8937
  157SAPE   C2517518   4.062  -0.015  10.264 -0.1019 -0.0198 -0.3878
  157SAPE   H5R17519   3.978  -0.048  10.327 -0.8063 -0.9709 -1.7704
  157SAPE   C2617520   4.031   0.050  10.152  0.0316 -0.1108  0.3193
  157SAPE   H6R17521   3.933   0.098  10.132 -0.6305 -2.2461 -2.0589
  157SAPE   C2717522   4.130   0.101  10.047  0.4744  0.7122 -0.2055
  157SAPE   H7R17523   4.142   0.020   9.972 -3.1219  0.1267 -0.3479
  157SAPE   H7S17524   4.223   0.116  10.105 -0.5745  0.6340  1.5687
  157SAPE   C2817525   4.081   0.229   9.986 -0.0091  0.6921  0.2851
  157SAPE   H8R17526   4.039   0.304  10.055 -1.2663 -1.1468  1.6067
  157SAPE   C2917527   4.073   0.259   9.857  0.2281  0.3185  0.7860
  157SAPE   H9R17528   4.031   0.353   9.819 -2.5968 -0.5038  1.6503
  157SAPE  C21017529   4.116   0.173   9.737  0.0796 -0.6147 -0.1807
  157SAPE  H10R17530   4.181   0.087   9.762 -0.0728 -0.5373  0.4855
  157SAPE  H10S17531   4.186   0.241   9.684  2.4206 -1.4528  1.6501
  157SAPE  C21117532   4.009   0.127   9.636  0.1040 -0.1490 -1.0275
  157SAPE  H11R17533   3.931   0.065   9.682  0.8240  0.6417  1.4144
  157SAPE  C21217534   3.992   0.166   9.504  0.3677 -0.4915 -0.0907
  157SAPE  H12R17535   3.911   0.133   9.438 -0.6359  0.7860  0.4477
  157SAPE  C21317536   4.096   0.257   9.428  0.3648 -0.4895  1.0050
  157SAPE  H13R17537   4.172   0.308   9.490 -0.4277 -0.3234  1.8723
  157SAPE  H13S17538   4.036   0.336   9.378 -1.2428 -3.1733 -1.6739
  157SAPE  C21417539   4.173   0.172   9.338  0.1474  0.5594  0.0248
  157SAPE  H14R17540   4.265   0.127   9.379  1.0949  1.0045 -1.5053
  157SAPE  C21517541   4.132   0.132   9.214  0.7690 -0.1567 -0.4734
  157SAPE  H15R17542   4.193   0.055   9.166  0.3878 -0.1389 -0.9946
  157SAPE  C21617543   4.014   0.171   9.128 -0.0150  0.1907  0.8775
  157SAPE  H16R17544   3.960   0.261   9.164 -0.2812  0.7419 -0.8077
  157SAPE  H16S17545   3.940   0.088   9.130 -1.8653  1.6573 -1.4514
  157SAPE  C21717546   4.056   0.197   8.981 -0.9418 -0.5698  0.1061
  157SAPE  H17R17547   4.124   0.284   8.968 -1.0731 -0.6136 -1.0157
  157SAPE  H17S17548   3.977   0.233   8.911  1.6039  0.6038 -2.3237
  157SAPE  C21817549   4.130   0.073   8.913  0.1479  0.6222 -0.4550
  157SAPE  H18R17550   4.066  -0.018   8.920  2.6169 -1.1940 -0.3411
  157SAPE  H18S17551   4.213   0.050   8.983 -0.9136 -3.1343 -0.1972
  157SAPE  C21917552   4.182   0.094   8.772  0.0770 -0.6587  0.2263
  157SAPE  H19R17553   4.250   0.010   8.748  1.2110  0.7126 -1.5701
  157SAPE  H19S17554   4.255   0.178   8.775  0.2370 -0.8192  1.5743
  157SAPE  C22017555   4.078   0.113   8.664  0.3241  0.3099  0.2518
  157SAPE  H20R17556   4.127   0.117   8.564  0.2550  1.3221  0.2431
  157SAPE  H20S17557   4.005   0.197   8.669  0.7809  0.7748 -0.5631
  157SAPE  H20T17558   4.005   0.030   8.671 -1.0949  1.3753 -1.1106
  157SAPE   C3317559   4.372   0.450  10.176  0.1384 -0.4377  0.1370
  157SAPE   H3X17560   4.289   0.495  10.234 -1.3189 -1.0336 -1.3812
  157SAPE   H3Y17561   4.339   0.344  10.168  1.4458 -0.8044 -0.8288
  157SAPE   C3417562   4.382   0.517  10.041  0.5873 -0.3927 -0.1547
  157SAPE   H4X17563   4.417   0.622  10.042  0.4418 -0.3402 -0.4900
  157SAPE   H4Y17564   4.277   0.528  10.008  0.2509 -1.6861  0.4073
  157SAPE   C3517565   4.464   0.434   9.947  0.2005  0.5102 -1.1451
  157SAPE   H5X17566   4.424   0.331   9.935 -0.4857  0.8886 -2.2600
  157SAPE   H5Y17567   4.571   0.422   9.976  0.1397 -1.4762 -1.6033
  157SAPE   C3617568   4.474   0.501   9.812 -0.6572 -0.2186  0.0977
  157SAPE   H6X17569   4.542   0.439   9.750  0.6556  1.5000 -0.2583
  157SAPE   H6Y17570   4.529   0.597   9.825  0.6763 -0.9783  0.2397
  157SAPE   C3717571   4.341   0.521   9.741 -0.6071  0.3821  1.3904
  157SAPE   H7X17572   4.277   0.596   9.792  0.2991  0.8761  1.8388
  157SAPE   H7Y17573   4.279   0.430   9.728  0.8836 -0.2444 -2.9496
  157SAPE   C3817574   4.363   0.580   9.601 -0.2720 -0.8467 -0.0055
  157SAPE   H8X17575   4.424   0.673   9.606 -1.0033 -0.3909  3.4270
  157SAPE   H8Y17576   4.260   0.614   9.578 -0.5134 -1.8963 -0.5369
  157SAPE   C3917577   4.414   0.493   9.487 -0.0841 -0.1247  0.6532
  157SAPE   H9X17578   4.344   0.407   9.478 -2.2109  1.4404  1.4597
  157SAPE   H9Y17579   4.515   0.453   9.512 -0.4120 -0.7952  0.9418
  157SAPE  C31017580   4.439   0.570   9.357 -0.5714  0.2067  0.5434
  157SAPE  H10X17581   4.510   0.649   9.389 -0.4288  0.0792  0.5467
  157SAPE  H10Y17582   4.341   0.616   9.336  0.0063  0.6252 -1.3618
  157SAPE  C31117583   4.489   0.471   9.241  0.9349 -0.2567 -0.9160
  157SAPE  H11X17584   4.430   0.377   9.242 -1.7826  1.2883  1.5178
  157SAPE  H11Y17585   4.598   0.467   9.260  1.1870 -0.3556 -2.3370
  157SAPE  C31217586   4.474   0.534   9.104  0.4325  0.0007  0.1044
  157SAPE  H12X17587   4.570   0.523   9.049  0.7387 -0.7763  0.7815
  157SAPE  H12Y17588   4.457   0.642   9.126  2.0264 -0.3242  3.4907
  157SAPE  C31317589   4.362   0.475   9.008 -0.6424  0.6991 -0.3477
  157SAPE  H13X17590   4.255   0.480   9.038 -0.3846 -2.1883  1.4039
  157SAPE  H13Y17591   4.383   0.367   8.991  1.4282  0.7306  1.4532
  157SAPE  C31417592   4.367   0.544   8.874 -0.5020  0.5319  0.5584
  157SAPE  H14X17593   4.465   0.526   8.825 -0.6335  2.0967 -0.3536
  157SAPE  H14Y17594   4.355   0.651   8.901 -1.7199  0.4639  0.3347
  157SAPE  C31517595   4.257   0.500   8.767 -0.4127 -0.0320 -0.6078
  157SAPE  H15X17596   4.154   0.512   8.808 -0.5223  0.2123 -0.9461
  157SAPE  H15Y17597   4.263   0.394   8.735 -0.6363 -0.6911  1.3798
  157SAPE  C31617598   4.259   0.584   8.640 -0.7581  0.1428 -0.4028
  157SAPE  H16X17599   4.357   0.564   8.592 -0.3623  0.4967  0.2378
  157SAPE  H16Y17600   4.239   0.689   8.673 -1.0630 -0.1111  0.2384
  157SAPE  C31717601   4.157   0.534   8.543 -0.5414  0.0344 -0.3685
  157SAPE  H17X17602   4.060   0.531   8.597 -0.2125  0.3779  0.2529
  157SAPE  H17Y17603   4.192   0.440   8.495 -0.7980  0.3683 -1.2139
  157SAPE  C31817604   4.131   0.648   8.439  0.9778 -0.3297 -0.6199
  157SAPE  H18X17605   4.102   0.609   8.339  0.0828  0.9510 -0.8913
  157SAPE  H18Y17606   4.217   0.714   8.418  1.2238 -1.4037 -3.2848
  157SAPE  H18Z17607   4.048   0.711   8.479  1.8691 -0.3609  1.4111
  158SAPE     N17608   0.101   6.407  10.679  0.8323 -0.0287 -0.3922
  158SAPE   HN117609   0.154   6.319  10.696  1.6418  0.4277 -0.4590
  158SAPE   HN217610   0.153   6.466  10.610 -1.3096 -0.4876 -2.5007
  158SAPE   HN317611   0.085   6.458  10.768  3.1067  0.0597  0.0317
  158SAPE   C1217612  -0.034   6.372  10.625  0.0741  0.0996  0.5558
  158SAPE  H12A17613  -0.101   6.352  10.711 -1.2288  0.7158 -0.2931
  158SAPE  H12B17614  -0.013   6.276  10.573  2.7433  0.9997 -0.1784
  158SAPE   C1117615  -0.089   6.485  10.531  0.0595  0.0022 -0.3481
  158SAPE  H11A17616  -0.190   6.448  10.503 -0.7716  0.9149  1.3025
  158SAPE  H11B17617  -0.021   6.488  10.443  1.3573  1.9908  0.6545
  158SAPE     P17618  -0.223   6.676  10.663  0.2295  0.3395 -0.1993
  158SAPE   O1317619  -0.284   6.575  10.749 -0.0524 -0.3023 -0.0580
  158SAPE   O1417620  -0.180   6.802  10.728 -0.1503 -0.1131 -0.1395
  158SAPE   O1217621  -0.098   6.613  10.598  0.2566  0.0831 -0.9898
  158SAPE   O1117622  -0.319   6.707  10.538  0.0408  0.2772  0.2323
  158SAPE    C117623  -0.275   6.798  10.449 -0.3685 -0.2482  0.1148
  158SAPE    HA17624  -0.261   6.895  10.501  0.2263 -0.1312 -0.2549
  158SAPE    HB17625  -0.181   6.761  10.401 -0.2039 -0.3111  0.4814
  158SAPE    C217626  -0.362   6.821  10.323  0.8220  1.0119  0.0351
  158SAPE    HS17627  -0.463   6.828  10.368  0.5428 -1.6863 -0.0082
  158SAPE   O2117628  -0.356   6.700  10.241 -0.2385  0.2394  0.4233
  158SAPE   C2117629  -0.432   6.706  10.139  0.7047  0.2598  0.3121
  158SAPE   O2217630  -0.520   6.790  10.117 -0.5046  0.0851 -1.1717
  158SAPE   C2217631  -0.421   6.575  10.059 -0.5235  0.5361  0.2369
  158SAPE   H2R17632  -0.319   6.532  10.050 -0.9630 -0.1796 -1.8012
  158SAPE   H2S17633  -0.487   6.503  10.112  0.3049 -0.5421 -0.1665
  158SAPE    C317634  -0.310   6.946  10.249 -0.4920 -1.2037 -0.2248
  158SAPE    HX17635  -0.386   6.968  10.171 -1.5933 -1.0283  0.8590
  158SAPE    HY17636  -0.211   6.913  10.212  1.3119  0.8851  2.3327
  158SAPE   O3117637  -0.279   7.054  10.333  0.3584  0.1816  0.0153
  158SAPE   C3117638  -0.362   7.152  10.343  0.0897 -0.8959  0.2191
  158SAPE   O3217639  -0.472   7.155  10.290  0.5397  0.4283 -1.0147
  158SAPE   C3217640  -0.294   7.275  10.402  0.4932  0.2001 -0.1864
  158SAPE   H2X17641  -0.316   7.280  10.511 -2.1848  0.6094 -0.6747
  158SAPE   H2Y17642  -0.338   7.365  10.355  0.9140 -0.1297 -1.2295
  158SAPE   C2317643  -0.461   6.587   9.908 -0.8782 -0.4077 -0.4377
  158SAPE   H3R17644  -0.393   6.670   9.878 -0.3446  0.6930  3.3054
  158SAPE   H3S17645  -0.564   6.629   9.905 -0.4092  0.8395  0.0722
  158SAPE   C2417646  -0.462   6.458   9.841  0.6402  0.3155 -0.0094
  158SAPE   H4R17647  -0.534   6.454   9.756 -1.1395 -1.6863  1.4951
  158SAPE   H4S17648  -0.509   6.392   9.916  1.3335 -1.8832 -1.4065
  158SAPE   C2517649  -0.328   6.402   9.806 -0.2225 -0.0558  0.1224
  158SAPE   H5R17650  -0.255   6.408   9.888 -2.5545  1.2669  2.2753
  158SAPE   C2617651  -0.292   6.334   9.699  0.2383  0.4401  0.6448
  158SAPE   H6R17652  -0.192   6.290   9.685  0.0548  0.4369 -0.7757
  158SAPE   C2717653  -0.387   6.294   9.588  0.6636  0.4934 -0.7595
  158SAPE   H7R17654  -0.478   6.240   9.621  2.4059 -2.5671 -0.5746
  158SAPE   H7S17655  -0.335   6.228   9.515 -0.8879 -0.7216 -0.8173
  158SAPE   C2817656  -0.430   6.416   9.508 -0.2299  0.0312  0.4520
  158SAPE   H8R17657  -0.420   6.521   9.539  1.0873  1.3810 -3.7856
  158SAPE   C2917658  -0.461   6.410   9.374  0.0459 -0.1998 -0.4142
  158SAPE   H9R17659  -0.501   6.498   9.323  0.1307  1.1141  1.6753
  158SAPE  C21017660  -0.470   6.286   9.293  0.1698  0.3853  0.1094
  158SAPE  H10R17661  -0.565   6.287   9.236  1.9770 -0.0900 -3.1148
  158SAPE  H10S17662  -0.476   6.194   9.355  1.5678 -0.0423 -0.3507
  158SAPE  C21117663  -0.360   6.264   9.198  0.2915 -0.8784 -0.0345
  158SAPE  H11R17664  -0.265   6.238   9.248  0.6875 -0.1451 -0.3910
  158SAPE  C21217665  -0.372   6.250   9.062  0.5390 -0.2109 -0.8194
  158SAPE  H12R17666  -0.273   6.259   9.014  0.9544 -0.8864 -0.1074
  158SAPE  C21317667  -0.503   6.262   8.981  0.6169  0.2362  0.1472
  158SAPE  H13R17668  -0.524   6.366   8.949 -2.9238 -0.0619  1.1180
  158SAPE  H13S17669  -0.604   6.247   9.026  0.3479 -1.5780 -0.9766
  158SAPE  C21417670  -0.508   6.173   8.853 -0.5788  0.3464 -1.0219
  158SAPE  H14R17671  -0.517   6.066   8.878 -1.6490  0.8969  1.1601
  158SAPE  C21517672  -0.513   6.221   8.726  0.6102 -0.5275 -0.5667
  158SAPE  H15R17673  -0.510   6.151   8.641 -1.4080  0.5041 -1.5646
  158SAPE  C21617674  -0.511   6.361   8.681 -0.5326 -0.3737 -0.1417
  158SAPE  H16R17675  -0.480   6.366   8.575 -0.7827 -1.2314 -0.2673
  158SAPE  H16S17676  -0.438   6.419   8.741 -1.7111  1.5393 -0.4727
  158SAPE  C21717677  -0.636   6.448   8.691 -0.3530  0.3627  0.3608
  158SAPE  H17R17678  -0.666   6.440   8.798 -1.3992 -1.7626 -0.0231
  158SAPE  H17S17679  -0.724   6.408   8.635 -0.3799  0.6528  0.1953
  158SAPE  C21817680  -0.622   6.593   8.646 -0.1128  0.3460 -0.4315
  158SAPE  H18R17681  -0.533   6.642   8.692 -0.2179 -1.0289  1.3505
  158SAPE  H18S17682  -0.711   6.654   8.672 -0.0646  1.3299 -2.4643
  158SAPE  C21917683  -0.627   6.618   8.500 -0.9118  0.3969  0.5409
  158SAPE  H19R17684  -0.714   6.566   8.455  0.8696 -1.6272 -0.7786
  158SAPE  H19S17685  -0.538   6.571   8.452  2.1356  4.5722  1.4933
  158SAPE  C22017686  -0.627   6.767   8.462  0.3228  0.0176  0.9143
  158SAPE  H20R17687  -0.716   6.816   8.505  0.7157  1.1348  0.4947
  158SAPE  H20S17688  -0.635   6.777   8.351  2.2092  0.2000  0.7603
  158SAPE  H20T17689  -0.543   6.833   8.493 -0.8630  1.0948  1.9246
  158SAPE   C3317690  -0.141   7.301  10.375  0.3605  0.3763 -0.5697
  158SAPE   H3X17691  -0.083   7.209  10.397  1.9019  0.3903 -3.9265
  158SAPE   H3Y17692  -0.107   7.382  10.442 -1.9390  0.4128  0.6408
  158SAPE   C3417693  -0.105   7.344  10.232  0.0544  0.8037  0.0659
  158SAPE   H4X17694  -0.004   7.391  10.231 -1.1262  3.4916  0.6307
  158SAPE   H4Y17695  -0.170   7.425  10.193 -3.0733 -1.9583 -0.9750
  158SAPE   C3517696  -0.092   7.231  10.130 -0.4986  0.3935  0.2139
  158SAPE   H5X17697  -0.194   7.188  10.127 -1.4160  2.4226  0.5838
  158SAPE   H5Y17698  -0.024   7.149  10.161 -0.8900 -0.3488 -0.8217
  158SAPE   C3617699  -0.056   7.285   9.993 -0.6706 -0.0450 -0.4415
  158SAPE   H6X17700   0.043   7.334  10.004 -0.9080  0.3071  0.1476
  158SAPE   H6Y17701  -0.128   7.366   9.971 -0.5252  0.0705 -0.4899
  158SAPE   C3717702  -0.036   7.169   9.893  0.3975  0.0943 -0.1040
  158SAPE   H7X17703  -0.130   7.109   9.889  0.4352  0.0044  0.3452
  158SAPE   H7Y17704   0.043   7.115   9.949  0.2630  2.0691  2.1329
  158SAPE   C3817705   0.011   7.215   9.757  0.1461 -0.6996 -0.2452
  158SAPE   H8X17706   0.093   7.290   9.761 -1.6376  1.3361  0.2077
  158SAPE   H8Y17707  -0.074   7.277   9.721  1.6727  1.1945 -0.7620
  158SAPE   C3917708   0.042   7.102   9.658 -0.7279  0.1506 -0.1712
  158SAPE   H9X17709  -0.037   7.025   9.651 -0.2381 -0.7366  2.7221
  158SAPE   H9Y17710   0.131   7.049   9.700  0.1616  0.3346 -1.7386
  158SAPE  C31017711   0.064   7.159   9.515 -0.1270  0.8299 -0.1360
  158SAPE  H10X17712   0.171   7.184   9.499 -0.2040  0.5000 -1.2489
  158SAPE  H10Y17713  -0.018   7.233   9.501 -1.5687 -0.3541  1.6682
  158SAPE  C31117714   0.024   7.046   9.410  0.0211 -0.2023 -0.3700
  158SAPE  H11X17715  -0.087   7.040   9.412  0.0677 -0.9892 -0.0092
  158SAPE  H11Y17716   0.071   6.947   9.427 -0.0922 -0.2378 -0.2673
  158SAPE  C31217717   0.054   7.082   9.260  0.2156  0.4469 -0.1369
  158SAPE  H12X17718   0.007   7.180   9.236  2.3009  1.2088 -1.3247
  158SAPE  H12Y17719   0.002   7.001   9.203 -0.5618  0.9150 -0.1106
  158SAPE  C31317720   0.195   7.053   9.204  0.6805  0.0578  0.1855
  158SAPE  H13X17721   0.215   6.951   9.243  0.3483 -0.4191 -0.8861
  158SAPE  H13Y17722   0.261   7.135   9.242  1.9172 -1.4930  1.5169
  158SAPE  C31417723   0.201   7.039   9.052  0.4548 -0.5305  0.4094
  158SAPE  H14X17724   0.147   7.133   9.029  0.9636 -0.1529  0.7323
  158SAPE  H14Y17725   0.140   6.951   9.022  1.4884 -2.1380  2.7104
  158SAPE  C31517726   0.339   7.021   8.986  0.0595 -0.1297  0.4439
  158SAPE  H15X17727   0.387   6.943   9.049 -0.8432 -0.2806  0.9636
  158SAPE  H15Y17728   0.391   7.120   8.991 -2.1431  1.1122 -0.2162
  158SAPE  C31617729   0.350   6.979   8.835  0.4443 -0.0822  0.2749
  158SAPE  H16X17730   0.298   6.881   8.835  0.4046 -0.0746 -1.0983
  158SAPE  H16Y17731   0.459   6.970   8.816  0.7044  0.6530  1.2995
  158SAPE  C31717732   0.280   7.075   8.735 -0.2128  0.0097 -0.9668
  158SAPE  H17X17733   0.339   7.169   8.742  1.1827 -0.9252  0.9012
  158SAPE  H17Y17734   0.179   7.104   8.770 -1.3042 -1.4138 -2.7696
  158SAPE  C31817735   0.275   7.016   8.591  0.0552 -0.8950  1.0247
  158SAPE  H18X17736   0.208   6.931   8.571  0.9366 -1.2649 -0.4957
  158SAPE  H18Y17737   0.382   6.993   8.571  0.7061  1.8018  1.0177
  158SAPE  H18Z17738   0.242   7.089   8.513  2.1450  0.6642  1.4764
  159SAPE     N17739   5.116   4.102   6.393  0.1200 -0.0922  0.8989
  159SAPE   HN117740   5.090   4.171   6.466 -1.0736 -0.9478  1.3090
  159SAPE   HN217741   5.163   4.156   6.318 -0.8985 -0.0199  0.2953
  159SAPE   HN317742   5.031   4.052   6.358  1.1026 -1.5099  0.4314
  159SAPE   C1217743   5.214   4.004   6.437 -0.1184  1.0982 -0.6978
  159SAPE  H12A17744   5.264   3.967   6.344  0.0529 -0.4242 -0.0242
  159SAPE  H12B17745   5.180   3.918   6.498  3.3333  0.5163  0.6449
  159SAPE   C1117746   5.320   4.061   6.533  0.4003 -0.7161  0.2115
  159SAPE  H11A17747   5.369   3.972   6.578  2.5298 -0.2186 -0.9772
  159SAPE  H11B17748   5.260   4.113   6.611  0.8594 -0.0178  0.1171
  159SAPE     P17749   5.558   4.102   6.442  0.0894 -0.0098 -0.5391
  159SAPE   O1317750   5.570   3.968   6.378 -0.7444 -0.0379 -0.4303
  159SAPE   O1417751   5.639   4.210   6.389  0.5935  0.4058 -0.2493
  159SAPE   O1217752   5.413   4.144   6.453  0.7265 -0.5052 -0.1636
  159SAPE   O1117753   5.589   4.078   6.590 -0.2185 -0.0301  0.6874
  159SAPE    C117754   5.628   4.177   6.689  0.8746 -0.1161 -0.5547
  159SAPE    HA17755   5.709   4.144   6.758  1.8822  1.9743 -0.6735
  159SAPE    HB17756   5.677   4.262   6.637  1.6010 -1.1711 -1.6433
  159SAPE    C217757   5.509   4.223   6.776 -0.2501  0.2012  0.8958
  159SAPE    HS17758   5.428   4.247   6.705  2.2291  0.7467 -1.9538
  159SAPE   O2117759   5.562   4.333   6.855  0.4330 -0.4271 -0.4649
  159SAPE   C2117760   5.461   4.408   6.900 -0.0888  0.1914 -0.2723
  159SAPE   O2217761   5.344   4.400   6.867 -0.4624 -0.1497 -0.1426
  159SAPE   C2217762   5.516   4.503   7.003  0.4405 -0.4232  0.4133
  159SAPE   H2R17763   5.597   4.449   7.056 -0.6621 -0.8517  1.7242
  159SAPE   H2S17764   5.553   4.593   6.949 -2.9344  1.1198  0.4403
  159SAPE    C317765   5.470   4.099   6.867  0.4772  0.1617 -0.1999
  159SAPE    HX17766   5.450   4.010   6.804  0.7803 -0.4060  0.4929
  159SAPE    HY17767   5.374   4.139   6.906 -0.8365 -2.2946 -0.7185
  159SAPE   O3117768   5.566   4.058   6.968 -0.1547  0.6324  0.0074
  159SAPE   C3117769   5.557   4.117   7.083  0.1752  0.3948  0.1358
  159SAPE   O3217770   5.458   4.180   7.110 -0.7054 -0.9954  0.2837
  159SAPE   C3217771   5.683   4.098   7.163  0.0974 -0.1332  0.2652
  159SAPE   H2X17772   5.771   4.150   7.119 -0.2503  1.0119  0.8775
  159SAPE   H2Y17773   5.707   3.989   7.160  1.9980  0.2737 -1.3943
  159SAPE   C2317774   5.409   4.534   7.107 -0.1261  0.5272  0.1719
  159SAPE   H3R17775   5.340   4.450   7.129  0.4211  0.3421  1.2515
  159SAPE   H3S17776   5.334   4.608   7.070 -1.7825 -1.2942 -0.2653
  159SAPE   C2417777   5.483   4.572   7.238 -0.0886 -0.9067  0.6322
  159SAPE   H4R17778   5.552   4.656   7.218 -1.7976  0.6309  0.9585
  159SAPE   H4S17779   5.544   4.488   7.279  0.4471  0.0630  1.8829
  159SAPE   C2517780   5.378   4.617   7.330  1.1107 -0.3955  0.3057
  159SAPE   H5R17781   5.305   4.687   7.288 -0.3109 -1.3115  1.1604
  159SAPE   C2617782   5.363   4.600   7.464  0.8141 -1.2244  0.0751
  159SAPE   H6R17783   5.278   4.651   7.513 -0.2368  0.1130 -2.8681
  159SAPE   C2717784   5.462   4.535   7.551 -0.0349 -0.5346 -0.2812
  159SAPE   H7R17785   5.561   4.551   7.504 -0.5264  1.5777 -0.6854
  159SAPE   H7S17786   5.431   4.429   7.561 -0.3655 -0.4786 -0.6880
  159SAPE   C2817787   5.472   4.598   7.692  0.3681  0.2447  0.1527
  159SAPE   H8R17788   5.448   4.704   7.706 -0.9490 -0.2229  1.9085
  159SAPE   C2917789   5.520   4.542   7.805  0.0602 -0.5090 -0.2546
  159SAPE   H9R17790   5.522   4.603   7.897  0.3863 -0.6390 -0.1717
  159SAPE  C21017791   5.581   4.408   7.823  1.0510 -0.6169  0.7364
  159SAPE  H10R17792   5.586   4.353   7.726 -0.2423 -0.4560  0.5667
  159SAPE  H10S17793   5.506   4.348   7.879  1.8112 -2.2966  0.0523
  159SAPE  C21117794   5.719   4.395   7.880  0.5613 -0.8105  0.0475
  159SAPE  H11R17795   5.799   4.385   7.805  1.9959 -1.4452  1.5933
  159SAPE  C21217796   5.752   4.391   8.011  0.0457  0.4199  0.6419
  159SAPE  H12R17797   5.858   4.407   8.036  0.4413  0.3594 -0.8710
  159SAPE  C21317798   5.652   4.390   8.122 -0.3423  0.4396  0.2907
  159SAPE  H13R17799   5.607   4.289   8.132 -0.1602  0.2376 -0.8282
  159SAPE  H13S17800   5.572   4.462   8.095  0.9062  1.6669 -0.2719
  159SAPE  C21417801   5.708   4.418   8.260 -1.0351 -1.0757 -0.5477
  159SAPE  H14R17802   5.732   4.331   8.323  0.1110 -0.6553 -0.3857
  159SAPE  C21517803   5.733   4.546   8.307  0.2668  0.7777  0.0502
  159SAPE  H15R17804   5.749   4.553   8.416 -2.1061 -0.4986  0.5476
  159SAPE  C21617805   5.701   4.680   8.235  0.3632  0.9944  0.0676
  159SAPE  H16R17806   5.682   4.661   8.128 -0.7044  1.1185  0.2205
  159SAPE  H16S17807   5.779   4.759   8.238 -0.2176  1.6692 -1.5134
  159SAPE  C21717808   5.577   4.754   8.303 -0.4863 -0.0732  0.5835
  159SAPE  H17R17809   5.617   4.807   8.392  0.0427  2.3929 -1.0352
  159SAPE  H17S17810   5.496   4.688   8.342 -0.2802 -1.2627 -0.9426
  159SAPE  C21817811   5.512   4.855   8.202 -0.2349 -0.5619 -0.1145
  159SAPE  H18R17812   5.465   4.787   8.129 -0.7882 -3.1270  2.4546
  159SAPE  H18S17813   5.585   4.923   8.152 -1.5044  0.3084 -0.8483
  159SAPE  C21917814   5.413   4.945   8.270  0.7040  0.4243 -0.7543
  159SAPE  H19R17815   5.339   4.878   8.318  0.4980  0.9962 -0.2609
  159SAPE  H19S17816   5.363   5.012   8.196  1.6604  1.0815 -0.8219
  159SAPE  C22017817   5.462   5.040   8.377  0.0079  0.6298 -0.0657
  159SAPE  H20R17818   5.565   5.074   8.353 -0.9874  2.9653 -1.3507
  159SAPE  H20S17819   5.454   4.998   8.479  1.2649  1.3948  0.3738
  159SAPE  H20T17820   5.389   5.123   8.388  0.1446  0.8540 -0.8063
  159SAPE   C3317821   5.671   4.152   7.315 -0.2719 -0.3816  0.5726
  159SAPE   H3X17822   5.602   4.239   7.319 -1.5792 -1.3256 -0.6422
  159SAPE   H3Y17823   5.773   4.183   7.346  0.9438 -0.7411 -2.6587
  159SAPE   C3417824   5.615   4.045   7.410  0.2464  0.1478 -0.2329
  159SAPE   H4X17825   5.680   3.956   7.397 -1.3432 -1.0556 -0.3641
  159SAPE   H4Y17826   5.512   4.019   7.376  1.2622 -1.2305 -2.5079
  159SAPE   C3517827   5.607   4.102   7.553  0.0841  0.0789  0.7467
  159SAPE   H5X17828   5.517   4.167   7.558  0.7341  1.1560 -0.6534
  159SAPE   H5Y17829   5.696   4.164   7.578  0.8339 -0.5097 -0.3520
  159SAPE   C3617830   5.587   3.993   7.661 -0.1402 -0.1209 -0.6237
  159SAPE   H6X17831   5.676   3.926   7.659 -0.4480 -0.8026  2.6504
  159SAPE   H6Y17832   5.492   3.948   7.626  0.6378 -0.8683 -1.8547
  159SAPE   C3717833   5.559   4.053   7.796 -0.8230 -0.7270  0.1482
  159SAPE   H7X17834   5.491   4.140   7.786  0.7399  0.5245  0.0125
  159SAPE   H7Y17835   5.652   4.106   7.824 -1.4260  1.1946 -1.2577
  159SAPE   C3817836   5.530   3.957   7.917 -0.7763 -0.1417  0.2547
  159SAPE   H8X17837   5.614   3.886   7.933 -1.6264 -1.3483 -0.4446
  159SAPE   H8Y17838   5.440   3.894   7.897 -0.2615 -0.5772 -0.7617
  159SAPE   C3917839   5.524   4.033   8.044  1.0530 -0.1244  0.2104
  159SAPE   H9X17840   5.443   4.109   8.044  0.1652 -1.0378 -0.4005
  159SAPE   H9Y17841   5.616   4.093   8.053 -0.7820  3.1205 -1.0921
  159SAPE  C31017842   5.509   3.936   8.159 -0.1019  0.0082 -0.2836
  159SAPE  H10X17843   5.585   3.859   8.136 -0.0719 -0.3712  1.0111
  159SAPE  H10Y17844   5.413   3.879   8.157  0.1711 -0.4526 -1.8212
  159SAPE  C31117845   5.528   3.993   8.298 -0.4525 -0.8470 -0.0169
  159SAPE  H11X17846   5.631   4.034   8.301  0.0738 -2.0288 -1.1346
  159SAPE  H11Y17847   5.526   3.922   8.383  0.0023 -1.6872 -0.6945
  159SAPE  C31217848   5.423   4.105   8.311 -0.1268  0.2891 -0.4233
  159SAPE  H12X17849   5.323   4.060   8.295  0.5549 -1.0475 -1.0546
  159SAPE  H12Y17850   5.437   4.190   8.240 -0.4366  1.2264  0.6112
  159SAPE  C31317851   5.434   4.169   8.452 -0.0250 -0.9149  0.1598
  159SAPE  H13X17852   5.530   4.226   8.450 -0.7794  0.4213  0.3792
  159SAPE  H13Y17853   5.417   4.094   8.532  1.7694 -0.9464  0.5517
  159SAPE  C31417854   5.320   4.280   8.451  0.8055 -0.9422 -0.0115
  159SAPE  H14X17855   5.224   4.226   8.441  1.2518 -2.2957  2.3108
  159SAPE  H14Y17856   5.344   4.345   8.364  3.0202 -1.4172  0.1871
  159SAPE  C31517857   5.311   4.363   8.582 -1.1050  0.2208 -0.1861
  159SAPE  H15X17858   5.330   4.299   8.670 -3.5917 -0.2241  0.0920
  159SAPE  H15Y17859   5.220   4.426   8.594 -1.5886 -0.7312  1.3706
  159SAPE  C31617860   5.435   4.451   8.599 -0.0692 -0.2237  0.3357
  159SAPE  H16X17861   5.449   4.496   8.499  1.8036  1.4795  1.2994
  159SAPE  H16Y17862   5.529   4.396   8.625  2.0341  1.3079 -3.3011
  159SAPE  C31717863   5.414   4.557   8.702  0.1851  0.3716 -0.3751
  159SAPE  H17X17864   5.371   4.510   8.793 -1.1141 -0.2992 -1.2981
  159SAPE  H17Y17865   5.331   4.625   8.676 -0.3348 -0.0083  0.2594
  159SAPE  C31817866   5.538   4.636   8.741  0.0503  0.9249 -0.3287
  159SAPE  H18X17867   5.578   4.710   8.668  0.1044  1.2512  0.0304
  159SAPE  H18Y17868   5.613   4.556   8.759 -1.1642 -0.6348 -1.8587
  159SAPE  H18Z17869   5.537   4.695   8.835 -1.4065  0.8744 -0.2879
  160SAPE     N17870   4.221   5.309   6.372  0.8477  0.1376  0.6364
  160SAPE   HN117871   4.152   5.236   6.398  2.1732 -1.5337 -0.3569
  160SAPE   HN217872   4.231   5.371   6.455 -0.7315  0.4631  0.6060
  160SAPE   HN317873   4.169   5.362   6.300  1.4124  1.3884  1.1146
  160SAPE   C1217874   4.348   5.251   6.313 -0.1660 -0.1011  0.1561
  160SAPE  H12A17875   4.386   5.327   6.242 -0.7099  0.1214  0.0998
  160SAPE  H12B17876   4.314   5.179   6.236  0.1296  0.1047 -0.1659
  160SAPE   C1117877   4.453   5.192   6.408  0.1093  0.5159  0.5126
  160SAPE  H11A17878   4.467   5.273   6.483 -0.2120 -0.3094  1.4759
  160SAPE  H11B17879   4.546   5.171   6.351 -1.4431  0.7449 -2.2689
  160SAPE     P17880   4.447   4.970   6.550 -0.1504  0.5777 -0.0719
  160SAPE   O1317881   4.444   4.840   6.479 -0.0388  0.7254  0.4714
  160SAPE   O1417882   4.580   5.005   6.600 -0.8966  0.1601 -0.3274
  160SAPE   O1217883   4.385   5.069   6.453 -0.0243 -0.5097 -0.4903
  160SAPE   O1117884   4.326   4.970   6.654 -0.2046 -0.3497  0.1751
  160SAPE    C117885   4.348   5.038   6.781 -0.2788 -0.0315 -0.4524
  160SAPE    HA17886   4.430   4.981   6.831 -0.7908 -1.6153 -1.3596
  160SAPE    HB17887   4.391   5.140   6.769  0.2691 -0.4488 -2.4359
  160SAPE    C217888   4.208   5.044   6.848  0.2426  0.0394  0.0756
  160SAPE    HS17889   4.148   5.117   6.789  1.3080 -1.5624 -3.2981
  160SAPE   O2117890   4.222   5.078   6.987  0.0005  0.3953 -0.3708
  160SAPE   C2117891   4.114   5.139   7.035 -0.0689 -0.0427  0.4998
  160SAPE   O2217892   4.015   5.176   6.975  0.1077 -0.5361  0.3026
  160SAPE   C2217893   4.141   5.175   7.180  0.2923 -0.5355  0.3250
  160SAPE   H2R17894   4.104   5.094   7.246 -0.8016 -1.0266 -0.8464
  160SAPE   H2S17895   4.248   5.203   7.192  0.7463 -0.7414 -2.4940
  160SAPE    C317896   4.136   4.910   6.823 -0.2535 -0.0114  0.3392
  160SAPE    HX17897   4.195   4.826   6.867 -1.4026 -1.5758 -0.9961
  160SAPE    HY17898   4.131   4.893   6.714  0.0744  0.5426  0.2334
  160SAPE   O3117899   4.004   4.893   6.878 -0.5960 -0.1921  0.3924
  160SAPE   C3117900   3.903   4.961   6.820 -0.0957 -0.3021 -0.0789
  160SAPE   O3217901   3.916   5.026   6.717  0.6357  0.4063  0.1578
  160SAPE   C3217902   3.775   4.959   6.898 -0.1313 -0.6139  0.0992
  160SAPE   H2X17903   3.690   4.988   6.834 -0.0466  0.0287  0.2741
  160SAPE   H2Y17904   3.787   5.046   6.966 -0.2224 -2.0084  1.9916
  160SAPE   C2317905   4.055   5.306   7.221 -0.7093 -0.6266  0.1340
  160SAPE   H3R17906   3.949   5.290   7.192 -0.4089 -0.1922 -1.2989
  160SAPE   H3S17907   4.093   5.397   7.170  0.1492 -1.1241 -0.1444
  160SAPE   C2417908   4.065   5.337   7.368  0.5786  0.5488  0.5238
  160SAPE   H4R17909   4.170   5.357   7.397  0.4882  1.9281 -0.0277
  160SAPE   H4S17910   4.026   5.247   7.420  0.9635  0.6982  1.0831
  160SAPE   C2517911   3.992   5.457   7.402  0.3091  0.3032 -0.1113
  160SAPE   H5R17912   4.006   5.545   7.338  0.7402 -0.3085 -0.8742
  160SAPE   C2617913   3.915   5.473   7.510 -0.8183 -0.1434  0.0880
  160SAPE   H6R17914   3.877   5.573   7.536  2.2871  0.6062  2.3637
  160SAPE   C2717915   3.885   5.367   7.608 -0.1765  0.9654  0.2169
  160SAPE   H7R17916   3.979   5.321   7.647 -0.8338 -1.3440 -0.7396
  160SAPE   H7S17917   3.832   5.282   7.560  0.6056  0.5581  0.0437
  160SAPE   C2817918   3.798   5.419   7.723 -0.3497 -0.3870 -0.0041
  160SAPE   H8R17919   3.690   5.416   7.705 -0.7446  0.4568  1.9335
  160SAPE   C2917920   3.849   5.474   7.838 -0.3292  0.1241  0.3142
  160SAPE   H9R17921   3.783   5.524   7.910 -3.0799 -1.0576 -1.2286
  160SAPE  C21017922   3.995   5.487   7.861 -0.3452 -0.4571 -0.3312
  160SAPE  H10R17923   4.017   5.570   7.932  0.3239 -0.9777  0.0905
  160SAPE  H10S17924   4.051   5.513   7.768 -0.0911 -0.8301 -0.2854
  160SAPE  C21117925   4.052   5.362   7.931  0.5683 -0.4183  0.4550
  160SAPE  H11R17926   4.077   5.296   7.847  0.4541 -1.0272  0.8926
  160SAPE  C21217927   4.067   5.332   8.058  0.0225  0.3010  0.0805
  160SAPE  H12R17928   4.103   5.230   8.078  1.7527  1.0809  1.1531
  160SAPE  C21317929   4.048   5.416   8.181  0.0648 -0.2643 -0.4394
  160SAPE  H13R17930   4.021   5.517   8.143 -1.3507  0.7254  2.8016
  160SAPE  H13S17931   4.148   5.429   8.227  0.5593 -2.3871 -0.8125
  160SAPE  C21417932   3.930   5.370   8.263 -0.1940  0.5369 -0.1288
  160SAPE  H14R17933   3.839   5.359   8.202  0.9633  0.7667 -1.9980
  160SAPE  C21517934   3.919   5.335   8.391 -1.1869  0.5440  0.0970
  160SAPE  H15R17935   3.826   5.282   8.414 -1.1721  0.7434  0.6204
  160SAPE  C21617936   4.038   5.342   8.481 -0.3213 -0.1399 -0.3357
  160SAPE  H16R17937   4.093   5.436   8.457  1.4922 -0.7291  1.2706
  160SAPE  H16S17938   4.110   5.260   8.464  0.6449  1.1615 -3.0868
  160SAPE  C21717939   4.002   5.353   8.628 -0.9055 -0.7228 -0.4825
  160SAPE  H17R17940   4.101   5.366   8.677 -0.4634 -0.0535 -1.5315
  160SAPE  H17S17941   3.946   5.259   8.649 -0.9225 -0.6960 -0.4091
  160SAPE  C21817942   3.912   5.473   8.654 -0.0743 -0.5150  0.2304
  160SAPE  H18R17943   3.808   5.446   8.626  0.6781 -2.5670 -0.7784
  160SAPE  H18S17944   3.951   5.563   8.603  1.7606 -0.6355  1.3511
  160SAPE  C21917945   3.907   5.501   8.806 -0.5482 -0.2143 -0.1161
  160SAPE  H19R17946   3.836   5.585   8.820  0.7475  0.7782  0.6741
  160SAPE  H19S17947   4.003   5.547   8.838 -0.4507 -0.9112  0.6256
  160SAPE  C22017948   3.876   5.382   8.903 -0.2176 -1.0360  0.5493
  160SAPE  H20R17949   3.946   5.298   8.882  0.9951 -0.0783  0.6217
  160SAPE  H20S17950   3.772   5.349   8.881 -0.7229 -0.5870  2.1413
  160SAPE  H20T17951   3.874   5.416   9.008  2.9510  0.1296  0.3468
  160SAPE   C3317952   3.732   4.829   6.985 -0.2736 -0.3647 -0.1025
  160SAPE   H3X17953   3.741   4.740   6.919  0.1696 -0.8052  0.5386
  160SAPE   H3Y17954   3.627   4.849   7.014 -0.8255 -4.6994  1.5058
  160SAPE   C3417955   3.823   4.822   7.110  0.1626 -0.0453 -0.1535
  160SAPE   H4X17956   3.929   4.803   7.082  0.6278  1.0785  0.7785
  160SAPE   H4Y17957   3.796   4.726   7.159  4.7947 -2.3915 -1.6137
  160SAPE   C3517958   3.806   4.933   7.215 -0.6270 -1.2509  0.2698
  160SAPE   H5X17959   3.698   4.951   7.234 -0.5466  1.3032 -1.1139
  160SAPE   H5Y17960   3.856   5.026   7.178  0.1219 -1.3561  0.9946
  160SAPE   C3617961   3.860   4.882   7.349 -0.4704 -0.1024  0.0113
  160SAPE   H6X17962   3.969   4.867   7.331 -0.4492  1.2028 -1.1614
  160SAPE   H6Y17963   3.814   4.785   7.376 -1.7678  0.8587  1.4097
  160SAPE   C3717964   3.833   4.971   7.468 -0.1014  0.2159  0.4545
  160SAPE   H7X17965   3.724   4.967   7.489 -0.3722  0.9056 -0.7683
  160SAPE   H7Y17966   3.845   5.078   7.443 -1.7885  0.3569  0.1635
  160SAPE   C3817967   3.912   4.935   7.594  0.0553  0.5892  0.1782
  160SAPE   H8X17968   4.021   4.942   7.570  0.0362 -1.8534 -0.9744
  160SAPE   H8Y17969   3.887   4.828   7.612 -1.0296  1.0143  1.3083
  160SAPE   C3917970   3.888   5.013   7.713 -0.2492  0.2934  0.5927
  160SAPE   H9X17971   3.780   4.999   7.737 -0.1910  1.7177  1.7858
  160SAPE   H9Y17972   3.886   5.122   7.694  1.9555  0.8212  2.9082
  160SAPE  C31017973   3.964   4.984   7.839 -0.1205 -0.7780  0.1544
  160SAPE  H10X17974   4.067   5.026   7.829 -0.7264  1.2385  1.5584
  160SAPE  H10Y17975   3.979   4.875   7.845 -1.0725 -0.8372  2.2140
  160SAPE  C31117976   3.893   5.012   7.977  0.0354  0.1161 -0.5890
  160SAPE  H11X17977   3.805   4.945   7.980  0.8995 -1.0555  2.9822
  160SAPE  H11Y17978   3.868   5.121   7.975 -2.1851 -0.3490 -0.9446
  160SAPE  C31217979   3.964   4.969   8.098 -0.2690  0.7539  0.0832
  160SAPE  H12X17980   4.046   5.037   8.130 -0.2841  0.5555  0.5522
  160SAPE  H12Y17981   4.016   4.872   8.081 -0.8985  0.3603  0.3865
  160SAPE  C31317982   3.870   4.966   8.219 -0.1717 -0.2059  0.1584
  160SAPE  H13X17983   3.789   4.892   8.202  1.3872 -1.9675  0.0476
  160SAPE  H13Y17984   3.817   5.063   8.217  1.2209  0.6072  0.9946
  160SAPE  C31417985   3.944   4.948   8.350 -0.1402 -0.0580 -0.0453
  160SAPE  H14X17986   4.017   5.029   8.369 -1.1765  0.6606  1.0422
  160SAPE  H14Y17987   4.001   4.854   8.336  0.2292  0.4120 -1.8418
  160SAPE  C31517988   3.848   4.944   8.471  0.4176  0.6133 -0.4326
  160SAPE  H15X17989   3.766   4.870   8.463  1.6815 -1.0787  1.4275
  160SAPE  H15Y17990   3.800   5.044   8.478  0.4251  0.6080 -0.3161
  160SAPE  C31617991   3.935   4.920   8.600 -0.8231 -0.1693 -0.3098
  160SAPE  H16X17992   3.977   5.020   8.620 -1.9853  0.3350 -0.2823
  160SAPE  H16Y17993   4.012   4.841   8.587  1.0695  1.4868  0.3824
  160SAPE  C31717994   3.848   4.873   8.718  0.6471 -0.4734  0.1504
  160SAPE  H17X17995   3.790   4.784   8.685 -1.8137  1.5779 -1.4190
  160SAPE  H17Y17996   3.780   4.958   8.740  0.3999 -0.7014  0.2790
  160SAPE  C31817997   3.926   4.830   8.840  0.0032  0.3488 -0.5663
  160SAPE  H18X17998   3.857   4.772   8.906  1.0579  0.0063  0.2819
  160SAPE  H18Y17999   3.957   4.922   8.894 -0.0607 -0.0093  0.0905
  160SAPE  H18Z18000   4.009   4.766   8.802  0.2432  0.5368 -0.3647
  161SAPE     N18001   6.479   3.742   6.599  0.1377 -0.0988  0.4450
  161SAPE   HN118002   6.510   3.816   6.666 -0.0759 -0.4170  0.9024
  161SAPE   HN218003   6.429   3.664   6.646  2.0966 -1.7827 -0.1153
  161SAPE   HN318004   6.569   3.704   6.563 -0.7632 -0.6325 -1.3780
  161SAPE   C1218005   6.409   3.813   6.488 -0.3961 -0.7005  0.1032
  161SAPE  H12A18006   6.337   3.744   6.439  0.9789  0.5098 -4.0769
  161SAPE  H12B18007   6.475   3.845   6.404 -1.6326  1.7045 -0.0401
  161SAPE   C1118008   6.343   3.946   6.534  0.4251  0.0572 -0.6048
  161SAPE  H11A18009   6.294   3.933   6.633  0.8583  0.5813 -0.3210
  161SAPE  H11B18010   6.263   3.977   6.463 -0.8143  0.0265  0.7254
  161SAPE     P18011   6.482   4.133   6.409  0.1518 -0.3641 -0.0725
  161SAPE   O1318012   6.614   4.084   6.364 -0.0710 -0.4874  0.1930
  161SAPE   O1418013   6.377   4.134   6.310  0.5243 -0.5831  0.2488
  161SAPE   O1218014   6.439   4.047   6.538 -0.1557 -0.3333 -0.3163
  161SAPE   O1118015   6.500   4.276   6.464  0.9221 -0.0219  0.0015
  161SAPE    C118016   6.390   4.368   6.500  0.2683  0.0623  0.2119
  161SAPE    HA18017   6.393   4.455   6.431 -3.0590  0.7716  0.7861
  161SAPE    HB18018   6.287   4.327   6.502  0.1404  0.3783  2.1963
  161SAPE    C218019   6.412   4.421   6.644  0.3087 -0.1103  0.3936
  161SAPE    HS18020   6.320   4.476   6.674 -1.3389 -0.8541 -2.8842
  161SAPE   O2118021   6.524   4.505   6.658  0.5804 -0.4266  0.4161
  161SAPE   C2118022   6.528   4.598   6.751 -0.1705  0.8795 -0.1210
  161SAPE   O2218023   6.434   4.629   6.814  0.0404  0.3188 -0.5153
  161SAPE   C2218024   6.679   4.626   6.782 -0.1527  0.0043  0.6175
  161SAPE   H2R18025   6.740   4.533   6.775  2.0618  1.2835  1.9799
  161SAPE   H2S18026   6.719   4.674   6.690 -0.5241  0.4367  0.6776
  161SAPE    C318027   6.413   4.296   6.738  0.0036 -0.5304  0.2310
  161SAPE    HX18028   6.506   4.239   6.716 -0.1364 -0.6013 -0.1686
  161SAPE    HY18029   6.328   4.232   6.707  0.6520 -1.1020 -0.4054
  161SAPE   O3118030   6.398   4.341   6.882 -0.3179  0.7173  0.0178
  161SAPE   C3118031   6.511   4.328   6.951 -0.6599  0.1890  0.4051
  161SAPE   O3218032   6.616   4.285   6.909 -0.0345 -0.0634  0.2234
  161SAPE   C3218033   6.488   4.382   7.100  0.4293  0.5585  0.0078
  161SAPE   H2X18034   6.379   4.399   7.108  0.6021  0.9224  1.9851
  161SAPE   H2Y18035   6.531   4.484   7.095  0.7348  0.3951 -1.2084
  161SAPE   C2318036   6.705   4.707   6.914 -0.0273  0.4204  0.7573
  161SAPE   H3R18037   6.633   4.683   6.994 -1.2850 -2.9287 -1.2079
  161SAPE   H3S18038   6.707   4.816   6.891 -0.0275  0.4806  1.0384
  161SAPE   C2418039   6.845   4.675   6.985  0.3380  0.4353 -0.3568
  161SAPE   H4R18040   6.855   4.742   7.073  1.8368 -0.2777  0.0406
  161SAPE   H4S18041   6.923   4.717   6.919  0.8742 -1.0963 -0.7326
  161SAPE   C2518042   6.864   4.532   7.017  0.0191  0.5032  0.7382
  161SAPE   H5R18043   6.902   4.472   6.933  1.7889  1.0274  1.1225
  161SAPE   C2618044   6.847   4.465   7.129  0.5428 -0.2678 -0.0860
  161SAPE   H6R18045   6.876   4.360   7.146  0.1058 -0.6743 -1.7113
  161SAPE   C2718046   6.808   4.534   7.256  0.0425  0.1202 -0.6244
  161SAPE   H7R18047   6.757   4.472   7.333 -0.6436  0.0458 -1.1220
  161SAPE   H7S18048   6.732   4.613   7.238 -0.4664 -0.0419  0.7057
  161SAPE   C2818049   6.924   4.611   7.314  0.0789 -0.0929 -0.3075
  161SAPE   H8R18050   6.997   4.646   7.240  0.1481  1.4346  0.4366
  161SAPE   C2918051   6.932   4.646   7.448 -0.5612 -0.2171 -0.1328
  161SAPE   H9R18052   7.032   4.684   7.475  0.5653 -0.8290 -3.0162
  161SAPE  C21018053   6.834   4.620   7.555  0.3482  0.2146 -0.0535
  161SAPE  H10R18054   6.875   4.639   7.656 -0.7574  2.7827 -0.0220
  161SAPE  H10S18055   6.820   4.510   7.542  0.3622 -0.1089  2.3436
  161SAPE  C21118056   6.695   4.668   7.535  0.1459 -0.7387  0.8182
  161SAPE  H11R18057   6.674   4.681   7.428 -1.7270 -0.1760  1.2134
  161SAPE  C21218058   6.605   4.701   7.622 -0.1742  0.8154 -0.7330
  161SAPE  H12R18059   6.509   4.731   7.578 -0.9765 -0.8731 -0.2416
  161SAPE  C21318060   6.627   4.705   7.775 -0.0790  0.4235 -0.2547
  161SAPE  H13R18061   6.647   4.809   7.808  2.7874 -0.5048  1.3021
  161SAPE  H13S18062   6.717   4.643   7.795 -1.1808 -1.4610 -0.8725
  161SAPE  C21418063   6.507   4.639   7.842  0.2920 -0.9307 -0.1832
  161SAPE  H14R18064   6.446   4.561   7.793 -2.0261  0.1007  0.9359
  161SAPE  C21518065   6.476   4.669   7.970 -0.2684 -0.9864  0.1054
  161SAPE  H15R18066   6.391   4.615   8.016  0.1888 -3.2278 -1.5118
  161SAPE  C21618067   6.553   4.769   8.060  0.5706  0.0487 -0.0106
  161SAPE  H16R18068   6.477   4.825   8.118 -0.4624  0.0429 -1.3273
  161SAPE  H16S18069   6.616   4.844   8.007  0.3868 -0.8439 -1.5335
  161SAPE  C21718070   6.646   4.698   8.160  0.2889 -0.6438 -0.3772
  161SAPE  H17R18071   6.581   4.634   8.224  2.7825 -1.9490  1.0099
  161SAPE  H17S18072   6.690   4.767   8.235  1.5036 -3.3624  1.5527
  161SAPE  C21818073   6.756   4.609   8.095  0.4752  0.1777 -0.2936
  161SAPE  H18R18074   6.821   4.668   8.026  0.2156  0.7033 -0.0957
  161SAPE  H18S18075   6.707   4.525   8.042  0.9020  1.0849 -2.2441
  161SAPE  C21918076   6.845   4.568   8.210 -0.4202 -0.3939 -0.2318
  161SAPE  H19R18077   6.879   4.667   8.247 -1.9202  0.3935 -0.8696
  161SAPE  H19S18078   6.924   4.502   8.169  0.1608  1.4953 -2.3695
  161SAPE  C22018079   6.790   4.488   8.327  1.0302  0.9691 -0.4063
  161SAPE  H20R18080   6.777   4.383   8.294  0.0387  0.1410  2.3668
  161SAPE  H20S18081   6.692   4.529   8.357  0.8615  1.6268 -1.8053
  161SAPE  H20T18082   6.869   4.498   8.405  1.8852  1.4312 -1.3092
  161SAPE   C3318083   6.543   4.290   7.210 -0.1701  0.4981 -0.4478
  161SAPE   H3X18084   6.653   4.282   7.192 -0.2752  0.6149 -1.1806
  161SAPE   H3Y18085   6.518   4.183   7.196  0.2502  0.2246  0.7904
  161SAPE   C3418086   6.519   4.338   7.349 -0.2040  0.3775 -0.4177
  161SAPE   H4X18087   6.411   4.355   7.365  0.2436  0.3403  3.7411
  161SAPE   H4Y18088   6.578   4.429   7.376  0.4156  0.1944 -1.1047
  161SAPE   C3518089   6.536   4.229   7.455  0.0606  0.1796 -0.1327
  161SAPE   H5X18090   6.627   4.167   7.438  0.1904  0.4924 -0.5754
  161SAPE   H5Y18091   6.443   4.169   7.453  0.1594  0.0462 -1.2993
  161SAPE   C3618092   6.545   4.294   7.600  0.3511 -0.2962 -0.0821
  161SAPE   H6X18093   6.445   4.337   7.620 -1.0508 -3.1900 -0.3194
  161SAPE   H6Y18094   6.625   4.371   7.598 -1.2478  1.6196  2.9298
  161SAPE   C3718095   6.557   4.190   7.713  0.3616  0.4708 -0.3431
  161SAPE   H7X18096   6.656   4.139   7.712  0.2050  0.1006  1.3268
  161SAPE   H7Y18097   6.482   4.112   7.689  2.3392 -0.7406 -3.2041
  161SAPE   C3818098   6.543   4.251   7.852 -0.0513 -0.2100 -0.2477
  161SAPE   H8X18099   6.449   4.311   7.860 -0.4344 -0.6224 -1.3815
  161SAPE   H8Y18100   6.628   4.322   7.857  0.3974 -0.5063 -2.5181
  161SAPE   C3918101   6.551   4.149   7.973  0.4078  0.1571 -0.1348
  161SAPE   H9X18102   6.638   4.082   7.954  0.2539  0.0839 -0.6091
  161SAPE   H9Y18103   6.451   4.101   7.976  0.7363 -0.5809 -0.7677
  161SAPE  C31018104   6.586   4.230   8.104  0.4734  0.1486  0.0222
  161SAPE  H10X18105   6.513   4.314   8.110 -2.2651 -2.0431 -0.2452
  161SAPE  H10Y18106   6.688   4.272   8.100  1.3496 -1.7669  1.0230
  161SAPE  C31118107   6.583   4.141   8.232  0.0393 -0.1354 -0.0715
  161SAPE  H11X18108   6.486   4.088   8.236  0.4118 -0.8676 -0.4356
  161SAPE  H11Y18109   6.607   4.213   8.313 -0.8125  0.9025 -0.7167
  161SAPE  C31218110   6.683   4.025   8.226  0.4757 -0.5148 -0.1688
  161SAPE  H12X18111   6.786   4.064   8.211 -0.0665  0.4348 -1.6525
  161SAPE  H12Y18112   6.654   3.972   8.132  0.9725 -0.8560 -0.1293
  161SAPE  C31318113   6.664   3.941   8.353 -0.6188  0.0870  0.3434
  161SAPE  H13X18114   6.684   4.015   8.433 -2.9868  0.2110  0.8919
  161SAPE  H13Y18115   6.742   3.861   8.355  0.0823  0.7600  0.4322
  161SAPE  C31418116   6.524   3.890   8.370  0.9995  0.4006 -0.1389
  161SAPE  H14X18117   6.477   3.849   8.278 -1.5893 -2.3890  2.1821
  161SAPE  H14Y18118   6.459   3.974   8.401  0.0770 -0.0463 -0.8047
  161SAPE  C31518119   6.516   3.783   8.479  0.7899  0.4627  0.7949
  161SAPE  H15X18120   6.600   3.711   8.466  0.0345 -0.0873 -1.6008
  161SAPE  H15Y18121   6.415   3.737   8.475  0.9336  0.2216 -1.2413
  161SAPE  C31618122   6.535   3.853   8.615 -0.2421 -0.4205 -0.5405
  161SAPE  H16X18123   6.467   3.938   8.636  1.5737  0.8237  0.5983
  161SAPE  H16Y18124   6.637   3.894   8.629 -0.8291  0.5494  1.2510
  161SAPE  C31718125   6.505   3.750   8.728 -0.3460  0.1577 -0.1098
  161SAPE  H17X18126   6.404   3.707   8.708 -0.5224  0.4769  0.0787
  161SAPE  H17Y18127   6.501   3.806   8.825 -2.0986 -0.1097  0.0159
  161SAPE  C31818128   6.600   3.632   8.737 -0.1043 -0.1607 -0.1404
  161SAPE  H18X18129   6.705   3.667   8.747 -1.1904  3.6737 -0.6250
  161SAPE  H18Y18130   6.599   3.562   8.651  0.4777 -0.7604  0.3365
  161SAPE  H18Z18131   6.582   3.579   8.833 -4.3985 -1.5735 -1.4871
  162SAPE     N18132   4.853   5.066   6.591  0.2584 -0.0141  0.3038
  162SAPE   HN118133   4.884   5.046   6.688 -1.1091 -4.0329  0.1291
  162SAPE   HN218134   4.887   5.157   6.556 -1.0353 -0.0144 -1.0840
  162SAPE   HN318135   4.749   5.075   6.601  0.2262 -0.2192  0.1766
  162SAPE   C1218136   4.890   4.965   6.488 -0.7956 -0.5770  0.0709
  162SAPE  H12A18137   4.861   4.862   6.518  0.4637 -1.3989 -1.4333
  162SAPE  H12B18138   5.001   4.964   6.490 -0.7937 -0.0993  0.7258
  162SAPE   C1118139   4.830   5.006   6.352 -0.0430  0.1458  0.3436
  162SAPE  H11A18140   4.722   4.982   6.348 -0.2519  1.1286 -0.2951
  162SAPE  H11B18141   4.885   4.945   6.277  0.8662  0.9074  0.3696
  162SAPE     P18142   4.843   5.206   6.189 -0.0910 -0.7616  0.5116
  162SAPE   O1318143   4.914   5.118   6.095  0.0471  0.5314  0.3790
  162SAPE   O1418144   4.706   5.243   6.144  0.2529 -0.1362 -0.6250
  162SAPE   O1218145   4.853   5.143   6.329 -0.6889 -0.1467  0.1201
  162SAPE   O1118146   4.929   5.343   6.207  0.3427  0.8860 -0.1183
  162SAPE    C118147   4.960   5.392   6.333  0.1239 -0.1261 -0.0090
  162SAPE    HA18148   5.018   5.325   6.399  1.6633  0.7946 -0.3711
  162SAPE    HB18149   5.033   5.471   6.306  0.5597 -1.0781 -1.8058
  162SAPE    C218150   4.835   5.444   6.408  0.2700  0.1917  0.1727
  162SAPE    HS18151   4.774   5.358   6.442  0.7069  0.1562  0.8980
  162SAPE   O2118152   4.776   5.540   6.316 -0.1467 -0.5757  0.5290
  162SAPE   C2118153   4.652   5.563   6.340 -0.4456  0.0831  0.2285
  162SAPE   O2218154   4.582   5.495   6.413 -0.3376 -0.3327 -0.3985
  162SAPE   C2218155   4.608   5.703   6.293 -0.1216  0.2216  0.0309
  162SAPE   H2R18156   4.583   5.683   6.187 -1.0726  0.1331  0.2618
  162SAPE   H2S18157   4.516   5.740   6.344 -0.5308  1.6248 -1.6326
  162SAPE    C318158   4.891   5.504   6.546  0.4700  0.3716  0.2455
  162SAPE    HX18159   4.952   5.590   6.513 -0.2829  0.6871 -0.3741
  162SAPE    HY18160   4.951   5.420   6.587 -1.1062 -0.7653  0.3616
  162SAPE   O3118161   4.795   5.544   6.642  0.0312  0.4850  0.0597
  162SAPE   C3118162   4.718   5.442   6.685  0.0308 -0.3629 -1.2671
  162SAPE   O3218163   4.728   5.324   6.657 -0.1853 -0.3223  0.0350
  162SAPE   C3218164   4.608   5.507   6.768 -0.4523  0.8005 -0.0545
  162SAPE   H2X18165   4.532   5.548   6.698  0.8333  3.3940 -0.0562
  162SAPE   H2Y18166   4.644   5.596   6.824 -1.9659  1.7760 -0.5729
  162SAPE   C2318167   4.703   5.818   6.302 -0.0975  0.1051  0.3112
  162SAPE   H3R18168   4.800   5.786   6.257 -1.3603 -0.8949 -1.8539
  162SAPE   H3S18169   4.725   5.842   6.409 -2.2873  0.6232  0.6752
  162SAPE   C2418170   4.658   5.949   6.221 -0.1182 -0.0018 -0.3779
  162SAPE   H4R18171   4.576   5.994   6.281 -0.5931 -0.3696 -0.7438
  162SAPE   H4S18172   4.619   5.919   6.121 -1.9215 -2.1747  0.8838
  162SAPE   C2518173   4.761   6.053   6.206 -0.2474  0.1589 -0.2648
  162SAPE   H5R18174   4.843   6.008   6.149  0.6190  1.3542 -0.0103
  162SAPE   C2618175   4.773   6.186   6.250 -0.4382  0.5649 -0.0049
  162SAPE   H6R18176   4.862   6.242   6.216 -1.4936  1.2944 -1.7218
  162SAPE   C2718177   4.669   6.266   6.336  0.0415 -0.0559 -0.3353
  162SAPE   H7R18178   4.684   6.230   6.440  0.0349 -0.5696 -0.5072
  162SAPE   H7S18179   4.567   6.225   6.316 -0.2302 -0.7520  2.1137
  162SAPE   C2818180   4.667   6.415   6.307  0.2963 -0.2719  0.1556
  162SAPE   H8R18181   4.607   6.442   6.219  3.9822  0.6089 -2.3169
  162SAPE   C2918182   4.732   6.510   6.376 -0.2022 -0.6571 -0.3506
  162SAPE   H9R18183   4.733   6.613   6.338 -2.8361  0.4785  2.2857
  162SAPE  C21018184   4.832   6.491   6.479 -0.4437  0.0430  0.0614
  162SAPE  H10R18185   4.867   6.386   6.487  1.8325  0.8811  2.5217
  162SAPE  H10S18186   4.779   6.508   6.575  0.3412 -0.6152  0.6187
  162SAPE  C21118187   4.945   6.591   6.465  0.2631 -0.4554 -0.1247
  162SAPE  H11R18188   4.978   6.604   6.361 -0.8564 -0.8345 -0.5473
  162SAPE  C21218189   5.000   6.673   6.554 -0.2245 -0.2291 -0.2384
  162SAPE  H12R18190   5.088   6.735   6.532  0.6642 -1.5992 -0.6142
  162SAPE  C21318191   4.962   6.685   6.700 -0.0503 -0.0604 -0.2031
  162SAPE  H13R18192   5.031   6.627   6.766 -0.2814 -1.0472 -0.8055
  162SAPE  H13S18193   4.856   6.653   6.709 -0.0612 -0.0858 -0.4180
  162SAPE  C21418194   4.961   6.832   6.740 -0.7182 -0.1489  0.1828
  162SAPE  H14R18195   4.937   6.906   6.662 -0.5700 -0.7491 -0.4454
  162SAPE  C21518196   4.996   6.874   6.863  0.0606  0.6776  0.5094
  162SAPE  H15R18197   4.996   6.981   6.890 -0.3171  0.2028  2.5049
  162SAPE  C21618198   5.033   6.785   6.979  0.5061 -0.5676 -1.0126
  162SAPE  H16R18199   5.141   6.793   7.002  0.5414  1.2292 -1.6196
  162SAPE  H16S18200   5.007   6.680   6.957  0.7320 -0.6266 -0.9980
  162SAPE  C21718201   4.943   6.824   7.101 -0.2064 -0.4710 -0.5144
  162SAPE  H17R18202   4.838   6.802   7.075  0.0033  0.8661 -2.8483
  162SAPE  H17S18203   4.961   6.934   7.108 -0.9983 -0.4391  1.4374
  162SAPE  C21818204   4.985   6.762   7.230  0.2670 -0.6189 -0.5121
  162SAPE  H18R18205   5.089   6.786   7.263 -0.1357 -0.8849  1.0447
  162SAPE  H18S18206   4.984   6.651   7.226 -2.4389 -0.8019  2.1629
  162SAPE  C21918207   4.887   6.813   7.340 -0.8228  0.3468  0.3410
  162SAPE  H19R18208   4.785   6.802   7.296 -0.3613 -3.3233 -0.1279
  162SAPE  H19S18209   4.904   6.920   7.365  0.6498  0.2813 -0.2930
  162SAPE  C22018210   4.900   6.739   7.475  0.1982 -0.2482 -0.7167
  162SAPE  H20R18211   5.002   6.753   7.518  0.4503 -2.8598 -0.3337
  162SAPE  H20S18212   4.878   6.632   7.456 -0.3470 -0.0648 -1.1262
  162SAPE  H20T18213   4.825   6.788   7.541  2.1752  2.0944 -0.0534
  162SAPE   C3318214   4.541   5.410   6.865  0.0359  0.0780  0.2930
  162SAPE   H3X18215   4.621   5.358   6.922 -0.2874 -0.3525  0.3601
  162SAPE   H3Y18216   4.485   5.334   6.806 -1.6783  1.5961 -0.1370
  162SAPE   C3418217   4.437   5.466   6.962  0.1738 -0.3744  0.3734
  162SAPE   H4X18218   4.374   5.383   7.000  1.2519 -1.5580 -0.3419
  162SAPE   H4Y18219   4.365   5.528   6.903  0.0572  2.0509  2.8588
  162SAPE   C3518220   4.485   5.544   7.086 -0.2377 -0.0654  0.5501
  162SAPE   H5X18221   4.566   5.616   7.062 -0.6012  0.1538 -0.0288
  162SAPE   H5Y18222   4.519   5.472   7.164 -1.0779 -1.7088 -0.5521
  162SAPE   C3618223   4.367   5.614   7.158  0.1510  0.0079 -0.1600
  162SAPE   H6X18224   4.286   5.538   7.167 -0.0002 -0.3233 -3.4569
  162SAPE   H6Y18225   4.325   5.695   7.095  0.6057  0.9242  0.6942
  162SAPE   C3718226   4.411   5.660   7.295 -0.9021 -0.1238 -0.0845
  162SAPE   H7X18227   4.492   5.736   7.283 -2.0815  1.1563 -0.1844
  162SAPE   H7Y18228   4.454   5.579   7.358 -2.8514 -1.7671 -0.7593
  162SAPE   C3818229   4.291   5.716   7.373 -0.3672  0.1951  0.0090
  162SAPE   H8X18230   4.223   5.629   7.383  0.2640 -0.4124 -0.7896
  162SAPE   H8Y18231   4.245   5.791   7.305 -1.4243 -0.2765  0.1871
  162SAPE   C3918232   4.321   5.762   7.519  0.4580 -0.3671  0.2619
  162SAPE   H9X18233   4.407   5.832   7.524 -0.6747  1.0292  0.6805
  162SAPE   H9Y18234   4.343   5.673   7.581 -1.2001 -0.4726  0.7541
  162SAPE  C31018235   4.209   5.844   7.588  0.3133 -0.1258 -0.2474
  162SAPE  H10X18236   4.113   5.791   7.571  0.0646 -0.3451  1.5722
  162SAPE  H10Y18237   4.203   5.953   7.567  0.6428 -0.2799 -1.1825
  162SAPE  C31118238   4.234   5.839   7.737  0.1674 -1.2247 -0.0300
  162SAPE  H11X18239   4.318   5.910   7.755  0.0175 -1.1873  0.5427
  162SAPE  H11Y18240   4.261   5.736   7.769 -0.2518 -1.2286  0.3093
  162SAPE  C31218241   4.121   5.893   7.823  0.1083 -0.3505  0.5508
  162SAPE  H12X18242   4.031   5.832   7.799 -1.0635  0.9361  1.4623
  162SAPE  H12Y18243   4.114   5.999   7.788 -1.1791  0.0707  1.9662
  162SAPE  C31318244   4.157   5.879   7.969  0.6409  0.0038 -0.4963
  162SAPE  H13X18245   4.233   5.952   8.006 -2.1172  3.4855 -1.1134
  162SAPE  H13Y18246   4.189   5.775   7.990 -1.0498 -0.4423 -0.0002
  162SAPE  C31418247   4.048   5.912   8.074  0.5256 -0.1513  0.4300
  162SAPE  H14X18248   4.006   6.013   8.052 -1.0551 -0.6116  1.1679
  162SAPE  H14Y18249   4.084   5.914   8.180  0.2769  3.2871  0.5662
  162SAPE  C31518250   3.927   5.815   8.070 -0.0494 -0.4960 -0.1884
  162SAPE  H15X18251   3.969   5.713   8.086 -2.4681 -1.3255  1.4575
  162SAPE  H15Y18252   3.874   5.826   7.974 -1.5951 -1.7445  0.4760
  162SAPE  C31618253   3.829   5.849   8.188  0.8527  0.3312  0.0244
  162SAPE  H16X18254   3.778   5.946   8.174 -0.1763 -0.2584 -0.4618
  162SAPE  H16Y18255   3.887   5.847   8.283  2.2545 -1.7567 -0.7904
  162SAPE  C31718256   3.716   5.745   8.199 -0.9201 -0.4735 -0.4938
  162SAPE  H17X18257   3.770   5.651   8.223 -0.6437 -0.1853  0.0517
  162SAPE  H17Y18258   3.671   5.719   8.101  1.0527 -0.5367 -1.4349
  162SAPE  C31818259   3.613   5.771   8.314 -0.1376  0.4199  0.1493
  162SAPE  H18X18260   3.564   5.673   8.329 -1.1049  1.0698  1.4862
  162SAPE  H18Y18261   3.539   5.852   8.296 -2.2032 -1.5724 -0.7041
  162SAPE  H18Z18262   3.671   5.794   8.406  1.2029  2.3579 -1.0834
  163SAPE     N18263   3.253   4.940   6.233 -0.5517 -0.6786 -0.0287
  163SAPE   HN118264   3.239   4.932   6.131  1.8718 -0.4699 -0.4383
  163SAPE   HN218265   3.351   4.963   6.260 -0.4533 -0.4736 -0.5582
  163SAPE   HN318266   3.235   4.846   6.274 -1.4162  0.0331  1.2952
  163SAPE   C1218267   3.173   5.048   6.297  0.2981  0.6030  0.5335
  163SAPE  H12A18268   3.069   5.030   6.261 -0.1932 -0.8467  2.5270
  163SAPE  H12B18269   3.216   5.144   6.261 -0.7596  0.3128 -1.7177
  163SAPE   C1118270   3.185   5.052   6.451  0.3821  0.3232  0.0667
  163SAPE  H11A18271   3.135   5.144   6.489 -0.6373 -1.1639  2.6115
  163SAPE  H11B18272   3.288   5.077   6.487  1.1730  2.7161 -3.4002
  163SAPE     P18273   3.058   4.931   6.636 -0.2870 -0.0583 -0.0055
  163SAPE   O1318274   2.924   4.989   6.613 -0.2808  0.1887  0.0118
  163SAPE   O1418275   3.064   4.794   6.686 -0.0649 -0.6984 -0.8962
  163SAPE   O1218276   3.140   4.931   6.508 -0.1794 -0.1555  0.4875
  163SAPE   O1118277   3.139   5.024   6.727 -0.1696 -0.2379 -0.2116
  163SAPE    C118278   3.249   4.984   6.808 -0.7484  0.2654  0.2438
  163SAPE    HA18279   3.292   4.887   6.777 -0.7681 -0.0163  1.0762
  163SAPE    HB18280   3.320   5.069   6.794  0.4677 -0.9438 -1.3053
  163SAPE    C218281   3.205   4.975   6.954 -0.1634 -0.0890  0.0150
  163SAPE    HS18282   3.121   4.903   6.958 -0.0251 -0.2868 -0.6086
  163SAPE   O2118283   3.175   5.104   7.007  0.0179 -0.8060  0.1573
  163SAPE   C2118284   3.044   5.138   7.022 -0.5408  0.1655 -0.2941
  163SAPE   O2218285   2.952   5.061   6.997 -0.1361 -0.3529  0.4696
  163SAPE   C2218286   3.027   5.278   7.066 -0.3064 -0.1022  0.0011
  163SAPE   H2R18287   3.084   5.343   6.996 -0.9555  0.3527 -0.1169
  163SAPE   H2S18288   2.923   5.313   7.049 -0.4493 -0.5547 -0.0638
  163SAPE    C318289   3.309   4.918   7.048 -0.1255  0.0261  0.3217
  163SAPE    HX18290   3.255   4.915   7.145  0.0332  0.4849  0.4228
  163SAPE    HY18291   3.402   4.976   7.063  0.5411 -0.6877 -0.8558
  163SAPE   O3118292   3.348   4.783   7.010 -0.2199 -0.4046 -0.4618
  163SAPE   C3118293   3.267   4.686   7.045 -0.2916 -0.4014  0.6380
  163SAPE   O3218294   3.153   4.699   7.091 -0.4205  0.0070 -0.3763
  163SAPE   C3218295   3.331   4.539   7.015 -0.5907 -0.7482 -0.1148
  163SAPE   H2X18296   3.278   4.504   6.924 -1.9250  1.7556 -0.3758
  163SAPE   H2Y18297   3.309   4.490   7.112 -1.2140  0.8493  0.5803
  163SAPE   C2318298   3.087   5.299   7.211 -0.0833  1.0216 -0.3459
  163SAPE   H3R18299   3.092   5.408   7.230  0.8957  0.9269  0.0206
  163SAPE   H3S18300   3.196   5.278   7.212 -0.3924 -0.7438 -0.6994
  163SAPE   C2418301   3.014   5.228   7.327  0.4120  0.0472 -0.3485
  163SAPE   H4R18302   2.906   5.254   7.327  0.4705  0.5946  2.6631
  163SAPE   H4S18303   3.059   5.258   7.424  2.0246 -1.5370 -0.5679
  163SAPE   C2518304   3.036   5.076   7.326  0.5241  0.5037  0.0121
  163SAPE   H5R18305   2.957   5.017   7.278  0.4868  1.4780 -1.2025
  163SAPE   C2618306   3.135   5.003   7.388 -0.0646  0.8853  0.2614
  163SAPE   H6R18307   3.138   4.895   7.370 -1.4440  0.8717  0.0160
  163SAPE   C2718308   3.237   5.065   7.477 -0.1174  0.6275  0.2946
  163SAPE   H7R18309   3.196   5.083   7.579  4.3731 -3.5144  3.2768
  163SAPE   H7S18310   3.271   5.164   7.441 -0.4767  0.9462  0.8025
  163SAPE   C2818311   3.370   4.994   7.491 -0.0258  0.1663  0.3767
  163SAPE   H8R18312   3.393   4.911   7.422 -1.0829 -0.3689  0.6364
  163SAPE   C2918313   3.454   5.024   7.601  0.6535  0.1499  0.1590
  163SAPE   H9R18314   3.543   4.961   7.613 -0.1619 -1.2223 -0.6957
  163SAPE  C21018315   3.425   5.135   7.700  0.3582  0.2006  0.5871
  163SAPE  H10R18316   3.371   5.215   7.645 -0.0642 -1.9819 -2.4402
  163SAPE  H10S18317   3.520   5.179   7.735  1.2883 -1.4677  0.2519
  163SAPE  C21118318   3.361   5.084   7.820  0.6966  0.1987  0.5702
  163SAPE  H11R18319   3.319   4.983   7.814 -2.7682  1.3244  2.7761
  163SAPE  C21218320   3.346   5.156   7.936  0.3383  0.0949  0.0230
  163SAPE  H12R18321   3.294   5.107   8.019 -1.4664 -0.2764 -1.2480
  163SAPE  C21318322   3.395   5.298   7.964 -1.4213 -0.1747  0.0561
  163SAPE  H13R18323   3.322   5.355   8.025  0.1911 -0.9590  2.9224
  163SAPE  H13S18324   3.406   5.351   7.867  1.3455  0.0083  0.3729
  163SAPE  C21418325   3.527   5.303   8.038  0.3981  0.1575  0.1091
  163SAPE  H14R18326   3.615   5.321   7.974 -1.0653  0.3864 -1.9383
  163SAPE  C21518327   3.545   5.277   8.164 -0.3707  0.4726  0.3154
  163SAPE  H15R18328   3.646   5.280   8.207 -0.5994 -0.3787  0.9406
  163SAPE  C21618329   3.434   5.246   8.271  0.1263 -0.6795 -0.4500
  163SAPE  H16R18330   3.441   5.145   8.316 -0.1172 -0.4215  0.1892
  163SAPE  H16S18331   3.337   5.261   8.220 -0.2347 -0.1309  0.3594
  163SAPE  C21718332   3.421   5.334   8.394 -0.2157 -0.2239 -0.7499
  163SAPE  H17R18333   3.318   5.334   8.435 -0.2593 -1.2569 -0.8271
  163SAPE  H17S18334   3.438   5.442   8.379 -1.3951  0.7230  3.3968
  163SAPE  C21818335   3.505   5.269   8.509 -0.4903  0.3034 -0.9350
  163SAPE  H18R18336   3.612   5.275   8.480  0.3314 -1.9180  1.2756
  163SAPE  H18S18337   3.492   5.161   8.532 -0.0451  0.5750  0.7885
  163SAPE  C21918338   3.497   5.339   8.648 -0.1808 -0.5765  0.0056
  163SAPE  H19R18339   3.591   5.320   8.704 -0.7961  0.8751  1.6240
  163SAPE  H19S18340   3.406   5.303   8.703  1.4615 -3.5993  1.0064
  163SAPE  C22018341   3.481   5.496   8.632 -0.8117  0.5120 -0.7376
  163SAPE  H20R18342   3.558   5.535   8.563  0.9633 -1.2523  0.1181
  163SAPE  H20S18343   3.480   5.539   8.735 -4.0445 -0.5419 -0.2266
  163SAPE  H20T18344   3.380   5.523   8.595 -1.2586  1.8155  1.2689
  163SAPE   C3318345   3.480   4.537   6.982 -0.5845  0.1128 -0.0096
  163SAPE   H3X18346   3.512   4.631   6.932  0.2453 -0.2345 -0.1461
  163SAPE   H3Y18347   3.499   4.446   6.922  1.9954  0.5645 -0.0081
  163SAPE   C3418348   3.576   4.536   7.098 -0.1353 -0.1255 -0.2147
  163SAPE   H4X18349   3.554   4.624   7.163  0.3146  1.7337 -2.4575
  163SAPE   H4Y18350   3.682   4.555   7.072 -0.4305  1.4204 -0.3842
  163SAPE   C3518351   3.573   4.407   7.189 -0.6829 -0.4825  0.0400
  163SAPE   H5X18352   3.606   4.320   7.128  1.4723  0.8047 -0.7651
  163SAPE   H5Y18353   3.470   4.382   7.219 -1.0861  1.3050  0.2561
  163SAPE   C3618354   3.651   4.416   7.322 -0.0973  0.7464 -0.0753
  163SAPE   H6X18355   3.758   4.397   7.297 -0.6573 -0.0344 -2.1254
  163SAPE   H6Y18356   3.621   4.332   7.387 -0.1104  0.5849 -0.2872
  163SAPE   C3718357   3.626   4.544   7.407  0.7493 -0.8901 -0.4811
  163SAPE   H7X18358   3.516   4.561   7.410  1.0513  1.7635 -1.1514
  163SAPE   H7Y18359   3.652   4.636   7.351 -1.3853 -0.4297 -0.8015
  163SAPE   C3818360   3.679   4.546   7.554 -0.1487 -0.0116 -0.1147
  163SAPE   H8X18361   3.790   4.547   7.559 -0.0194  1.2011 -2.1069
  163SAPE   H8Y18362   3.646   4.454   7.607 -1.8578  0.0498 -0.9942
  163SAPE   C3918363   3.623   4.661   7.636 -0.0459  0.4223  0.5129
  163SAPE   H9X18364   3.514   4.645   7.632 -0.3149  2.0616 -3.2337
  163SAPE   H9Y18365   3.624   4.757   7.581 -0.0956  0.9093  1.3459
  163SAPE  C31018366   3.679   4.664   7.780 -0.4508  0.2303  0.2685
  163SAPE  H10X18367   3.787   4.690   7.784 -0.7041  1.7110 -1.2318
  163SAPE  H10Y18368   3.662   4.562   7.820  0.6051  0.3222  0.9729
  163SAPE  C31118369   3.610   4.770   7.864  0.8639 -0.2107 -0.2862
  163SAPE  H11X18370   3.504   4.760   7.833  1.5223  2.9852 -4.3635
  163SAPE  H11Y18371   3.636   4.871   7.827 -0.6667  0.1778 -0.3302
  163SAPE  C31218372   3.614   4.753   8.015  0.0087 -0.4790 -0.6184
  163SAPE  H12X18373   3.587   4.844   8.073  0.7790 -1.1886  0.9136
  163SAPE  H12Y18374   3.720   4.737   8.043 -0.0451  1.6653  1.0742
  163SAPE  C31318375   3.538   4.633   8.068 -0.5147 -0.6790  0.6358
  163SAPE  H13X18376   3.573   4.537   8.024 -1.4394 -0.1574 -1.3333
  163SAPE  H13Y18377   3.434   4.646   8.033 -0.4149  2.1625  1.1758
  163SAPE  C31418378   3.533   4.618   8.229 -0.6780  0.0694 -0.1340
  163SAPE  H14X18379   3.630   4.567   8.246 -0.4431  0.4265 -0.3938
  163SAPE  H14Y18380   3.454   4.547   8.259 -0.1231 -0.9466 -1.0054
  163SAPE  C31518381   3.514   4.745   8.305 -0.0876  0.4157 -0.2596
  163SAPE  H15X18382   3.421   4.799   8.278  1.7173  4.0607  0.1869
  163SAPE  H15Y18383   3.602   4.807   8.279 -0.4199  1.0115  0.0250
  163SAPE  C31618384   3.506   4.715   8.456  0.6953 -0.2136 -0.1248
  163SAPE  H16X18385   3.599   4.661   8.485  0.5198 -0.7468 -0.5350
  163SAPE  H16Y18386   3.412   4.656   8.464  0.4792 -0.0065 -1.0304
  163SAPE  C31718387   3.479   4.843   8.531 -0.0578  0.1645  0.2103
  163SAPE  H17X18388   3.375   4.879   8.512  0.3762  0.8960 -0.9086
  163SAPE  H17Y18389   3.546   4.925   8.497 -1.3365  0.8381 -0.8112
  163SAPE  C31818390   3.496   4.829   8.681  0.4808  0.1264  0.4220
  163SAPE  H18X18391   3.595   4.793   8.717 -0.1966  0.8873  3.2994
  163SAPE  H18Y18392   3.431   4.744   8.712  0.0851  0.7712  1.3987
  163SAPE  H18Z18393   3.464   4.920   8.736 -0.0947 -1.0789  2.1556
  164SAPE     N18394   6.590   1.351   5.969 -0.1890 -0.3896 -0.1849
  164SAPE   HN118395   6.531   1.315   6.046  0.5964  0.2686  0.7419
  164SAPE   HN218396   6.524   1.366   5.889  1.4647  1.7329 -1.2294
  164SAPE   HN318397   6.657   1.276   5.942 -1.5822 -2.2200  1.1747
  164SAPE   C1218398   6.654   1.478   6.012 -0.3638  0.2193 -0.3982
  164SAPE  H12A18399   6.702   1.521   5.923 -0.3770  0.1248 -0.4511
  164SAPE  H12B18400   6.736   1.451   6.081 -0.0274 -0.9771 -1.2400
  164SAPE   C1118401   6.555   1.571   6.085 -0.6590  0.6232 -0.0661
  164SAPE  H11A18402   6.606   1.657   6.133 -1.1599 -0.2914  2.2192
  164SAPE  H11B18403   6.519   1.513   6.173  0.5756  1.0276  0.7463
  164SAPE     P18404   6.366   1.738   6.012  0.0448  0.6343  0.0195
  164SAPE   O1318405   6.441   1.846   5.958 -0.3274 -0.2953 -0.1811
  164SAPE   O1418406   6.237   1.707   5.947  0.8026  0.0174 -0.1683
  164SAPE   O1218407   6.450   1.609   5.997 -0.6734  0.1640  0.1382
  164SAPE   O1118408   6.359   1.750   6.178 -0.0754  0.3068  0.8279
  164SAPE    C118409   6.264   1.698   6.270  0.3904  0.3013  0.2512
  164SAPE    HA18410   6.164   1.713   6.223  0.1912  0.8634  0.8530
  164SAPE    HB18411   6.288   1.590   6.283  0.8846  0.0081 -2.3670
  164SAPE    C218412   6.248   1.760   6.411 -0.4074  0.3434 -0.4489
  164SAPE    HS18413   6.261   1.870   6.404  2.0678  0.1143 -0.4004
  164SAPE   O2118414   6.341   1.699   6.502 -0.3565 -0.8767  0.9919
  164SAPE   C2118415   6.469   1.744   6.491  0.3574 -0.0235  0.1698
  164SAPE   O2218416   6.500   1.841   6.421  0.5509  0.4131  0.1527
  164SAPE   C2218417   6.564   1.667   6.590  1.2526  1.0059 -0.2670
  164SAPE   H2R18418   6.577   1.568   6.540 -1.2100  0.3725  0.2373
  164SAPE   H2S18419   6.657   1.727   6.592  0.1849  2.7319  2.7267
  164SAPE    C318420   6.108   1.728   6.463  0.4906  0.4120 -0.4110
  164SAPE    HX18421   6.098   1.618   6.466  0.0817  0.4138 -1.4024
  164SAPE    HY18422   6.038   1.770   6.388  0.3125 -1.5689 -1.4243
  164SAPE   O3118423   6.088   1.779   6.593 -0.3025 -0.5490 -0.1175
  164SAPE   C3118424   6.023   1.719   6.688  0.2197  0.0785 -0.5631
  164SAPE   O3218425   5.987   1.599   6.686 -0.3419  0.0861  0.0038
  164SAPE   C3218426   6.029   1.798   6.818 -0.3439 -0.1893  0.1083
  164SAPE   H2X18427   6.042   1.907   6.802  1.3271 -0.2820  0.6525
  164SAPE   H2Y18428   6.127   1.759   6.853 -0.6401 -1.7210 -0.6571
  164SAPE   C2318429   6.496   1.653   6.728 -0.0153  0.1301  0.8037
  164SAPE   H3R18430   6.408   1.586   6.726  1.5146 -1.9409 -1.4188
  164SAPE   H3S18431   6.452   1.750   6.762 -0.0175 -0.2653  1.9895
  164SAPE   C2418432   6.593   1.602   6.827  0.1396  0.0055 -0.7824
  164SAPE   H4R18433   6.674   1.677   6.837  2.4942 -2.2746 -1.8194
  164SAPE   H4S18434   6.636   1.513   6.775 -2.4064 -0.6233 -1.9839
  164SAPE   C2518435   6.521   1.561   6.958  0.1936  0.3136 -0.1942
  164SAPE   H5R18436   6.424   1.512   6.942 -0.1993  1.4401 -1.4302
  164SAPE   C2618437   6.562   1.584   7.086  0.6461 -0.0274  0.8230
  164SAPE   H6R18438   6.500   1.545   7.168  1.4107 -1.4913  0.7228
  164SAPE   C2718439   6.684   1.662   7.131 -0.1838 -0.1940  0.0890
  164SAPE   H7R18440   6.680   1.772   7.111 -1.1233 -0.0964  0.7323
  164SAPE   H7S18441   6.772   1.629   7.072  1.5662  1.9699  1.3377
  164SAPE   C2818442   6.724   1.652   7.278  0.1073 -0.1222 -0.1228
  164SAPE   H8R18443   6.728   1.744   7.339  0.4327 -0.3819  0.2605
  164SAPE   C2918444   6.773   1.543   7.339  0.4339 -0.6012 -0.8432
  164SAPE   H9R18445   6.804   1.557   7.443 -0.6204  2.4199 -0.8340
  164SAPE  C21018446   6.790   1.409   7.279 -0.5066  0.5795 -0.4625
  164SAPE  H10R18447   6.891   1.385   7.318 -1.3025  0.5474  1.7085
  164SAPE  H10S18448   6.796   1.408   7.168 -0.1758 -0.5827 -0.4520
  164SAPE  C21118449   6.686   1.301   7.310 -0.5677  0.5726  0.2602
  164SAPE  H11R18450   6.606   1.294   7.235 -0.2534  1.0641 -0.1275
  164SAPE  C21218451   6.672   1.228   7.421  0.4502 -0.5257 -0.3350
  164SAPE  H12R18452   6.590   1.156   7.435  1.4559 -1.4309  1.2222
  164SAPE  C21318453   6.763   1.230   7.545  0.4072  0.5342  0.8349
  164SAPE  H13R18454   6.867   1.264   7.527  0.3545  0.2937  0.0142
  164SAPE  H13S18455   6.778   1.128   7.587 -1.9671 -0.4828 -0.5688
  164SAPE  C21418456   6.694   1.315   7.653 -0.2692 -0.5695  0.1250
  164SAPE  H14R18457   6.643   1.404   7.613 -0.7251 -0.8590  0.0614
  164SAPE  C21518458   6.675   1.289   7.780  0.6071 -0.2401  0.2839
  164SAPE  H15R18459   6.605   1.350   7.838  1.1945 -0.6597  1.4843
  164SAPE  C21618460   6.712   1.161   7.852 -0.1866 -0.4278 -0.1975
  164SAPE  H16R18461   6.796   1.115   7.795 -0.1550 -0.1514 -0.3775
  164SAPE  H16S18462   6.634   1.083   7.856  1.3361 -1.9847  2.9664
  164SAPE  C21718463   6.755   1.185   8.003  0.7753 -0.9413  0.8278
  164SAPE  H17R18464   6.654   1.209   8.043 -0.8292  0.5704 -3.5040
  164SAPE  H17S18465   6.828   1.269   8.000  1.9119 -1.8038  2.6780
  164SAPE  C21818466   6.818   1.069   8.071 -1.2753  0.5257 -0.3749
  164SAPE  H18R18467   6.909   1.108   8.121  0.1081 -2.0503 -0.6881
  164SAPE  H18S18468   6.868   0.998   8.001  2.9394  2.4044  0.4401
  164SAPE  C21918469   6.723   0.993   8.157  1.2452  0.8123 -0.2497
  164SAPE  H19R18470   6.669   0.921   8.093  0.2875 -0.7155  2.1498
  164SAPE  H19S18471   6.641   1.054   8.200  0.4478 -0.6152  0.3407
  164SAPE  C22018472   6.781   0.913   8.271  0.0109 -0.1474  0.0748
  164SAPE  H20R18473   6.696   0.861   8.320  0.0993 -1.5369 -1.1543
  164SAPE  H20S18474   6.839   0.978   8.339  1.3142 -1.7779  0.5883
  164SAPE  H20T18475   6.859   0.838   8.242  2.4675  1.8310  1.1598
  164SAPE   C3318476   5.916   1.759   6.922 -0.3738 -0.3652 -0.5858
  164SAPE   H3X18477   5.888   1.653   6.911 -0.4632 -0.6490  1.8210
  164SAPE   H3Y18478   5.815   1.804   6.912 -0.3056 -0.2716 -0.8603
  164SAPE   C3418479   5.963   1.791   7.069  0.3787  0.2056  0.4091
  164SAPE   H4X18480   6.013   1.890   7.079 -0.6562  0.7817  0.0143
  164SAPE   H4Y18481   6.046   1.719   7.088 -0.6298 -0.9289  0.5690
  164SAPE   C3518482   5.850   1.764   7.167 -0.4060 -1.1760  0.6080
  164SAPE   H5X18483   5.848   1.653   7.169  1.2009 -1.3182 -1.8586
  164SAPE   H5Y18484   5.756   1.813   7.135  0.8402  0.7269 -0.2864
  164SAPE   C3618485   5.883   1.820   7.303 -0.1977 -0.5914  0.2924
  164SAPE   H6X18486   5.898   1.929   7.286 -0.8246 -0.7867 -1.7621
  164SAPE   H6Y18487   5.975   1.777   7.348  0.5414  0.1052 -0.5229
  164SAPE   C3718488   5.760   1.820   7.410 -0.0105 -0.0036  0.1046
  164SAPE   H7X18489   5.753   1.716   7.449  0.0662  0.2660  0.8694
  164SAPE   H7Y18490   5.670   1.843   7.350 -0.5602 -3.5481 -0.6333
  164SAPE   C3818491   5.797   1.909   7.529 -0.0604  0.1015  0.9227
  164SAPE   H8X18492   5.842   2.007   7.505 -0.2685 -0.4347 -1.9487
  164SAPE   H8Y18493   5.878   1.846   7.572 -0.2550  0.2325  1.4875
  164SAPE   C3918494   5.676   1.941   7.614  0.0429 -0.1183 -0.6135
  164SAPE   H9X18495   5.621   1.845   7.625 -1.5710  0.4156 -3.0615
  164SAPE   H9Y18496   5.610   2.010   7.557 -1.0610  0.1086  0.8805
  164SAPE  C31018497   5.704   1.985   7.753 -1.0065  0.2400 -0.6091
  164SAPE  H10X18498   5.600   2.014   7.779 -0.8069 -0.4707  1.1059
  164SAPE  H10Y18499   5.773   2.072   7.757 -0.7187 -0.0070  2.8512
  164SAPE  C31118500   5.770   1.872   7.843 -0.2217  0.5676  0.0975
  164SAPE  H11X18501   5.881   1.881   7.849 -0.0775 -1.5106  1.3491
  164SAPE  H11Y18502   5.744   1.775   7.797  0.7243  0.0686  0.5833
  164SAPE  C31218503   5.719   1.875   7.984  0.1011 -0.2101  0.5179
  164SAPE  H12X18504   5.608   1.880   7.985  0.1405  1.5325  0.0427
  164SAPE  H12Y18505   5.754   1.972   8.027  1.8316 -0.7155  0.3451
  164SAPE  C31318506   5.764   1.756   8.061  0.2362 -0.3655 -1.0837
  164SAPE  H13X18507   5.875   1.757   8.053  0.2282  0.3261 -1.1524
  164SAPE  H13Y18508   5.731   1.660   8.016 -2.1593  1.2340 -2.9828
  164SAPE  C31418509   5.722   1.763   8.208 -0.2201 -0.1130  0.6684
  164SAPE  H14X18510   5.613   1.743   8.216 -0.2765  0.8502  3.3017
  164SAPE  H14Y18511   5.743   1.868   8.237  0.7483 -0.7264  2.3536
  164SAPE  C31518512   5.787   1.672   8.309 -0.2133  0.3644  0.4960
  164SAPE  H15X18513   5.757   1.566   8.294 -1.2986  0.7249 -0.0149
  164SAPE  H15Y18514   5.747   1.700   8.409  0.6968 -1.5760  1.4711
  164SAPE  C31618515   5.937   1.682   8.303 -0.1267  0.0886 -0.5619
  164SAPE  H16X18516   5.961   1.789   8.286  2.4307 -0.0498  1.5843
  164SAPE  H16Y18517   5.983   1.621   8.223 -0.1681  1.5374 -1.7164
  164SAPE  C31718518   5.999   1.636   8.436 -0.3211 -0.0478 -0.2685
  164SAPE  H17X18519   5.964   1.536   8.470 -1.4408  0.5211  0.3207
  164SAPE  H17Y18520   5.951   1.703   8.511  0.1461  0.4380 -0.3993
  164SAPE  C31818521   6.150   1.643   8.441 -0.4130  0.5760  0.2861
  164SAPE  H18X18522   6.192   1.554   8.390 -0.1640  1.4203 -1.0410
  164SAPE  H18Y18523   6.200   1.636   8.540 -0.7943 -1.8821  0.3569
  164SAPE  H18Z18524   6.184   1.738   8.393 -0.7614  0.4818 -0.1544
  165SAPE     N18525   1.176   4.769   6.555  0.1400  0.1161 -0.4871
  165SAPE   HN118526   1.260   4.707   6.548 -0.2551 -0.4531 -0.2869
  165SAPE   HN218527   1.088   4.715   6.541  0.4610 -0.3159 -0.8828
  165SAPE   HN318528   1.165   4.844   6.484 -0.9286 -1.2487 -1.8275
  165SAPE   C1218529   1.180   4.831   6.693 -0.3173 -0.1338 -0.5908
  165SAPE  H12A18530   1.264   4.903   6.687  0.7335 -1.3430 -0.6403
  165SAPE  H12B18531   1.223   4.755   6.761  2.5952  1.5519 -0.4225
  165SAPE   C1118532   1.042   4.877   6.737  0.5357  0.6093 -0.2069
  165SAPE  H11A18533   1.048   4.897   6.846  0.9087  0.7418 -0.2479
  165SAPE  H11B18534   0.972   4.792   6.720  0.8156  0.3460 -0.0690
  165SAPE     P18535   0.919   5.004   6.541 -0.4257 -0.2738  0.0269
  165SAPE   O1318536   0.993   4.934   6.432 -0.3506  0.0173  0.4979
  165SAPE   O1418537   0.778   4.958   6.566  0.4087 -0.0630 -0.6992
  165SAPE   O1218538   1.006   4.995   6.667 -0.2732  0.3396  0.0235
  165SAPE   O1118539   0.910   5.154   6.511  0.3778  0.0462 -0.5094
  165SAPE    C118540   0.916   5.262   6.610  0.5495  0.2058  0.5270
  165SAPE    HA18541   0.991   5.248   6.691  0.4432  0.4188  0.6629
  165SAPE    HB18542   0.942   5.360   6.564  0.6083 -0.4144 -0.7987
  165SAPE    C218543   0.774   5.287   6.680  0.0867 -0.2826 -0.1620
  165SAPE    HS18544   0.789   5.378   6.742  1.2770 -0.0844 -0.7004
  165SAPE   O2118545   0.751   5.174   6.767  0.3641  0.0461  0.5035
  165SAPE   C2118546   0.820   5.175   6.882 -0.5174  0.1566  0.3923
  165SAPE   O2218547   0.887   5.266   6.926  0.1145 -0.0491 -0.2877
  165SAPE   C2218548   0.795   5.040   6.953 -0.3745  0.2272 -0.0819
  165SAPE   H2R18549   0.686   5.019   6.962 -0.2178 -1.2972 -1.4180
  165SAPE   H2S18550   0.831   4.956   6.890  0.6893  0.5650  0.0631
  165SAPE    C318551   0.660   5.314   6.574 -0.3412 -0.0274 -0.5996
  165SAPE    HX18552   0.657   5.220   6.515  0.4267 -0.2567 -0.2822
  165SAPE    HY18553   0.700   5.385   6.499 -0.0617 -0.5600 -0.9580
  165SAPE   O3118554   0.536   5.359   6.628  0.4901  0.0497  0.0105
  165SAPE   C3118555   0.432   5.269   6.612 -0.6642  0.0901 -0.2418
  165SAPE   O3218556   0.430   5.166   6.551  0.2551  0.0916  0.2725
  165SAPE   C3218557   0.313   5.318   6.683 -0.0121 -0.6085 -0.2722
  165SAPE   H2X18558   0.230   5.325   6.609 -0.5651  0.0004  0.3829
  165SAPE   H2Y18559   0.329   5.422   6.718 -0.2289 -0.0904 -1.6531
  165SAPE   C2318560   0.860   5.039   7.095  0.0619  0.8685 -0.0534
  165SAPE   H3R18561   0.837   5.129   7.156  2.7606  0.9060  1.0862
  165SAPE   H3S18562   0.969   5.052   7.076  0.5568  0.2798  2.1262
  165SAPE   C2418563   0.823   4.917   7.181  0.8460 -0.0538  0.1547
  165SAPE   H4R18564   0.715   4.891   7.175  0.9652 -0.2486 -2.4459
  165SAPE   H4S18565   0.858   4.931   7.285 -1.0547 -0.2685  0.8721
  165SAPE   C2518566   0.904   4.810   7.121 -0.0433  0.7778 -0.6124
  165SAPE   H5R18567   0.877   4.792   7.015  0.6319 -0.5205 -0.5890
  165SAPE   C2618568   1.007   4.744   7.185  0.2289 -0.4895  0.0976
  165SAPE   H6R18569   1.053   4.664   7.125 -2.0293  0.5032 -3.2225
  165SAPE   C2718570   1.066   4.754   7.321 -0.1108  0.1581 -0.3889
  165SAPE   H7R18571   1.068   4.861   7.348  0.3738  0.2614 -0.8169
  165SAPE   H7S18572   1.169   4.712   7.317 -0.8114 -1.8492  1.0037
  165SAPE   C2818573   0.996   4.677   7.437  0.4721 -0.7751  0.3582
  165SAPE   H8R18574   0.930   4.597   7.398 -1.0172  0.1419  0.9339
  165SAPE   C2918575   0.988   4.712   7.566 -0.1888  0.7120 -0.2682
  165SAPE   H9R18576   0.923   4.647   7.627  2.4067 -3.1842 -1.2438
  165SAPE  C21018577   1.063   4.827   7.632 -0.0828  0.4528 -0.7176
  165SAPE  H10R18578   1.092   4.900   7.554  0.2011  0.4295 -0.6338
  165SAPE  H10S18579   1.166   4.794   7.657  0.2101  2.1453  0.5080
  165SAPE  C21118580   1.023   4.894   7.761 -0.3304 -0.0848  0.4989
  165SAPE  H11R18581   1.105   4.918   7.831  0.4841  0.5224 -0.6211
  165SAPE  C21218582   0.899   4.942   7.778  0.1910 -0.3815  0.8965
  165SAPE  H12R18583   0.887   4.992   7.875  1.5436 -0.7478  1.2719
  165SAPE  C21318584   0.788   4.920   7.677 -0.5851  0.4495  0.0541
  165SAPE  H13R18585   0.724   4.838   7.716  0.1636  0.6100  1.7126
  165SAPE  H13S18586   0.807   4.883   7.574 -0.8480 -1.7848  0.7551
  165SAPE  C21418587   0.712   5.049   7.679 -0.0463  0.7130 -0.2158
  165SAPE  H14R18588   0.732   5.115   7.594 -1.9514 -1.0326 -2.1454
  165SAPE  C21518589   0.609   5.080   7.758 -0.8277 -0.3504  0.1515
  165SAPE  H15R18590   0.574   5.184   7.753  1.5895  0.5513  0.7522
  165SAPE  C21618591   0.562   4.993   7.870  0.2780  0.1531 -0.2728
  165SAPE  H16R18592   0.637   4.920   7.908  0.5308 -1.4362 -3.4884
  165SAPE  H16S18593   0.468   4.949   7.829  0.9683 -2.0669  0.3788
  165SAPE  C21718594   0.529   5.086   7.992  0.1644  0.0908 -0.0717
  165SAPE  H17R18595   0.460   5.033   8.061  0.4213  1.5766  1.3934
  165SAPE  H17S18596   0.477   5.180   7.963  1.2122  1.3073  1.7667
  165SAPE  C21818597   0.657   5.125   8.071 -0.5448  0.5898 -0.0743
  165SAPE  H18R18598   0.737   5.171   8.010  1.4024  0.8449  2.5051
  165SAPE  H18S18599   0.697   5.032   8.116  2.3886  1.0553 -1.4783
  165SAPE  C21918600   0.645   5.230   8.182 -0.2752 -0.4725  0.3620
  165SAPE  H19R18601   0.572   5.186   8.253 -3.3113  1.1683 -1.5279
  165SAPE  H19S18602   0.589   5.313   8.134  0.9693 -0.8821 -1.9713
  165SAPE  C22018603   0.770   5.257   8.254 -0.4091  0.7311 -0.1905
  165SAPE  H20R18604   0.832   5.334   8.202 -0.6480  1.7699  1.0175
  165SAPE  H20S18605   0.833   5.168   8.274  0.3943  2.0374  4.1586
  165SAPE  H20T18606   0.746   5.301   8.353 -2.9355  1.5995 -1.1026
  165SAPE   C3318607   0.279   5.215   6.795 -0.3847 -0.5648  0.0392
  165SAPE   H3X18608   0.282   5.114   6.749 -0.7938  0.4823 -2.4705
  165SAPE   H3Y18609   0.173   5.242   6.811 -0.4253 -1.4421  1.4614
  165SAPE   C3418610   0.367   5.223   6.926  0.5690  0.4275  0.6796
  165SAPE   H4X18611   0.375   5.330   6.955  1.3999  0.7305 -0.5888
  165SAPE   H4Y18612   0.469   5.181   6.912  0.6590  0.9161 -0.2177
  165SAPE   C3518613   0.302   5.134   7.036  0.0883  0.4776 -0.3706
  165SAPE   H5X18614   0.289   5.033   6.992  1.3880  0.8971 -1.7946
  165SAPE   H5Y18615   0.209   5.186   7.070  0.5977  0.6357  0.8464
  165SAPE   C3618616   0.398   5.104   7.148 -0.5630  0.2761  0.0796
  165SAPE   H6X18617   0.452   5.192   7.190  2.2387 -1.1111 -0.3819
  165SAPE   H6Y18618   0.477   5.044   7.098 -0.4091  1.0073 -0.5808
  165SAPE   C3718619   0.338   5.018   7.263  0.3017 -0.7119 -0.4280
  165SAPE   H7X18620   0.428   4.970   7.307  1.4098  1.3381 -0.3171
  165SAPE   H7Y18621   0.269   4.937   7.231  0.3324 -1.5449  1.4787
  165SAPE   C3818622   0.267   5.092   7.377 -0.2645  0.1773  0.0768
  165SAPE   H8X18623   0.168   5.114   7.332  0.2157 -0.4074 -1.3392
  165SAPE   H8Y18624   0.322   5.188   7.382  3.0172 -1.5540  0.1852
  165SAPE   C3918625   0.261   5.016   7.510 -0.2004  0.8106  0.9190
  165SAPE   H9X18626   0.360   4.973   7.536  0.1364  1.5554  0.9053
  165SAPE   H9Y18627   0.195   4.928   7.497  0.3542  0.7289 -1.9467
  165SAPE  C31018628   0.222   5.110   7.626 -0.1413  0.7196 -0.2329
  165SAPE  H10X18629   0.141   5.181   7.600 -0.8832 -0.3695 -0.9779
  165SAPE  H10Y18630   0.309   5.174   7.651  0.9026 -0.4035 -0.8687
  165SAPE  C31118631   0.183   5.029   7.750  0.1289 -0.1241  0.4769
  165SAPE  H11X18632   0.266   4.964   7.785  0.1762 -1.1373 -1.3706
  165SAPE  H11Y18633   0.095   4.968   7.721  1.1095 -2.6192  2.4163
  165SAPE  C31218634   0.130   5.114   7.868 -0.1473 -0.0611 -0.7980
  165SAPE  H12X18635   0.027   5.149   7.848 -1.1484 -2.3272  0.0584
  165SAPE  H12Y18636   0.204   5.197   7.875 -0.6338  0.2784  0.6532
  165SAPE  C31318637   0.126   5.035   8.002 -0.0450  0.5157  0.4158
  165SAPE  H13X18638   0.222   4.979   8.014  1.1153  1.6867 -2.6043
  165SAPE  H13Y18639   0.046   4.958   7.999  1.7702 -1.4626  0.4848
  165SAPE  C31418640   0.080   5.127   8.121 -0.0992  0.4801 -0.5239
  165SAPE  H14X18641   0.078   5.052   8.203  1.8297 -0.2475 -1.0937
  165SAPE  H14Y18642  -0.025   5.161   8.111 -0.2622  0.1881  0.1403
  165SAPE  C31518643   0.171   5.243   8.139  0.5226 -0.4989  0.0812
  165SAPE  H15X18644   0.148   5.319   8.061  0.1209 -1.0589 -0.3458
  165SAPE  H15Y18645   0.276   5.209   8.132 -0.1636 -2.3402 -2.6962
  165SAPE  C31618646   0.141   5.314   8.274  0.2337  0.5447 -0.3655
  165SAPE  H16X18647   0.039   5.360   8.275  0.0115  0.0501  1.0737
  165SAPE  H16Y18648   0.223   5.385   8.299  0.9506 -0.4754  0.2323
  165SAPE  C31718649   0.148   5.214   8.396 -0.8105  0.0484  0.5370
  165SAPE  H17X18650   0.074   5.131   8.396  0.2983 -0.9571  1.0362
  165SAPE  H17Y18651   0.147   5.272   8.490  2.0013  2.5190 -0.8002
  165SAPE  C31818652   0.286   5.143   8.401 -0.5090 -0.1003  0.3288
  165SAPE  H18X18653   0.298   5.081   8.492 -0.9599 -1.3124 -0.4137
  165SAPE  H18Y18654   0.372   5.212   8.388 -1.2968  0.7636 -0.4977
  165SAPE  H18Z18655   0.293   5.069   8.318  0.0213 -0.9266  1.1000
  166SAPE     N18656   5.613   1.692   6.037  0.4468 -0.2365  0.3343
  166SAPE   HN118657   5.617   1.768   5.965 -1.4790 -0.8287 -0.4500
  166SAPE   HN218658   5.528   1.641   6.008 -1.2581  1.3800  2.2060
  166SAPE   HN318659   5.593   1.739   6.128  3.0444 -2.0339  1.9616
  166SAPE   C1218660   5.746   1.618   6.052  0.1923 -0.6518  0.0593
  166SAPE  H12A18661   5.815   1.690   6.102 -0.5920  1.7400 -2.0807
  166SAPE  H12B18662   5.789   1.596   5.952 -1.3215  1.9519 -1.2842
  166SAPE   C1118663   5.734   1.485   6.140 -0.8507 -0.3161  0.2742
  166SAPE  H11A18664   5.715   1.529   6.240 -0.0875 -0.8190  0.6451
  166SAPE  H11B18665   5.825   1.424   6.153 -1.6985 -1.3649  1.5372
  166SAPE     P18666   5.645   1.249   6.075  0.0664 -0.1894 -0.1222
  166SAPE   O1318667   5.650   1.219   5.932 -0.2758  0.0501  0.3555
  166SAPE   O1418668   5.751   1.197   6.159  0.1223 -0.2170 -0.0499
  166SAPE   O1218669   5.627   1.402   6.095 -0.0031 -0.2684  0.4191
  166SAPE   O1118670   5.518   1.184   6.146  0.2326 -0.0141  0.0303
  166SAPE    C118671   5.404   1.264   6.180  0.2289  0.2454 -0.0069
  166SAPE    HA18672   5.389   1.358   6.124  0.7719 -0.2038 -0.9274
  166SAPE    HB18673   5.315   1.201   6.161  0.7812 -1.4358  2.4633
  166SAPE    C218674   5.404   1.296   6.334  0.2084  0.4466 -0.2344
  166SAPE    HS18675   5.508   1.309   6.371  1.0867  1.9725 -2.9076
  166SAPE   O2118676   5.329   1.192   6.401 -0.0614  0.0540  0.3024
  166SAPE   C2118677   5.399   1.092   6.434  0.3679 -0.0387  0.0851
  166SAPE   O2218678   5.522   1.077   6.422  0.2718 -0.0687  0.2858
  166SAPE   C2218679   5.303   0.982   6.489  0.0730 -0.4671 -0.3520
  166SAPE   H2R18680   5.197   1.013   6.488 -0.3232 -1.5935  1.8124
  166SAPE   H2S18681   5.322   0.887   6.433  2.9640 -0.6805  0.7836
  166SAPE    C318682   5.336   1.430   6.351 -0.1240 -0.0378 -0.1503
  166SAPE    HX18683   5.254   1.431   6.276  0.8433 -1.0251 -1.2557
  166SAPE    HY18684   5.414   1.507   6.332 -0.7711  0.7406  0.2713
  166SAPE   O3118685   5.299   1.441   6.495  0.2354 -0.0430  0.7513
  166SAPE   C3118686   5.234   1.548   6.525  0.4499  0.1628  0.0719
  166SAPE   O3218687   5.196   1.633   6.444 -0.2776  0.9600  0.8700
  166SAPE   C3218688   5.198   1.550   6.676 -0.4992  0.5598  0.4361
  166SAPE   H2X18689   5.149   1.457   6.712  2.3568 -0.3256  2.4193
  166SAPE   H2Y18690   5.127   1.630   6.707 -1.8657 -0.3679 -0.1740
  166SAPE   C2318691   5.351   0.947   6.628  0.0554  0.1415  0.3146
  166SAPE   H3R18692   5.461   0.939   6.644 -0.0150  1.9066  2.0970
  166SAPE   H3S18693   5.311   0.846   6.651  1.0566 -0.1089  1.0139
  166SAPE   C2418694   5.305   1.052   6.729 -0.0648  0.1825 -0.0107
  166SAPE   H4R18695   5.203   1.082   6.698  0.2213  0.3956 -0.7722
  166SAPE   H4S18696   5.363   1.147   6.726 -0.8725  0.6765 -2.2411
  166SAPE   C2518697   5.303   0.989   6.869 -0.7576  0.2223  0.3444
  166SAPE   H5R18698   5.278   0.882   6.873  1.6812 -0.3961  0.3952
  166SAPE   C2618699   5.321   1.045   6.993  0.3093  0.8434 -0.1773
  166SAPE   H6R18700   5.321   0.983   7.084 -0.7471  1.4192  0.2318
  166SAPE   C2718701   5.345   1.190   7.034  0.2245  0.3859  0.2317
  166SAPE   H7R18702   5.396   1.252   6.957  0.3741  0.0627  0.0634
  166SAPE   H7S18703   5.416   1.187   7.119  0.1248 -0.9462  0.2914
  166SAPE   C2818704   5.213   1.257   7.065 -0.4905  0.5955  1.6082
  166SAPE   H8R18705   5.165   1.271   6.967 -0.6158 -0.8562  1.4398
  166SAPE   C2918706   5.148   1.284   7.178  0.0827  0.0633  0.0717
  166SAPE   H9R18707   5.048   1.330   7.173  0.6019  1.1299 -1.1449
  166SAPE  C21018708   5.202   1.244   7.309 -0.2160  0.1122  0.0054
  166SAPE  H10R18709   5.311   1.224   7.313  0.2215  2.0706 -0.8695
  166SAPE  H10S18710   5.160   1.145   7.337 -0.7013  0.2549 -0.2000
  166SAPE  C21118711   5.182   1.341   7.429 -0.0264  0.4415  0.1928
  166SAPE  H11R18712   5.151   1.444   7.406 -2.6307  0.3076  2.6284
  166SAPE  C21218713   5.202   1.312   7.560 -0.0397  0.1371 -0.6189
  166SAPE  H12R18714   5.187   1.395   7.630 -0.5359 -0.8247  0.4303
  166SAPE  C21318715   5.251   1.180   7.617 -0.3222 -0.0885 -0.4066
  166SAPE  H13R18716   5.345   1.200   7.673 -0.6840  0.4048  0.0404
  166SAPE  H13S18717   5.273   1.105   7.538 -0.8772  0.5517 -1.1819
  166SAPE  C21418718   5.132   1.115   7.693 -0.4237 -0.2385 -0.0611
  166SAPE  H14R18719   5.034   1.148   7.655 -0.0773  1.3986  0.3825
  166SAPE  C21518720   5.150   1.034   7.800 -0.0260 -0.4373  0.3041
  166SAPE  H15R18721   5.058   0.978   7.824 -0.7518  1.3529  2.0107
  166SAPE  C21618722   5.273   0.990   7.874 -0.4054 -0.5345 -0.2206
  166SAPE  H16R18723   5.371   1.011   7.825  1.5484 -2.9301  2.2990
  166SAPE  H16S18724   5.284   0.880   7.874  0.5652 -0.5355  2.4034
  166SAPE  C21718725   5.288   1.051   8.018 -0.2454  0.5513 -0.2995
  166SAPE  H17R18726   5.216   0.994   8.080  2.9961 -0.8198  2.5395
  166SAPE  H17S18727   5.277   1.161   8.020 -0.8417  0.5028  1.8394
  166SAPE  C21818728   5.430   1.004   8.060 -0.1402 -0.5270 -0.0056
  166SAPE  H18R18729   5.500   1.052   7.988  0.3262  3.2935  2.7175
  166SAPE  H18S18730   5.447   0.896   8.041 -0.0378 -0.4777 -0.1929
  166SAPE  C21918731   5.479   1.030   8.207 -0.0204  0.0435  0.7777
  166SAPE  H19R18732   5.391   1.025   8.275  2.1974 -0.3582  3.8338
  166SAPE  H19S18733   5.509   1.137   8.218 -1.8925  1.0457 -2.5637
  166SAPE  C22018734   5.580   0.929   8.265 -0.0898  0.1876  0.7321
  166SAPE  H20R18735   5.541   0.836   8.309  0.3923 -1.4802 -2.1214
  166SAPE  H20S18736   5.643   0.975   8.344  0.1035  0.4268  0.4442
  166SAPE  H20T18737   5.651   0.907   8.182  0.2862  1.4334  0.6933
  166SAPE   C3318738   5.321   1.543   6.773 -0.4258  1.3019  0.3369
  166SAPE   H3X18739   5.410   1.500   6.722 -0.6487 -0.1860  1.1382
  166SAPE   H3Y18740   5.300   1.478   6.861  0.0218 -0.7632 -0.9957
  166SAPE   C3418741   5.350   1.680   6.832 -0.2405 -0.0739 -0.5464
  166SAPE   H4X18742   5.293   1.700   6.925 -2.1302  1.1357 -1.8799
  166SAPE   H4Y18743   5.336   1.763   6.759  1.2238  0.1973 -0.5486
  166SAPE   C3518744   5.496   1.682   6.881  0.2527  0.4069  0.1647
  166SAPE   H5X18745   5.533   1.786   6.890 -0.6842  0.9417 -1.7082
  166SAPE   H5Y18746   5.559   1.631   6.804 -1.6310 -0.1696 -1.0494
  166SAPE   C3618747   5.535   1.611   7.009  0.5219  0.2431  0.3699
  166SAPE   H6X18748   5.644   1.595   7.021  0.3687 -2.3548 -1.1320
  166SAPE   H6Y18749   5.491   1.509   7.003 -0.0062  0.5388 -1.1495
  166SAPE   C3718750   5.483   1.677   7.140 -0.8193  0.2872  0.4145
  166SAPE   H7X18751   5.469   1.785   7.119 -2.5327 -0.5015 -3.3531
  166SAPE   H7Y18752   5.564   1.664   7.214  1.0687 -3.0271 -1.9761
  166SAPE   C3818753   5.355   1.624   7.196 -0.2237  0.9292 -1.0388
  166SAPE   H8X18754   5.366   1.537   7.265 -2.3532 -0.3291 -2.1779
  166SAPE   H8Y18755   5.290   1.576   7.120 -1.6459 -0.7663  1.1227
  166SAPE   C3918756   5.284   1.727   7.280  0.2199 -0.2542 -0.0402
  166SAPE   H9X18757   5.174   1.709   7.277  0.1711  0.0864 -0.3734
  166SAPE   H9Y18758   5.292   1.825   7.229  1.6402 -1.1701 -1.6659
  166SAPE  C31018759   5.336   1.746   7.433 -0.5061  0.1946  0.9750
  166SAPE  H10X18760   5.432   1.803   7.436  1.8884 -3.5192  1.6761
  166SAPE  H10Y18761   5.366   1.646   7.470  0.5159 -0.5278 -1.5767
  166SAPE  C31118762   5.229   1.811   7.524  0.6914  0.2224  0.0920
  166SAPE  H11X18763   5.145   1.739   7.516  1.4884 -0.8553  1.0274
  166SAPE  H11Y18764   5.198   1.910   7.486  0.7017 -0.9311 -3.2610
  166SAPE  C31218765   5.278   1.837   7.666 -0.4217  0.4238 -0.1595
  166SAPE  H12X18766   5.223   1.927   7.701  1.8362  1.4634  0.9476
  166SAPE  H12Y18767   5.383   1.867   7.647  0.5440 -2.7388 -0.4395
  166SAPE  C31318768   5.280   1.723   7.771  0.4060  0.6053  0.1044
  166SAPE  H13X18769   5.323   1.632   7.724 -1.2299  0.1888 -0.6216
  166SAPE  H13Y18770   5.173   1.702   7.790  0.3374  0.3265 -0.5663
  166SAPE  C31418771   5.355   1.758   7.908  0.2067 -0.0871  0.4887
  166SAPE  H14X18772   5.290   1.825   7.968  1.4467  1.1930  0.4657
  166SAPE  H14Y18773   5.442   1.820   7.875 -0.8202  1.3760  0.4413
  166SAPE  C31518774   5.394   1.633   7.983  0.2740 -0.3401 -0.8953
  166SAPE  H15X18775   5.460   1.670   8.064 -0.1040 -0.9614 -0.2944
  166SAPE  H15Y18776   5.449   1.558   7.922 -0.1248 -1.3579 -0.0283
  166SAPE  C31618777   5.272   1.566   8.057 -0.1126 -0.0807 -0.0181
  166SAPE  H16X18778   5.184   1.556   7.991 -0.1261  0.2297 -0.0462
  166SAPE  H16Y18779   5.233   1.636   8.134 -1.1708  0.6251 -1.1783
  166SAPE  C31718780   5.314   1.437   8.126 -0.7712  0.7757 -0.2116
  166SAPE  H17X18781   5.390   1.463   8.203 -0.3201 -0.2955 -0.2682
  166SAPE  H17Y18782   5.351   1.358   8.056 -1.4722  2.0488 -2.1081
  166SAPE  C31818783   5.203   1.358   8.201 -0.3955 -0.1103  0.6210
  166SAPE  H18X18784   5.119   1.338   8.130  0.5546  2.6366 -1.4480
  166SAPE  H18Y18785   5.165   1.424   8.282  0.6772 -0.3592  1.3489
  166SAPE  H18Z18786   5.248   1.273   8.256  1.0219  0.0361 -0.2681
  167SAPE     N18787   0.281   0.456   6.369  0.2014  0.7543 -0.6054
  167SAPE   HN118788   0.355   0.446   6.442  1.7884 -1.1420 -2.3271
  167SAPE   HN218789   0.328   0.461   6.276 -0.4658 -0.2743 -1.0183
  167SAPE   HN318790   0.229   0.545   6.380 -1.1486 -0.1033  0.3553
  167SAPE   C1218791   0.199   0.331   6.383  0.2453  1.1568  0.7941
  167SAPE  H12A18792   0.093   0.348   6.355 -0.4907  0.1164  2.6948
  167SAPE  H12B18793   0.204   0.282   6.483  0.0321 -0.0613  0.2298
  167SAPE   C1118794   0.250   0.226   6.277  0.0225 -0.5732  0.2706
  167SAPE  H11A18795   0.244   0.284   6.183  0.9579 -1.7258 -0.5187
  167SAPE  H11B18796   0.187   0.135   6.273 -1.0903  0.2033 -0.7190
  167SAPE     P18797   0.471   0.107   6.222  0.1615 -0.1767  0.3013
  167SAPE   O1318798   0.387  -0.011   6.170 -0.3976  0.3345  0.2524
  167SAPE   O1418799   0.524   0.197   6.118  0.2236  0.0166  0.1852
  167SAPE   O1218800   0.389   0.203   6.302 -0.1669 -0.3783 -0.0067
  167SAPE   O1118801   0.581   0.059   6.319 -0.0712 -0.4161  0.4901
  167SAPE    C118802   0.557   0.027   6.457  0.2971 -0.5396 -0.7545
  167SAPE    HA18803   0.472  -0.040   6.483  0.2660  0.8285  3.4798
  167SAPE    HB18804   0.645  -0.028   6.498 -0.0657 -0.5490  0.0356
  167SAPE    C218805   0.537   0.156   6.557 -0.5737 -0.9013 -0.1514
  167SAPE    HS18806   0.444   0.207   6.524  1.1780  1.5318 -1.6917
  167SAPE   O2118807   0.642   0.242   6.530 -0.2350 -0.6950  0.6245
  167SAPE   C2118808   0.613   0.372   6.518 -1.1954  0.5388 -0.2006
  167SAPE   O2218809   0.508   0.424   6.545  0.3831  0.0565 -0.5512
  167SAPE   C2218810   0.744   0.451   6.496  0.3683  0.2425  0.7599
  167SAPE   H2R18811   0.810   0.385   6.436  0.7083  2.0645 -0.9654
  167SAPE   H2S18812   0.722   0.527   6.417  0.6207  0.1479  0.5981
  167SAPE    C318813   0.530   0.118   6.714 -0.6137  0.2973 -0.1305
  167SAPE    HX18814   0.631   0.076   6.731  0.1655  2.1675  0.0999
  167SAPE    HY18815   0.457   0.036   6.736  1.9786 -2.1293 -0.0339
  167SAPE   O3118816   0.501   0.236   6.800 -0.0741 -0.0496  0.1388
  167SAPE   C3118817   0.380   0.290   6.785  0.1674 -0.0148  0.3026
  167SAPE   O3218818   0.296   0.243   6.708  0.0627  0.1284 -0.3700
  167SAPE   C3218819   0.360   0.413   6.866  0.0832  0.1899 -0.0396
  167SAPE   H2X18820   0.315   0.489   6.799  1.9693  0.7924 -0.6735
  167SAPE   H2Y18821   0.455   0.454   6.906  1.0803 -1.7044 -0.3388
  167SAPE   C2318822   0.826   0.489   6.619 -0.1616  0.5658  0.1411
  167SAPE   H3R18823   0.779   0.552   6.697  0.7439 -1.4864  2.4858
  167SAPE   H3S18824   0.915   0.548   6.587  0.3225 -1.0698 -1.7153
  167SAPE   C2418825   0.868   0.365   6.696 -0.8209  0.5220 -0.3804
  167SAPE   H4R18826   0.943   0.321   6.628 -0.6556  3.0005 -1.9085
  167SAPE   H4S18827   0.798   0.279   6.705  1.1628 -1.1834 -0.6876
  167SAPE   C2518828   0.928   0.406   6.830 -0.3921 -1.3300  0.2230
  167SAPE   H5R18829   1.031   0.440   6.811 -1.5145  1.9089 -0.6277
  167SAPE   C2618830   0.876   0.393   6.953 -0.8156 -0.2682 -0.2870
  167SAPE   H6R18831   0.936   0.422   7.041  0.6870 -0.6747 -1.1601
  167SAPE   C2718832   0.745   0.334   6.993 -0.0458 -0.6503 -0.0598
  167SAPE   H7R18833   0.688   0.322   6.898 -0.9902 -0.9291  0.5289
  167SAPE   H7S18834   0.690   0.409   7.053 -1.7623  0.0709 -2.4005
  167SAPE   C2818835   0.750   0.193   7.060 -0.7553  0.2159 -0.6915
  167SAPE   H8R18836   0.747   0.106   6.994  0.5447 -2.4492  2.4501
  167SAPE   C2918837   0.764   0.160   7.192 -0.1737 -0.0138 -0.2124
  167SAPE   H9R18838   0.760   0.055   7.224 -1.7689  0.5549  1.6322
  167SAPE  C21018839   0.786   0.250   7.308 -0.3274 -0.1775  0.8637
  167SAPE  H10R18840   0.684   0.277   7.342 -0.0240 -0.8445  2.3888
  167SAPE  H10S18841   0.836   0.348   7.289 -1.7055  0.0427 -2.1723
  167SAPE  C21118842   0.868   0.176   7.416  0.8407  0.7966  0.0988
  167SAPE  H11R18843   0.957   0.120   7.385 -0.6526 -1.2038 -0.7876
  167SAPE  C21218844   0.833   0.200   7.546 -0.6222 -0.1359  0.3441
  167SAPE  H12R18845   0.890   0.146   7.623 -0.5053  0.3938  0.6345
  167SAPE  C21318846   0.716   0.287   7.599 -0.4984  0.3446 -0.2679
  167SAPE  H13R18847   0.622   0.227   7.602 -0.2201 -0.1410  2.6665
  167SAPE  H13S18848   0.686   0.365   7.527  0.0134 -0.6574 -1.6178
  167SAPE  C21418849   0.724   0.347   7.734 -0.4132  0.0801 -0.0758
  167SAPE  H14R18850   0.760   0.451   7.729  1.3622 -0.4740  0.3847
  167SAPE  C21518851   0.698   0.287   7.853 -0.7709 -0.2784 -0.4101
  167SAPE  H15R18852   0.725   0.350   7.938 -2.5802  1.3560 -0.9886
  167SAPE  C21618853   0.655   0.139   7.871 -0.8177  0.2438 -0.3604
  167SAPE  H16R18854   0.740   0.079   7.909 -1.7457 -1.3230 -0.6907
  167SAPE  H16S18855   0.619   0.094   7.776  2.1397 -2.7906 -0.2359
  167SAPE  C21718856   0.548   0.129   7.979 -0.4446 -0.9194  0.3062
  167SAPE  H17R18857   0.570   0.204   8.058  2.7357 -0.0662 -1.2267
  167SAPE  H17S18858   0.545   0.027   8.022  0.5315 -0.9077  0.4300
  167SAPE  C21818859   0.403   0.164   7.933  0.4021 -0.2666  0.6100
  167SAPE  H18R18860   0.391   0.120   7.832 -0.4802  2.3876 -0.5399
  167SAPE  H18S18861   0.407   0.275   7.923 -1.9276 -0.1392  0.6439
  167SAPE  C21918862   0.304   0.105   8.025 -0.3145  0.3366  1.0174
  167SAPE  H19R18863   0.308  -0.006   8.026 -2.2054  0.2097 -0.3966
  167SAPE  H19S18864   0.209   0.138   7.976  0.6469  1.1627 -0.3607
  167SAPE  C22018865   0.305   0.171   8.163  0.1809 -0.6640 -0.1705
  167SAPE  H20R18866   0.306   0.280   8.142  0.8658 -0.2776  1.6898
  167SAPE  H20S18867   0.397   0.139   8.216  0.4193 -2.5491 -1.6012
  167SAPE  H20T18868   0.219   0.137   8.225  0.8586  0.3601  1.3789
  167SAPE   C3318869   0.266   0.382   6.992  0.4082  0.3523  0.0498
  167SAPE   H3X18870   0.179   0.328   6.948  0.4493  1.3592 -1.3441
  167SAPE   H3Y18871   0.214   0.473   7.029  1.3280  1.9491 -2.3316
  167SAPE   C3418872   0.341   0.296   7.102  0.2970 -0.8139 -0.6473
  167SAPE   H4X18873   0.440   0.330   7.138 -1.3828 -0.0039  3.9189
  167SAPE   H4Y18874   0.353   0.195   7.059 -1.6059 -1.1240 -0.5278
  167SAPE   C3518875   0.260   0.281   7.230 -0.3383  0.7220  0.5292
  167SAPE   H5X18876   0.167   0.227   7.202 -0.7131  1.9642 -0.7463
  167SAPE   H5Y18877   0.226   0.377   7.275 -0.1468  1.4353 -0.8153
  167SAPE   C3618878   0.348   0.214   7.332 -0.1763  0.1096 -0.0834
  167SAPE   H6X18879   0.437   0.280   7.341 -0.0563 -0.0237 -0.2752
  167SAPE   H6Y18880   0.396   0.123   7.290 -0.6002 -0.0219 -0.2874
  167SAPE   C3718881   0.270   0.175   7.462 -0.8486 -0.5455  1.1567
  167SAPE   H7X18882   0.345   0.126   7.528  0.9069 -0.7416 -0.8575
  167SAPE   H7Y18883   0.193   0.102   7.430 -0.0434 -0.1191 -2.1343
  167SAPE   C3818884   0.217   0.301   7.532  0.0914 -0.2840  0.2603
  167SAPE   H8X18885   0.137   0.346   7.470 -0.6384  1.5930  2.4657
  167SAPE   H8Y18886   0.294   0.380   7.535  2.1430 -2.1850  0.6984
  167SAPE   C3918887   0.169   0.261   7.672  1.0093  0.0182  0.3301
  167SAPE   H9X18888   0.264   0.253   7.730  2.1077  0.5405 -1.3173
  167SAPE   H9Y18889   0.130   0.157   7.675  0.3586  0.2604  0.2778
  167SAPE  C31018890   0.079   0.364   7.740 -0.8517  1.2042  0.0320
  167SAPE  H10X18891   0.035   0.325   7.834 -0.7392 -0.1736 -0.4614
  167SAPE  H10Y18892  -0.010   0.403   7.685  0.0819  2.5251 -0.6234
  167SAPE  C31118893   0.162   0.483   7.793  0.2750 -0.0004  0.0398
  167SAPE  H11X18894   0.223   0.535   7.716  0.4550  2.0424  1.4969
  167SAPE  H11Y18895   0.231   0.445   7.872  0.9237 -3.2233 -1.8647
  167SAPE  C31218896   0.071   0.594   7.853  0.1855 -0.3808 -0.5566
  167SAPE  H12X18897   0.019   0.619   7.758  1.9473 -2.9375 -2.3470
  167SAPE  H12Y18898   0.142   0.678   7.871  0.5931 -0.4177 -1.8325
  167SAPE  C31318899  -0.016   0.548   7.977  0.1946 -0.4030 -0.1924
  167SAPE  H13X18900  -0.097   0.492   7.925  0.0602  0.4986 -0.9832
  167SAPE  H13Y18901  -0.058   0.640   8.023 -1.6887 -1.0767 -0.4739
  167SAPE  C31418902   0.072   0.481   8.086 -0.1378 -0.5926  1.1483
  167SAPE  H14X18903   0.154   0.546   8.122  0.9432 -1.0338 -0.3996
  167SAPE  H14Y18904   0.132   0.392   8.058  0.3956  0.1367 -0.0845
  167SAPE  C31518905  -0.012   0.440   8.205 -0.1750  0.3655  0.6347
  167SAPE  H15X18906   0.029   0.346   8.246  0.0307 -1.5684 -3.5053
  167SAPE  H15Y18907  -0.111   0.417   8.161 -0.6291  1.9886  0.7357
  167SAPE  C31618908  -0.027   0.551   8.305 -0.4420 -0.5820  0.0095
  167SAPE  H16X18909  -0.061   0.641   8.249  2.3422  0.4055 -0.2141
  167SAPE  H16Y18910   0.061   0.568   8.370 -0.8133  1.4775  0.0204
  167SAPE  C31718911  -0.140   0.525   8.398 -0.2337  0.7515  0.2023
  167SAPE  H17X18912  -0.231   0.493   8.343  0.4533 -2.1387  0.5641
  167SAPE  H17Y18913  -0.165   0.620   8.450 -2.1836  1.0502 -1.1824
  167SAPE  C31818914  -0.118   0.419   8.512 -0.1947 -0.6880  0.1425
  167SAPE  H18X18915  -0.022   0.413   8.568  0.3146  0.2604 -0.6001
  167SAPE  H18Y18916  -0.147   0.319   8.475 -0.9721 -0.3354 -0.2214
  167SAPE  H18Z18917  -0.201   0.439   8.583 -0.3938  0.6013 -0.4250
  168SAPE     N18918   1.734   1.157   6.148 -0.4533  0.1344 -0.1341
  168SAPE   HN118919   1.661   1.167   6.221  2.0909 -2.2195  3.0346
  168SAPE   HN218920   1.681   1.164   6.059 -1.5272  0.9603  0.5536
  168SAPE   HN318921   1.783   1.066   6.163  1.7878  1.1488 -0.8465
  168SAPE   C1218922   1.835   1.271   6.157 -0.7253 -0.0663  0.5848
  168SAPE  H12A18923   1.781   1.368   6.158  0.5210  0.6430  0.7857
  168SAPE  H12B18924   1.899   1.261   6.067 -1.7078  1.0366 -0.2602
  168SAPE   C1118925   1.927   1.266   6.285 -0.5633  0.0899  0.2341
  168SAPE  H11A18926   2.001   1.348   6.280 -0.7640  0.2732  0.2529
  168SAPE  H11B18927   1.972   1.166   6.268  1.1442  1.0833 -1.4120
  168SAPE     P18928   1.791   1.401   6.456 -0.1034  0.0437  0.1743
  168SAPE   O1318929   1.891   1.510   6.455 -0.1230 -0.0789 -0.2576
  168SAPE   O1418930   1.665   1.410   6.381  0.3056 -0.2353 -0.5664
  168SAPE   O1218931   1.860   1.269   6.411 -0.3699  0.2759 -0.0120
  168SAPE   O1118932   1.764   1.373   6.604 -0.1659  0.3045  0.7130
  168SAPE    C118933   1.698   1.253   6.648  1.2180 -0.6254  0.1138
  168SAPE    HA18934   1.595   1.279   6.680 -0.3067 -0.0840 -4.4750
  168SAPE    HB18935   1.699   1.172   6.572 -0.3121  0.2199 -0.8687
  168SAPE    C218936   1.768   1.190   6.766 -0.0014  0.7913  0.3251
  168SAPE    HS18937   1.694   1.115   6.804 -1.0800  0.6170 -1.9438
  168SAPE   O2118938   1.813   1.276   6.868 -0.5231 -0.1860 -0.2204
  168SAPE   C2118939   1.715   1.330   6.937  0.5545 -0.2294  0.4170
  168SAPE   O2218940   1.600   1.294   6.928  0.3176 -0.1427 -0.1426
  168SAPE   C2218941   1.770   1.438   7.037 -0.3050  0.0715  0.1105
  168SAPE   H2R18942   1.860   1.398   7.089  0.5192 -0.8264 -1.9162
  168SAPE   H2S18943   1.802   1.530   6.983 -0.9527  1.3856  1.8441
  168SAPE    C318944   1.892   1.103   6.721 -0.9757  0.1382 -0.0376
  168SAPE    HX18945   1.957   1.174   6.666  0.4460 -0.8578  0.2905
  168SAPE    HY18946   1.870   1.021   6.650  2.6049 -0.7160 -0.3386
  168SAPE   O3118947   1.949   1.038   6.839 -0.2132  0.3956  0.6386
  168SAPE   C3118948   2.045   1.110   6.895  0.1079  0.0419  0.4867
  168SAPE   O3218949   2.107   1.202   6.842 -0.2116 -0.5979  0.1997
  168SAPE   C3218950   2.084   1.052   7.037 -0.0471  0.3079 -0.1492
  168SAPE   H2X18951   2.152   0.966   7.019  0.7877  0.9794 -0.2562
  168SAPE   H2Y18952   1.995   1.003   7.081  0.6882  1.0791  2.3749
  168SAPE   C2318953   1.668   1.490   7.132 -0.3057  0.4204 -0.5824
  168SAPE   H3R18954   1.639   1.399   7.189  2.3976 -2.4199 -3.3323
  168SAPE   H3S18955   1.571   1.521   7.086 -1.0419  0.1494  0.7440
  168SAPE   C2418956   1.730   1.611   7.215  0.6027  0.4128  0.2894
  168SAPE   H4R18957   1.768   1.690   7.147  2.3654 -0.1541  0.5688
  168SAPE   H4S18958   1.810   1.574   7.282  0.0282  2.4372  2.1975
  168SAPE   C2518959   1.621   1.674   7.301 -0.3301  0.5845  0.0251
  168SAPE   H5R18960   1.519   1.656   7.263 -0.4079  2.6843 -0.9123
  168SAPE   C2618961   1.640   1.737   7.421  0.2441  0.0244  0.2666
  168SAPE   H6R18962   1.548   1.777   7.466  0.1999 -0.9901  1.1158
  168SAPE   C2718963   1.778   1.763   7.480  0.2389  0.0470  0.1517
  168SAPE   H7R18964   1.857   1.704   7.428 -1.0427 -0.7380 -0.9585
  168SAPE   H7S18965   1.765   1.715   7.580  1.2564 -0.5935 -0.0001
  168SAPE   C2818966   1.815   1.905   7.498  0.7782 -0.2563  0.1814
  168SAPE   H8R18967   1.734   1.966   7.542  1.0771  0.0836  0.2676
  168SAPE   C2918968   1.927   1.976   7.475  0.0792 -0.2193  0.0410
  168SAPE   H9R18969   1.917   2.085   7.485  0.3199 -0.0960 -0.9701
  168SAPE  C21018970   2.052   1.923   7.414 -0.1130 -0.7721  0.3995
  168SAPE  H10R18971   2.043   1.912   7.304  0.6926 -3.3035  0.5141
  168SAPE  H10S18972   2.066   1.816   7.440  0.1105 -0.7297  0.4524
  168SAPE  C21118973   2.174   2.005   7.444  0.2091  1.3245 -0.2673
  168SAPE  H11R18974   2.243   2.024   7.361  1.9821  0.5218  0.9434
  168SAPE  C21218975   2.221   2.030   7.571  0.0210 -0.1640 -0.3347
  168SAPE  H12R18976   2.308   2.095   7.591  0.2481 -0.1167 -1.4533
  168SAPE  C21318977   2.152   1.975   7.701 -0.1817  0.4361  0.1459
  168SAPE  H13R18978   2.068   1.908   7.675  0.8668 -0.9405  0.1528
  168SAPE  H13S18979   2.106   2.060   7.757  0.6078 -0.4503  2.2713
  168SAPE  C21418980   2.248   1.908   7.796 -0.3179 -0.3753 -0.0269
  168SAPE  H14R18981   2.324   1.847   7.746  1.0524  0.6889  0.6877
  168SAPE  C21518982   2.261   1.926   7.932  0.1940 -0.5469 -0.2532
  168SAPE  H15R18983   2.346   1.881   7.985 -0.0594 -0.8694 -0.1175
  168SAPE  C21618984   2.172   2.003   8.031 -0.1951  0.5049 -0.2563
  168SAPE  H16R18985   2.067   2.013   7.996 -0.2360  0.4377 -0.1545
  168SAPE  H16S18986   2.214   2.101   8.064  0.6679  0.1853 -0.3897
  168SAPE  C21718987   2.154   1.933   8.170  0.2676 -0.4766  0.1562
  168SAPE  H17R18988   2.247   1.904   8.225  0.1965  0.1811  0.6383
  168SAPE  H17S18989   2.104   1.834   8.161 -2.6064  0.8122  0.8529
  168SAPE  C21818990   2.085   2.025   8.272  0.2187  0.0873 -0.0199
  168SAPE  H18R18991   1.986   2.054   8.230  0.5332  0.1366 -0.7529
  168SAPE  H18S18992   2.150   2.116   8.275  0.4325 -0.0322 -0.7646
  168SAPE  C21918993   2.063   1.977   8.410  0.3838  0.2313  0.4735
  168SAPE  H19R18994   2.161   1.956   8.458  0.1898 -1.9118 -0.0101
  168SAPE  H19S18995   2.013   1.879   8.425  3.1684 -1.4915 -0.7803
  168SAPE  C22018996   1.991   2.090   8.487  0.4299 -0.3451 -0.3128
  168SAPE  H20R18997   1.955   2.059   8.588 -0.0340  0.9813 -0.0378
  168SAPE  H20S18998   1.893   2.121   8.444 -0.1164  1.5179  2.0161
  168SAPE  H20T18999   2.065   2.173   8.481  1.2865 -1.2102 -2.6675
  168SAPE   C3319000   2.130   1.162   7.139  0.4063  0.1028  1.1500
  168SAPE   H3X19001   2.053   1.240   7.156  0.4031  0.0392  1.4324
  168SAPE   H3Y19002   2.225   1.197   7.093  2.2395 -3.2920  2.0037
  168SAPE   C3419003   2.147   1.101   7.276  0.0561 -0.2831  0.4770
  168SAPE   H4X19004   2.213   1.012   7.275  1.2355  0.5602 -0.3704
  168SAPE   H4Y19005   2.049   1.073   7.320  0.7719 -0.2683  2.1799
  168SAPE   C3519006   2.222   1.194   7.376  0.0509  0.2641 -0.0876
  168SAPE   H5X19007   2.169   1.292   7.379  0.0684  0.2756 -0.1644
  168SAPE   H5Y19008   2.326   1.196   7.336  0.3791  0.8036  0.7577
  168SAPE   C3619009   2.230   1.140   7.520 -0.3121 -0.2462  0.7052
  168SAPE   H6X19010   2.269   1.215   7.592  0.3186  1.1322 -1.0294
  168SAPE   H6Y19011   2.295   1.050   7.512 -0.0390 -0.0024  0.2017
  168SAPE   C3719012   2.091   1.102   7.584  0.3096 -0.2027  0.1751
  168SAPE   H7X19013   2.039   1.046   7.503  0.4997  1.7690 -1.3874
  168SAPE   H7Y19014   2.027   1.189   7.613 -0.7105 -1.5922  2.4338
  168SAPE   C3819015   2.106   1.015   7.713 -0.3025  0.3562  0.1056
  168SAPE   H8X19016   2.155   1.074   7.794  0.0633  0.6171 -0.3011
  168SAPE   H8Y19017   2.179   0.933   7.692 -1.3334 -0.0022 -2.4547
  168SAPE   C3919018   1.977   0.975   7.794 -0.3034  1.0550  0.2587
  168SAPE   H9X19019   1.924   1.070   7.815 -0.9907  0.7313  0.0003
  168SAPE   H9Y19020   2.001   0.924   7.889 -1.5628  0.1942  0.1422
  168SAPE  C31019021   1.892   0.880   7.706  0.5813  0.9196  1.0047
  168SAPE  H10X19022   1.923   0.898   7.601  2.6490 -0.1918  1.3759
  168SAPE  H10Y19023   1.785   0.902   7.727 -0.0832  0.4577 -1.6141
  168SAPE  C31119024   1.923   0.727   7.724  0.4683  0.3462  0.2363
  168SAPE  H11X19025   2.020   0.701   7.677 -0.0621 -0.1412 -0.6207
  168SAPE  H11Y19026   1.842   0.669   7.675  0.3848  0.9542 -0.3610
  168SAPE  C31219027   1.915   0.683   7.866  0.3290  0.0003 -0.2032
  168SAPE  H12X19028   1.817   0.726   7.895  0.3145  0.4602 -0.9059
  168SAPE  H12Y19029   1.993   0.726   7.933 -1.2667  0.9493  1.0966
  168SAPE  C31319030   1.909   0.528   7.872 -0.2888 -0.5860 -0.3622
  168SAPE  H13X19031   2.012   0.487   7.868 -1.4278 -3.9874  0.8685
  168SAPE  H13Y19032   1.851   0.497   7.782 -1.3304 -1.2051  0.4890
  168SAPE  C31419033   1.836   0.477   8.001 -0.0792 -0.1033  0.5190
  168SAPE  H14X19034   1.812   0.369   7.989 -2.7427  0.5548 -1.0044
  168SAPE  H14Y19035   1.733   0.519   8.001  1.0268  2.8203  0.7986
  168SAPE  C31519036   1.901   0.510   8.131 -0.7028  0.0939 -0.1964
  168SAPE  H15X19037   1.830   0.497   8.215  0.1546 -0.0965  0.5153
  168SAPE  H15Y19038   1.930   0.618   8.131 -0.8029  0.1318  0.9339
  168SAPE  C31619039   2.025   0.431   8.170 -0.6225 -0.1713 -0.6554
  168SAPE  H16X19040   2.101   0.459   8.093 -1.3505  0.7776 -1.0539
  168SAPE  H16Y19041   2.008   0.322   8.154 -1.1477 -0.3485  0.9421
  168SAPE  C31719042   2.073   0.451   8.314  0.2382 -0.6056 -0.8969
  168SAPE  H17X19043   1.982   0.406   8.360 -1.1708  2.1829 -0.7106
  168SAPE  H17Y19044   2.075   0.560   8.336 -1.7123 -0.5378 -0.8626
  168SAPE  C31819045   2.209   0.388   8.359  1.0628 -0.4334 -0.1747
  168SAPE  H18X19046   2.194   0.284   8.393 -1.1638  0.3083  1.3005
  168SAPE  H18Y19047   2.242   0.453   8.443 -2.0251  0.0773  0.7345
  168SAPE  H18Z19048   2.287   0.387   8.279  0.5245  1.0538 -0.7593
  169SAPE     N19049   0.748   3.490   6.109 -0.0417  0.3888  0.3530
  169SAPE   HN119050   0.683   3.568   6.088  1.0728  1.1373 -0.4568
  169SAPE   HN219051   0.820   3.503   6.183  1.1095  0.8497 -0.8025
  169SAPE   HN319052   0.798   3.472   6.019 -0.1519 -2.1505  0.7072
  169SAPE   C1219053   0.676   3.368   6.151 -0.0232 -0.5221 -0.0991
  169SAPE  H12A19054   0.642   3.312   6.061 -0.2761  0.6383 -0.7387
  169SAPE  H12B19055   0.579   3.406   6.190 -0.1852 -1.0200 -0.0078
  169SAPE   C1119056   0.768   3.293   6.245 -0.6534  0.3378 -0.4125
  169SAPE  H11A19057   0.856   3.246   6.198 -0.0692 -2.2518  2.8851
  169SAPE  H11B19058   0.720   3.199   6.282  1.7273 -0.9395 -0.3629
  169SAPE     P19059   0.911   3.362   6.465  0.1331 -0.1205 -0.2031
  169SAPE   O1319060   1.021   3.294   6.401  0.3742  1.0630  0.0627
  169SAPE   O1419061   0.937   3.504   6.508 -0.1513  0.3975  0.2480
  169SAPE   O1219062   0.795   3.375   6.357  0.7113  0.4249 -0.8320
  169SAPE   O1119063   0.856   3.276   6.586  0.1269 -0.1187 -0.3353
  169SAPE    C119064   0.735   3.201   6.559  0.1958 -0.0589 -0.4977
  169SAPE    HA19065   0.653   3.261   6.513  0.3743 -0.7093 -1.7186
  169SAPE    HB19066   0.765   3.114   6.496  3.1959  0.1747  0.4599
  169SAPE    C219067   0.666   3.147   6.684  0.5179  0.0535 -0.1934
  169SAPE    HS19068   0.557   3.152   6.666  0.0823  1.1368  2.2997
  169SAPE   O2119069   0.695   3.226   6.805  0.3715  0.5055 -0.2756
  169SAPE   C2119070   0.652   3.347   6.809  0.2495 -0.8281 -0.2338
  169SAPE   O2219071   0.594   3.412   6.718  0.1866  0.2409  0.2348
  169SAPE   C2219072   0.673   3.408   6.947 -0.4808 -0.0940 -1.0775
  169SAPE   H2R19073   0.674   3.517   6.930  0.7759  0.2168  0.7421
  169SAPE   H2S19074   0.593   3.391   7.022  0.4557 -0.5888 -0.1733
  169SAPE    C319075   0.696   2.995   6.704 -0.1320  0.4040  0.1908
  169SAPE    HX19076   0.804   2.974   6.715 -0.2986 -2.6272 -2.5778
  169SAPE    HY19077   0.661   2.944   6.612 -1.1294 -0.5327  1.0494
  169SAPE   O3119078   0.618   2.934   6.806  0.6203 -0.4281 -0.0598
  169SAPE   C3119079   0.673   2.949   6.932  0.2012 -0.2702 -0.2961
  169SAPE   O3219080   0.793   2.952   6.946  0.3097  0.5850  0.2681
  169SAPE   C3219081   0.571   2.960   7.051 -0.0088 -0.0588  0.3181
  169SAPE   H2X19082   0.475   2.919   7.012  0.5756  0.8075 -2.2864
  169SAPE   H2Y19083   0.556   3.069   7.071  2.5908  0.3849  0.2548
  169SAPE   C2319084   0.804   3.364   7.007 -0.3527  0.2416  0.2483
  169SAPE   H3R19085   0.888   3.407   6.950  0.2616  0.1315  1.0474
  169SAPE   H3S19086   0.823   3.254   7.007 -0.9026  0.1235 -1.4559
  169SAPE   C2419087   0.827   3.422   7.151 -0.5972 -0.1514  0.3683
  169SAPE   H4R19088   0.809   3.531   7.149 -2.1757 -0.3788 -2.0609
  169SAPE   H4S19089   0.934   3.400   7.172 -0.6115 -1.6543 -0.9120
  169SAPE   C2519090   0.747   3.350   7.259  0.5375  0.2503 -0.6121
  169SAPE   H5R19091   0.641   3.332   7.236  0.8297 -4.5645  0.6865
  169SAPE   C2619092   0.784   3.308   7.383  0.2684  0.3940 -0.1462
  169SAPE   H6R19093   0.716   3.247   7.445 -1.0702  1.2385 -0.7509
  169SAPE   C2719094   0.923   3.339   7.442  0.3727  0.3301  0.3368
  169SAPE   H7R19095   0.902   3.377   7.544  1.1300 -0.0995  0.6632
  169SAPE   H7S19096   0.963   3.431   7.396  0.8481  0.7549  1.5775
  169SAPE   C2819097   1.019   3.221   7.434 -0.1664 -0.8870  0.2114
  169SAPE   H8R19098   1.093   3.227   7.353  0.8583 -0.9435  1.1197
  169SAPE   C2919099   1.029   3.122   7.525  0.4735 -0.8190 -0.2425
  169SAPE   H9R19100   1.093   3.033   7.511  2.4540  0.7119 -1.3417
  169SAPE  C21019101   0.945   3.121   7.655  0.1548  0.1502  0.2663
  169SAPE  H10R19102   0.895   3.021   7.657  0.2548 -0.1816 -3.9221
  169SAPE  H10S19103   0.865   3.198   7.655 -0.0481 -0.0210  1.7405
  169SAPE  C21119104   1.026   3.145   7.774 -0.2195 -0.2597  0.3583
  169SAPE  H11R19105   1.108   3.218   7.765  0.2211 -0.9171 -1.5350
  169SAPE  C21219106   1.000   3.091   7.892 -0.0440 -0.0081 -0.0602
  169SAPE  H12R19107   1.065   3.128   7.972 -0.4155  1.6544 -0.4874
  169SAPE  C21319108   0.890   3.000   7.933  0.7075 -0.1948  0.0789
  169SAPE  H13R19109   0.815   2.975   7.855 -2.1996 -0.4485  2.7812
  169SAPE  H13S19110   0.831   3.052   8.012  0.9905 -0.7985  0.6966
  169SAPE  C21419111   0.954   2.876   7.991 -0.2355  0.5635 -0.1022
  169SAPE  H14R19112   0.997   2.812   7.913 -2.7734  1.0503 -2.0447
  169SAPE  C21519113   0.966   2.837   8.117  0.8128 -0.5194 -0.5268
  169SAPE  H15R19114   1.012   2.740   8.142  1.9313  0.5514  1.8059
  169SAPE  C21619115   0.911   2.911   8.227  0.3595  0.3070 -0.0220
  169SAPE  H16R19116   0.892   2.849   8.318 -0.3717  0.6525  0.0672
  169SAPE  H16S19117   0.821   2.967   8.194  0.3557  0.1750 -0.2359
  169SAPE  C21719118   1.005   3.024   8.268 -0.5576  0.0438  0.6119
  169SAPE  H17R19119   1.027   3.092   8.183  1.2476 -1.7087 -0.4172
  169SAPE  H17S19120   1.099   2.978   8.304 -1.1323 -0.5086  1.4528
  169SAPE  C21819121   0.963   3.116   8.376  0.8159 -0.4947 -0.2110
  169SAPE  H18R19122   0.863   3.152   8.344  1.2181  1.6409  0.7792
  169SAPE  H18S19123   1.016   3.213   8.370 -1.5937  0.8318 -1.3870
  169SAPE  C21919124   0.955   3.061   8.525 -0.0770  0.1686 -0.3154
  169SAPE  H19R19125   1.018   3.126   8.591 -0.0691  1.9927 -2.0074
  169SAPE  H19S19126   0.993   2.957   8.533 -3.1781 -1.1645 -1.2469
  169SAPE  C22019127   0.811   3.065   8.581  0.9571  0.3091 -0.7911
  169SAPE  H20R19128   0.814   3.015   8.680  0.8894 -0.2376 -1.0612
  169SAPE  H20S19129   0.752   2.998   8.515  0.0602 -0.0571  0.3503
  169SAPE  H20T19130   0.766   3.167   8.582  2.2025  0.9116  1.6767
  169SAPE   C3319131   0.615   2.878   7.176 -0.6858 -0.2623 -0.0652
  169SAPE   H3X19132   0.677   2.789   7.155 -0.1129 -0.0641  0.7354
  169SAPE   H3Y19133   0.530   2.838   7.236 -0.9318  0.7406  0.2924
  169SAPE   C3419134   0.690   2.958   7.289  0.1201 -0.2879  0.3180
  169SAPE   H4X19135   0.636   3.053   7.304  2.5483  0.6425  4.9645
  169SAPE   H4Y19136   0.785   2.987   7.240 -0.9308  0.8640 -1.1289
  169SAPE   C3519137   0.697   2.856   7.407 -0.1271 -0.7484 -0.2553
  169SAPE   H5X19138   0.793   2.860   7.462 -0.3519  2.2122  0.0843
  169SAPE   H5Y19139   0.688   2.750   7.373  0.4448 -0.9816  0.3088
  169SAPE   C3619140   0.591   2.878   7.526 -0.6032 -0.6829  0.2987
  169SAPE   H6X19141   0.489   2.855   7.489 -0.3198 -0.0043 -0.9392
  169SAPE   H6Y19142   0.599   2.987   7.551 -0.8408 -0.0784 -2.0540
  169SAPE   C3719143   0.628   2.781   7.636 -0.4141 -0.1193 -0.6195
  169SAPE   H7X19144   0.731   2.811   7.663  0.3246 -1.6381 -1.6352
  169SAPE   H7Y19145   0.619   2.674   7.610  0.4497 -0.3849  0.1392
  169SAPE   C3819146   0.535   2.793   7.758 -0.1736 -0.4189 -0.1385
  169SAPE   H8X19147   0.432   2.768   7.723 -0.6447 -1.2035  1.7183
  169SAPE   H8Y19148   0.536   2.899   7.788  2.3362 -0.1687 -0.9186
  169SAPE   C3919149   0.574   2.713   7.875 -0.0067 -0.1906  0.1113
  169SAPE   H9X19150   0.678   2.744   7.896  0.4911 -1.2931 -0.6600
  169SAPE   H9Y19151   0.573   2.604   7.854  2.4290  0.1191 -2.0182
  169SAPE  C31019152   0.482   2.751   7.999 -0.2314  0.5598 -0.6843
  169SAPE  H10X19153   0.383   2.731   7.953  0.0548 -3.1937  0.0335
  169SAPE  H10Y19154   0.501   2.856   8.032  4.0086  0.3207 -1.6898
  169SAPE  C31119155   0.495   2.660   8.123  0.1814 -0.3131 -0.7010
  169SAPE  H11X19156   0.484   2.553   8.095  0.7340 -0.6325  0.2711
  169SAPE  H11Y19157   0.411   2.685   8.191  0.9466  0.1299  0.0959
  169SAPE  C31219158   0.622   2.684   8.191 -1.0425 -1.1165  0.0278
  169SAPE  H12X19159   0.625   2.793   8.211 -1.7001 -0.8378 -1.3050
  169SAPE  H12Y19160   0.708   2.663   8.123 -0.3193 -2.0390  1.1869
  169SAPE  C31319161   0.632   2.598   8.318  0.2892 -0.3901 -0.9157
  169SAPE  H13X19162   0.635   2.489   8.297 -0.7097 -0.7981  0.8062
  169SAPE  H13Y19163   0.538   2.620   8.373  0.7002 -1.4184  0.2626
  169SAPE  C31419164   0.742   2.649   8.419 -0.1154 -1.1201 -0.7321
  169SAPE  H14X19165   0.736   2.759   8.434 -1.3923 -1.2814  0.1284
  169SAPE  H14Y19166   0.842   2.624   8.378 -0.1876 -1.9826 -0.3814
  169SAPE  C31519167   0.714   2.586   8.558  0.0720 -0.5156 -0.3192
  169SAPE  H15X19168   0.671   2.484   8.550 -1.6587  0.2817 -1.8090
  169SAPE  H15Y19169   0.628   2.637   8.607  0.2357 -0.8480  0.3356
  169SAPE  C31619170   0.844   2.568   8.648 -0.9942  0.2319  0.1564
  169SAPE  H16X19171   0.928   2.538   8.582  1.0079  1.1710  2.1284
  169SAPE  H16Y19172   0.821   2.493   8.727  0.7042 -0.9905 -0.4486
  169SAPE  C31719173   0.881   2.693   8.723  0.1566  0.0777 -0.7807
  169SAPE  H17X19174   0.797   2.715   8.793  0.9279  0.6238 -0.0111
  169SAPE  H17Y19175   0.896   2.780   8.657  0.1099  1.1413  0.5713
  169SAPE  C31819176   1.004   2.679   8.806  0.3057  0.0022  0.4263
  169SAPE  H18X19177   1.091   2.681   8.738 -1.3228  2.2083 -1.7387
  169SAPE  H18Y19178   1.007   2.588   8.871  0.0811 -0.5670 -0.3401
  169SAPE  H18Z19179   1.016   2.769   8.870 -1.4638  0.8819 -0.4135
  170SAPE     N19180   1.256   0.907   6.227 -0.3723  0.0139 -0.7264
  170SAPE   HN119181   1.256   0.822   6.167 -2.0119 -1.7185  1.5135
  170SAPE   HN219182   1.172   0.966   6.211  0.1429  0.8712 -0.3550
  170SAPE   HN319183   1.341   0.959   6.197 -1.2563  2.9215  1.3415
  170SAPE   C1219184   1.266   0.849   6.363 -0.0489  0.2714 -0.3559
  170SAPE  H12A19185   1.165   0.808   6.386 -0.7165  1.1612 -1.6060
  170SAPE  H12B19186   1.274   0.936   6.432 -2.7519 -0.7404  1.4252
  170SAPE   C1119187   1.390   0.759   6.378 -0.6167 -0.3879  1.0087
  170SAPE  H11A19188   1.380   0.674   6.307  0.2785  0.1250  0.2291
  170SAPE  H11B19189   1.410   0.703   6.472 -0.0173 -0.5043  0.8164
  170SAPE     P19190   1.579   0.939   6.425  0.2075 -0.2409  0.0987
  170SAPE   O1319191   1.715   0.962   6.374  0.4995  0.2508  0.7713
  170SAPE   O1419192   1.491   1.065   6.429  0.5047  0.1362 -0.3729
  170SAPE   O1219193   1.505   0.833   6.333  0.3043  0.4429 -0.1801
  170SAPE   O1119194   1.580   0.868   6.566  0.7908 -0.0963 -0.1860
  170SAPE    C119195   1.479   0.891   6.669 -0.8362 -0.6243 -0.0962
  170SAPE    HA19196   1.470   0.999   6.690 -2.5767 -0.4606 -1.4435
  170SAPE    HB19197   1.375   0.867   6.637 -1.1117  0.3243  0.0580
  170SAPE    C219198   1.488   0.811   6.806  0.1338  0.3508  0.0096
  170SAPE    HS19199   1.389   0.830   6.852  0.6809  2.4900  0.3992
  170SAPE   O2119200   1.594   0.865   6.895 -0.6650  0.2376 -0.3857
  170SAPE   C2119201   1.571   0.870   7.018 -0.1714  0.2997  0.1122
  170SAPE   O2219202   1.469   0.828   7.071  0.2862  0.8011 -0.4880
  170SAPE   C2219203   1.694   0.929   7.098  0.3034  0.8215 -0.2043
  170SAPE   H2R19204   1.791   0.889   7.064  0.9812  4.1464 -2.6955
  170SAPE   H2S19205   1.691   1.036   7.068 -1.6609  0.8672  0.0055
  170SAPE    C319206   1.511   0.658   6.795 -0.4873 -0.0288  1.1432
  170SAPE    HX19207   1.618   0.633   6.781 -1.1239 -1.6634 -1.5767
  170SAPE    HY19208   1.464   0.632   6.698  1.8741  0.2280 -0.1607
  170SAPE   O3119209   1.461   0.586   6.908  0.0147  0.1428  0.4396
  170SAPE   C3119210   1.336   0.543   6.911  0.7443 -0.0401 -0.0293
  170SAPE   O3219211   1.260   0.541   6.809 -0.5081  0.3953  0.0510
  170SAPE   C3219212   1.317   0.502   7.052 -0.1764 -0.3259 -0.0810
  170SAPE   H2X19213   1.411   0.510   7.110 -0.1743  1.9939 -0.3113
  170SAPE   H2Y19214   1.311   0.392   7.041 -2.9026 -0.1072 -1.7673
  170SAPE   C2319215   1.688   0.916   7.248  0.3482  0.9067 -0.1268
  170SAPE   H3R19216   1.706   0.809   7.275  0.8730  1.2220  0.7975
  170SAPE   H3S19217   1.591   0.946   7.293  0.6429 -0.7276  1.7682
  170SAPE   C2419218   1.787   0.996   7.330  0.1501  0.1853 -1.2557
  170SAPE   H4R19219   1.891   0.966   7.305  0.3816  1.3448 -1.7243
  170SAPE   H4S19220   1.771   0.976   7.438 -0.6065 -1.4424 -1.6272
  170SAPE   C2519221   1.778   1.142   7.304 -0.0209  0.4458  0.6716
  170SAPE   H5R19222   1.788   1.162   7.197  1.5254  1.4605  0.9753
  170SAPE   C2619223   1.755   1.245   7.387  0.3701 -0.2814 -0.7172
  170SAPE   H6R19224   1.763   1.347   7.347  2.5055 -0.1983 -0.1546
  170SAPE   C2719225   1.710   1.231   7.539 -0.0965  0.1703  0.1205
  170SAPE   H7R19226   1.797   1.209   7.604  0.3631  2.7099  0.4509
  170SAPE   H7S19227   1.638   1.146   7.539  1.2721 -1.0318 -0.2940
  170SAPE   C2819228   1.646   1.354   7.594  0.2025  0.2214 -0.2443
  170SAPE   H8R19229   1.550   1.381   7.547 -2.1223 -2.0277  2.7516
  170SAPE   C2919230   1.684   1.431   7.693 -0.3178  0.1657 -0.0220
  170SAPE   H9R19231   1.616   1.515   7.710  0.0654  0.1482  1.8882
  170SAPE  C21019232   1.809   1.418   7.778 -0.8224 -0.0368 -0.8277
  170SAPE  H10R19233   1.891   1.378   7.715 -1.6889 -0.1770 -1.8949
  170SAPE  H10S19234   1.792   1.347   7.863  2.7272  2.4369  2.2992
  170SAPE  C21119235   1.836   1.550   7.843 -0.0006  0.0332  0.0551
  170SAPE  H11R19236   1.751   1.607   7.883  0.1324 -0.6842  1.4511
  170SAPE  C21219237   1.958   1.613   7.852  0.2547 -0.2509  0.2999
  170SAPE  H12R19238   1.968   1.716   7.891  1.7822  0.6560 -2.2702
  170SAPE  C21319239   2.095   1.569   7.816  0.4500  0.6713  0.1658
  170SAPE  H13R19240   2.140   1.631   7.735  1.6372 -0.2118  0.1224
  170SAPE  H13S19241   2.095   1.469   7.767  2.7006  1.2083 -1.0633
  170SAPE  C21419242   2.188   1.556   7.928  0.4179 -0.5646 -0.2030
  170SAPE  H14R19243   2.239   1.650   7.956 -0.2392 -0.3226  0.1836
  170SAPE  C21519244   2.206   1.445   8.002 -0.1330 -0.0098  0.6199
  170SAPE  H15R19245   2.293   1.445   8.069  2.4340  0.9787 -2.4637
  170SAPE  C21619246   2.126   1.311   7.983 -0.1354 -0.0612 -0.4775
  170SAPE  H16R19247   2.179   1.236   7.921 -0.1941  0.8592 -1.6847
  170SAPE  H16S19248   2.027   1.339   7.942  0.0697  1.9414  0.2567
  170SAPE  C21719249   2.102   1.242   8.123  0.2065 -0.0668  0.0161
  170SAPE  H17R19250   2.039   1.307   8.188 -0.1155  0.0867 -0.4513
  170SAPE  H17S19251   2.201   1.236   8.174 -0.4312 -0.4240  1.2452
  170SAPE  C21819252   2.046   1.097   8.118  0.3001 -0.1115 -0.6496
  170SAPE  H18R19253   2.120   1.033   8.066  0.7842 -0.7009  0.7006
  170SAPE  H18S19254   1.954   1.099   8.056  0.3961 -1.1439 -0.8447
  170SAPE  C21919255   2.043   1.045   8.261  0.0202 -0.6530  0.0828
  170SAPE  H19R19256   1.963   1.099   8.316  1.2221 -1.2675  2.5812
  170SAPE  H19S19257   2.125   1.083   8.326 -1.2030 -0.0871  1.3523
  170SAPE  C22019258   2.013   0.896   8.268  0.2391 -1.1579 -0.5417
  170SAPE  H20R19259   1.925   0.860   8.210 -0.1615 -0.2016 -0.5510
  170SAPE  H20S19260   1.986   0.882   8.375  1.7932  3.4883  0.6990
  170SAPE  H20T19261   2.101   0.836   8.238 -0.5341 -3.1280  0.9150
  170SAPE   C3319262   1.195   0.571   7.115  1.0266 -0.4979  0.1090
  170SAPE   H3X19263   1.108   0.557   7.046  0.5708 -2.3533  0.9942
  170SAPE   H3Y19264   1.219   0.679   7.125  0.5348 -0.4369  0.7331
  170SAPE   C3419265   1.158   0.517   7.260  0.6216 -0.7927  0.9077
  170SAPE   H4X19266   1.249   0.518   7.323  1.1609 -2.8676  0.2237
  170SAPE   H4Y19267   1.116   0.414   7.254 -0.2678 -0.3589 -1.2957
  170SAPE   C3519268   1.063   0.619   7.330  0.1482 -0.2014  0.6854
  170SAPE   H5X19269   0.971   0.629   7.270 -0.2051 -0.7720  1.1160
  170SAPE   H5Y19270   1.122   0.712   7.340  0.5943 -0.6345  2.4187
  170SAPE   C3619271   1.018   0.564   7.472 -0.2148  0.2449  0.5584
  170SAPE   H6X19272   1.034   0.455   7.463  1.1231  0.5082 -0.6773
  170SAPE   H6Y19273   0.911   0.587   7.490 -0.9567 -1.1561 -1.6534
  170SAPE   C3719274   1.105   0.615   7.589 -0.3743  0.2367 -0.6468
  170SAPE   H7X19275   1.126   0.724   7.582  4.4775 -0.3601  0.6010
  170SAPE   H7Y19276   1.202   0.562   7.577 -1.1690 -0.7450 -3.7535
  170SAPE   C3819277   1.037   0.576   7.721 -0.3194  0.2164  0.5826
  170SAPE   H8X19278   1.012   0.468   7.724 -0.3722  0.1101 -2.0020
  170SAPE   H8Y19279   0.945   0.636   7.741 -0.1644  0.1407  1.5835
  170SAPE   C3919280   1.138   0.597   7.837  0.0185 -0.5373 -0.1478
  170SAPE   H9X19281   1.145   0.706   7.860  0.1886 -0.5084 -0.3449
  170SAPE   H9Y19282   1.239   0.557   7.815  0.2770 -2.3759  3.6124
  170SAPE  C31019283   1.100   0.536   7.976 -0.4787 -0.5439 -0.0125
  170SAPE  H10X19284   1.115   0.427   7.961  0.3968 -0.2923 -1.0801
  170SAPE  H10Y19285   0.993   0.564   7.987  0.0947  1.5946  0.5713
  170SAPE  C31119286   1.184   0.590   8.096  0.0218 -0.6896  0.1557
  170SAPE  H11X19287   1.149   0.590   8.201  2.6230 -0.1948  1.0793
  170SAPE  H11Y19288   1.210   0.695   8.069 -0.2500 -0.9114 -1.0172
  170SAPE  C31219289   1.313   0.508   8.092 -0.2339 -0.2749 -0.1053
  170SAPE  H12X19290   1.337   0.470   7.990 -0.5127  2.6788 -1.3750
  170SAPE  H12Y19291   1.306   0.420   8.159 -0.8223  0.1435  0.3912
  170SAPE  C31319292   1.444   0.579   8.134  0.3657 -0.0708 -0.8420
  170SAPE  H13X19293   1.452   0.679   8.085 -1.5099  1.1929  1.2549
  170SAPE  H13Y19294   1.528   0.506   8.125 -0.0354 -0.7106  0.4242
  170SAPE  C31419295   1.452   0.619   8.283 -0.7737  0.7884  0.2940
  170SAPE  H14X19296   1.461   0.526   8.344 -0.1557  0.7621  0.1663
  170SAPE  H14Y19297   1.367   0.683   8.314 -0.6027  1.7318 -1.1144
  170SAPE  C31519298   1.584   0.703   8.323  0.0760  0.1218 -0.1982
  170SAPE  H15X19299   1.603   0.777   8.242  0.3277  1.1679  0.7781
  170SAPE  H15Y19300   1.667   0.630   8.328  0.7784  0.9802  1.3709
  170SAPE  C31619301   1.564   0.769   8.458 -0.5127 -0.0569  0.3099
  170SAPE  H16X19302   1.522   0.691   8.524 -1.4998 -1.8592 -2.2761
  170SAPE  H16Y19303   1.491   0.852   8.446 -0.9043 -0.5505 -0.9030
  170SAPE  C31719304   1.702   0.824   8.512  0.4952 -0.3291  0.6150
  170SAPE  H17X19305   1.742   0.904   8.446 -0.5840  0.2226  0.6020
  170SAPE  H17Y19306   1.763   0.734   8.492 -1.3175 -0.7216 -4.4016
  170SAPE  C31819307   1.697   0.866   8.656 -0.6735  0.0548 -0.5342
  170SAPE  H18X19308   1.794   0.903   8.693  0.5314 -0.5733 -2.8763
  170SAPE  H18Y19309   1.669   0.776   8.716  1.5242  0.2190  0.8327
  170SAPE  H18Z19310   1.625   0.948   8.674 -0.8975 -0.4402  0.9972
  171SAPE     N19311   3.504   1.219   6.063  0.5649 -0.1263  0.3085
  171SAPE   HN119312   3.594   1.266   6.037  0.2589  0.4874  0.3328
  171SAPE   HN219313   3.443   1.202   5.981  0.8401 -3.2503  0.6413
  171SAPE   HN319314   3.454   1.292   6.117  2.5413  2.4886 -1.1088
  171SAPE   C1219315   3.538   1.091   6.137 -0.1010 -0.3840 -0.1098
  171SAPE  H12A19316   3.621   1.116   6.206  0.1471 -0.9721 -0.1887
  171SAPE  H12B19317   3.584   1.013   6.071  0.4098  0.5389 -0.8680
  171SAPE   C1119318   3.422   1.042   6.210  0.0130 -0.1342 -0.2418
  171SAPE  H11A19319   3.444   0.935   6.231  1.5428  0.5121  1.7735
  171SAPE  H11B19320   3.337   1.043   6.139  0.5415  0.3993 -0.8752
  171SAPE     P19321   3.294   1.231   6.338 -0.4553  0.3938 -0.4641
  171SAPE   O1319322   3.307   1.301   6.468 -0.2194  0.1935 -0.1086
  171SAPE   O1419323   3.308   1.306   6.214 -0.2934 -0.4629  0.1184
  171SAPE   O1219324   3.395   1.117   6.329 -0.1646 -0.2107 -0.0319
  171SAPE   O1119325   3.148   1.148   6.334  0.3581 -0.5532 -0.2041
  171SAPE    C119326   3.130   1.015   6.381 -0.3984 -0.3426 -1.0113
  171SAPE    HA19327   3.052   0.966   6.318  0.3498  0.4729 -2.6504
  171SAPE    HB19328   3.222   0.953   6.375 -1.5908 -2.5330  1.3828
  171SAPE    C219329   3.067   1.003   6.523  0.0129  0.7899 -0.2272
  171SAPE    HS19330   2.978   1.070   6.518  0.2719  1.2291  0.8752
  171SAPE   O2119331   3.158   1.037   6.630 -0.2335  0.2338  0.3232
  171SAPE   C2119332   3.106   1.116   6.725 -0.5039  0.4873 -0.2305
  171SAPE   O2219333   3.001   1.171   6.721  1.1404 -0.0465 -0.2766
  171SAPE   C2219334   3.200   1.113   6.849 -0.3896  0.5814  0.3604
  171SAPE   H2R19335   3.147   1.059   6.930 -0.2208 -0.4310 -0.1875
  171SAPE   H2S19336   3.292   1.055   6.824 -0.5882  1.3097 -2.3271
  171SAPE    C319337   3.009   0.861   6.537  0.3920  0.2573 -0.2650
  171SAPE    HX19338   3.094   0.791   6.524 -0.0679 -0.3823  0.1612
  171SAPE    HY19339   2.951   0.833   6.446  3.1864  0.8834 -2.3840
  171SAPE   O3119340   2.943   0.847   6.667  0.8167 -0.4377  0.2377
  171SAPE   C3119341   2.921   0.725   6.698  0.1054 -0.2054  0.2004
  171SAPE   O3219342   2.928   0.629   6.618 -0.5142 -0.9267  0.0897
  171SAPE   C3219343   2.881   0.718   6.844 -0.6652  0.3782 -0.2547
  171SAPE   H2X19344   2.891   0.613   6.878  0.4033  0.8053  0.8001
  171SAPE   H2Y19345   2.775   0.751   6.842 -0.7295  0.4620  2.0819
  171SAPE   C2319346   3.251   1.258   6.896 -0.3017  0.4629 -0.2306
  171SAPE   H3R19347   3.190   1.337   6.848 -0.0001  0.1991 -1.0754
  171SAPE   H3S19348   3.347   1.261   6.838  0.0622  1.5885  0.4039
  171SAPE   C2419349   3.271   1.264   7.047  0.0851  0.2753  0.7407
  171SAPE   H4R19350   3.353   1.337   7.057  0.2811  0.1550  0.0967
  171SAPE   H4S19351   3.302   1.165   7.087 -0.4622 -0.1975  0.0304
  171SAPE   C2519352   3.139   1.298   7.100  0.3770  0.7022 -0.1541
  171SAPE   H5R19353   3.057   1.341   7.041 -2.7963 -1.2525  2.4192
  171SAPE   C2619354   3.116   1.303   7.229  0.3457 -0.2811 -0.6533
  171SAPE   H6R19355   3.012   1.318   7.262  0.4677  0.5958 -0.6520
  171SAPE   C2719356   3.215   1.285   7.345  0.4118  0.1586  0.7143
  171SAPE   H7R19357   3.312   1.241   7.313  0.4037  1.1974 -0.8776
  171SAPE   H7S19358   3.178   1.204   7.411  1.6872 -2.7068 -1.8315
  171SAPE   C2819359   3.233   1.419   7.414 -0.4932 -0.7609  0.2431
  171SAPE   H8R19360   3.241   1.512   7.357 -0.6033 -0.8393  0.0977
  171SAPE   C2919361   3.243   1.435   7.550  0.5509 -0.4028  0.1623
  171SAPE   H9R19362   3.271   1.533   7.594  0.4758  0.2175 -1.1380
  171SAPE  C21019363   3.239   1.331   7.661 -0.3782 -0.9454  0.2031
  171SAPE  H10R19364   3.328   1.339   7.728  0.7932  0.2201 -1.4074
  171SAPE  H10S19365   3.248   1.226   7.626 -0.3466 -0.4080 -1.4700
  171SAPE  C21119366   3.116   1.348   7.746 -0.6267 -0.0840 -0.1479
  171SAPE  H11R19367   3.033   1.284   7.714  0.3933 -0.5066 -2.0643
  171SAPE  C21219368   3.106   1.422   7.855 -0.2793  0.0864 -0.5811
  171SAPE  H12R19369   3.021   1.405   7.923 -0.9400 -0.4360 -1.5285
  171SAPE  C21319370   3.217   1.514   7.916 -0.1260 -0.3712  0.1740
  171SAPE  H13R19371   3.258   1.578   7.835  2.0349  0.1635  1.5703
  171SAPE  H13S19372   3.293   1.449   7.965 -0.9968 -0.4615  1.4669
  171SAPE  C21419373   3.165   1.608   8.018 -0.4397  0.0405  0.1398
  171SAPE  H14R19374   3.056   1.623   8.028 -0.5959 -1.2127  0.4215
  171SAPE  C21519375   3.241   1.695   8.087 -0.1928  0.1368  0.5222
  171SAPE  H15R19376   3.182   1.759   8.155 -2.2715 -1.8706  0.7240
  171SAPE  C21619377   3.392   1.701   8.072 -0.3172  0.4210  0.1049
  171SAPE  H16R19378   3.430   1.602   8.038 -0.8795  0.8942 -2.0492
  171SAPE  H16S19379   3.439   1.727   8.169  2.5192  0.5911 -1.2149
  171SAPE  C21719380   3.435   1.803   7.953 -0.0218 -0.8141  0.1760
  171SAPE  H17R19381   3.367   1.783   7.867  2.7910 -1.7706 -1.9738
  171SAPE  H17S19382   3.537   1.772   7.921  0.7297 -1.0302  2.5540
  171SAPE  C21819383   3.447   1.953   7.973  0.7021 -0.2092 -0.1424
  171SAPE  H18R19384   3.527   1.970   8.049  1.0540  0.5188 -0.6602
  171SAPE  H18S19385   3.348   1.981   8.016  1.4262  0.8998  0.8784
  171SAPE  C21919386   3.467   2.013   7.838 -0.6779  0.1283  0.2867
  171SAPE  H19R19387   3.402   1.971   7.758 -1.3058  2.3232 -0.4361
  171SAPE  H19S19388   3.573   1.988   7.814 -0.3460 -0.0776  1.8263
  171SAPE  C22019389   3.451   2.168   7.833 -0.5494  0.0973  0.6145
  171SAPE  H20R19390   3.491   2.192   7.732 -0.7324  2.2829  1.0124
  171SAPE  H20S19391   3.526   2.205   7.906  0.1008  1.9242 -0.9029
  171SAPE  H20T19392   3.347   2.207   7.839  0.5907  3.4435  0.9187
  171SAPE   C3319393   2.953   0.796   6.954 -0.9843  0.2677 -0.5107
  171SAPE   H3X19394   2.913   0.768   7.054  1.0072  2.9353  1.1867
  171SAPE   H3Y19395   2.922   0.903   6.954  0.8966  0.9413  2.5187
  171SAPE   C3419396   3.105   0.776   6.962 -0.2179 -0.4438  0.1923
  171SAPE   H4X19397   3.156   0.833   6.881 -0.2988  2.0473  1.7834
  171SAPE   H4Y19398   3.135   0.669   6.969  2.0270  0.1557  0.4405
  171SAPE   C3519399   3.154   0.840   7.093  0.0227 -0.5906  0.2070
  171SAPE   H5X19400   3.110   0.771   7.169  1.2011 -1.4288  0.1438
  171SAPE   H5Y19401   3.116   0.939   7.127 -1.1070 -1.7416  2.5473
  171SAPE   C3619402   3.306   0.854   7.107 -0.1919  0.0272  0.3759
  171SAPE   H6X19403   3.342   0.927   7.032  2.7293 -0.6284  1.0388
  171SAPE   H6Y19404   3.358   0.758   7.084  0.9444  1.5383 -4.4552
  171SAPE   C3719405   3.325   0.911   7.246  0.1977 -0.1624  0.0470
  171SAPE   H7X19406   3.292   1.017   7.251 -1.7165 -0.4756 -3.1939
  171SAPE   H7Y19407   3.434   0.919   7.265  0.4016  1.1287 -1.4636
  171SAPE   C3819408   3.280   0.822   7.355  0.1010 -0.2095 -0.8564
  171SAPE   H8X19409   3.315   0.717   7.353 -1.6329 -0.8568  0.6837
  171SAPE   H8Y19410   3.170   0.809   7.362  0.0742  0.5495  5.2738
  171SAPE   C3919411   3.317   0.870   7.496  0.3144 -0.3690 -0.4950
  171SAPE   H9X19412   3.279   0.974   7.511  0.6830 -0.3300  0.1708
  171SAPE   H9Y19413   3.427   0.882   7.504  0.2299  2.7047 -2.0699
  171SAPE  C31019414   3.269   0.784   7.610 -0.5035  0.0296 -0.3329
  171SAPE  H10X19415   3.329   0.692   7.597  0.5043  0.7116 -0.6212
  171SAPE  H10Y19416   3.160   0.761   7.601 -0.7814  0.9121  0.5991
  171SAPE  C31119417   3.289   0.844   7.754  0.2827  0.0521 -0.1024
  171SAPE  H11X19418   3.399   0.864   7.756  0.0049  1.6527 -0.1870
  171SAPE  H11Y19419   3.261   0.769   7.830 -0.8076 -0.2764 -0.8077
  171SAPE  C31219420   3.198   0.960   7.779 -0.2723 -0.4226 -0.4397
  171SAPE  H12X19421   3.093   0.926   7.789 -0.0554 -1.2544 -0.9093
  171SAPE  H12Y19422   3.203   1.024   7.689  1.2761 -1.5840 -1.2277
  171SAPE  C31319423   3.247   1.052   7.897 -0.2087 -0.2398  0.5938
  171SAPE  H13X19424   3.159   1.114   7.925  0.2804  1.7337 -1.8596
  171SAPE  H13Y19425   3.329   1.121   7.870  0.4644 -0.6394  1.5614
  171SAPE  C31419426   3.280   0.968   8.017  0.2086  0.4087 -0.4577
  171SAPE  H14X19427   3.312   1.036   8.099  0.0213  1.7060 -1.4224
  171SAPE  H14Y19428   3.366   0.903   7.993 -0.2634 -0.5240  0.3403
  171SAPE  C31519429   3.161   0.882   8.076  0.5866  0.4688 -0.3906
  171SAPE  H15X19430   3.205   0.834   8.166 -0.8079 -1.0244 -0.4522
  171SAPE  H15Y19431   3.113   0.814   8.002 -0.9944 -0.6445  1.5475
  171SAPE  C31619432   3.040   0.959   8.134  0.3311  0.4989 -0.1284
  171SAPE  H16X19433   2.960   0.884   8.150  2.0967 -1.1992  1.2082
  171SAPE  H16Y19434   2.993   1.031   8.063 -0.8896  1.0408  1.1953
  171SAPE  C31719435   3.065   1.036   8.262  0.6992 -0.8546 -0.2963
  171SAPE  H17X19436   3.157   1.092   8.235  0.2949 -0.4239 -0.8244
  171SAPE  H17Y19437   3.090   0.965   8.343  0.5595  0.3222  0.7972
  171SAPE  C31819438   2.962   1.140   8.313  0.4214 -0.3454 -0.4896
  171SAPE  H18X19439   2.993   1.183   8.411 -0.4685  1.0232 -0.7823
  171SAPE  H18Y19440   2.869   1.082   8.326 -0.4256  0.8688 -0.9417
  171SAPE  H18Z19441   2.941   1.214   8.233  0.4362 -0.9837 -1.0974
  172SAPE     N19442   3.923   6.043   6.253 -0.7487 -0.2320 -0.0682
  172SAPE   HN119443   3.837   5.990   6.278 -0.7079 -0.2970 -0.0648
  172SAPE   HN219444   3.901   6.119   6.185  1.2491  0.2440 -0.2509
  172SAPE   HN319445   3.986   5.978   6.202 -2.4852 -0.4407 -2.0969
  172SAPE   C1219446   3.992   6.101   6.375 -0.1801  0.0436  0.5290
  172SAPE  H12A19447   4.091   6.135   6.337 -1.8416  2.8421 -1.6018
  172SAPE  H12B19448   4.021   6.021   6.447 -0.0996  0.1308  0.5945
  172SAPE   C1119449   3.921   6.226   6.427  0.1963 -0.5567 -0.1712
  172SAPE  H11A19450   3.989   6.266   6.506  0.3555  2.2020 -1.5777
  172SAPE  H11B19451   3.831   6.187   6.478 -0.8128  1.2001 -0.5213
  172SAPE     P19452   3.754   6.373   6.284 -0.6009  0.3198  0.0625
  172SAPE   O1319453   3.763   6.490   6.198  0.0158 -0.0604  0.7734
  172SAPE   O1419454   3.673   6.262   6.241 -0.0300  0.3543 -0.7545
  172SAPE   O1219455   3.901   6.320   6.318 -0.6560  0.4893  0.2030
  172SAPE   O1119456   3.707   6.425   6.423  0.5991 -0.3421 -0.4676
  172SAPE    C119457   3.767   6.541   6.486  0.2938  0.1073 -0.0900
  172SAPE    HA19458   3.829   6.514   6.574  2.2568 -0.5877 -1.6330
  172SAPE    HB19459   3.835   6.600   6.421 -0.4742  0.0543 -0.9556
  172SAPE    C219460   3.657   6.628   6.549  0.2991  0.6292  0.0008
  172SAPE    HS19461   3.588   6.666   6.471  0.9663  0.2737 -0.7729
  172SAPE   O2119462   3.725   6.744   6.604  0.2581  0.1509 -0.2522
  172SAPE   C2119463   3.653   6.846   6.627 -0.5775  0.4350 -0.7728
  172SAPE   O2219464   3.532   6.865   6.610  0.0044  0.1726  0.1278
  172SAPE   C2219465   3.731   6.966   6.681  0.2474 -0.0791  0.3462
  172SAPE   H2R19466   3.840   6.947   6.674  0.4743  1.3992 -0.5438
  172SAPE   H2S19467   3.694   7.050   6.618 -1.3627 -0.2048  1.0760
  172SAPE    C319468   3.570   6.548   6.655 -0.1844  0.5586  0.1460
  172SAPE    HX19469   3.522   6.466   6.598 -1.8801  0.7166  1.2804
  172SAPE    HY19470   3.478   6.610   6.661 -1.8160 -1.6119 -1.0931
  172SAPE   O3119471   3.626   6.511   6.782  0.2930  0.4322 -0.1508
  172SAPE   C3119472   3.570   6.577   6.895 -0.5421  0.1093  0.1369
  172SAPE   O3219473   3.476   6.652   6.890  0.0238 -0.4354  0.1100
  172SAPE   C3219474   3.652   6.551   7.023  0.3757 -0.2715 -0.1958
  172SAPE   H2X19475   3.757   6.574   6.992 -0.0787 -0.5140 -2.0359
  172SAPE   H2Y19476   3.637   6.448   7.061  1.3344  0.1514  1.4383
  172SAPE   C2319477   3.694   6.993   6.831  0.1253 -0.6521 -0.6772
  172SAPE   H3R19478   3.587   6.968   6.841  0.2407 -0.7047  0.5958
  172SAPE   H3S19479   3.712   7.101   6.847 -1.7178 -0.1910 -1.5407
  172SAPE   C2419480   3.767   6.917   6.947  0.4764  0.1954 -0.6532
  172SAPE   H4R19481   3.723   6.816   6.934 -1.5002  0.8196  0.6725
  172SAPE   H4S19482   3.724   6.965   7.038  0.5329 -1.8792  0.5235
  172SAPE   C2519483   3.919   6.919   6.951  0.1846  0.1250 -0.1075
  172SAPE   H5R19484   3.964   6.969   6.864 -1.6614  0.3649 -0.9754
  172SAPE   C2619485   4.007   6.878   7.047 -0.0048 -1.0568  0.5460
  172SAPE   H6R19486   4.112   6.901   7.024 -0.4149  0.3989 -0.0130
  172SAPE   C2719487   3.970   6.817   7.174  0.3555 -0.3847  0.3454
  172SAPE   H7R19488   3.922   6.718   7.158  1.9149 -0.6889 -3.3976
  172SAPE   H7S19489   3.906   6.885   7.234  0.9364  1.3456 -0.9111
  172SAPE   C2819490   4.093   6.797   7.257 -0.3592  0.4724 -0.3000
  172SAPE   H8R19491   4.185   6.774   7.201  0.3848  2.7078 -0.0970
  172SAPE   C2919492   4.102   6.792   7.392 -0.0857  0.2122  0.1852
  172SAPE   H9R19493   4.199   6.812   7.442  0.5895 -0.7728 -0.6864
  172SAPE  C21019494   3.985   6.810   7.493 -1.3514  1.2019  0.6225
  172SAPE  H10R19495   3.969   6.708   7.535  1.5964 -0.3235 -1.5800
  172SAPE  H10S19496   3.895   6.850   7.443 -1.5039  0.4503  0.2889
  172SAPE  C21119497   4.020   6.892   7.616 -0.2799 -0.6542  0.3620
  172SAPE  H11R19498   4.050   6.994   7.589 -1.9647  0.1227  1.2865
  172SAPE  C21219499   4.014   6.863   7.747 -0.7547  0.9785 -0.3416
  172SAPE  H12R19500   4.010   6.949   7.815  0.0566  1.7007 -1.1772
  172SAPE  C21319501   3.958   6.742   7.808 -0.3110 -0.1049 -0.3061
  172SAPE  H13R19502   4.011   6.659   7.758 -0.8666  0.1589 -1.3698
  172SAPE  H13S19503   3.857   6.725   7.763  0.0266 -0.6724 -0.8568
  172SAPE  C21419504   3.959   6.727   7.956 -0.2053  0.2117  0.1827
  172SAPE  H14R19505   4.037   6.658   7.989  0.0719  0.6275  0.3962
  172SAPE  C21519506   3.876   6.788   8.042 -0.2591  1.1148 -0.0474
  172SAPE  H15R19507   3.886   6.768   8.150 -1.4787  0.8248  0.0306
  172SAPE  C21619508   3.753   6.877   8.014 -0.4677 -0.2246  0.2667
  172SAPE  H16R19509   3.657   6.853   8.065 -0.4444  0.8356  0.8480
  172SAPE  H16S19510   3.730   6.879   7.905 -0.3416  0.7984  0.2465
  172SAPE  C21719511   3.792   7.017   8.071 -0.1229 -0.6263  0.1437
  172SAPE  H17R19512   3.716   7.096   8.054  2.1862  2.0623  1.5368
  172SAPE  H17S19513   3.864   7.051   7.993 -0.5126 -0.2039 -0.0395
  172SAPE  C21819514   3.849   7.034   8.212 -0.3497  0.1486 -0.3166
  172SAPE  H18R19515   3.895   7.135   8.207  3.2044 -0.9921  3.3443
  172SAPE  H18S19516   3.927   6.959   8.240  0.5745  1.2777  0.2571
  172SAPE  C21919517   3.753   7.051   8.335 -0.2328  0.1563 -0.1469
  172SAPE  H19R19518   3.679   7.119   8.288  0.9931  1.3031 -0.4773
  172SAPE  H19S19519   3.800   7.109   8.417 -0.8014  0.4897 -0.0509
  172SAPE  C22019520   3.692   6.918   8.379  0.2186 -0.9259 -0.2757
  172SAPE  H20R19521   3.614   6.931   8.457  0.4149  0.6952 -0.3185
  172SAPE  H20S19522   3.775   6.858   8.422 -0.1685 -0.4705  1.1304
  172SAPE  H20T19523   3.652   6.862   8.291  0.1934 -0.6285 -0.4521
  172SAPE   C3319524   3.609   6.634   7.142  0.5248  0.0417 -0.3453
  172SAPE   H3X19525   3.498   6.635   7.141  0.5205 -0.2373 -0.4045
  172SAPE   H3Y19526   3.624   6.743   7.129 -1.1906  0.5455  1.4430
  172SAPE   C3419527   3.634   6.580   7.280  0.3721  0.1181 -0.0283
  172SAPE   H4X19528   3.736   6.618   7.300  1.0394  0.1606 -3.1338
  172SAPE   H4Y19529   3.639   6.470   7.276  0.6826  0.1680 -1.3685
  172SAPE   C3519530   3.541   6.634   7.391  0.1047  0.1126  0.2511
  172SAPE   H5X19531   3.438   6.602   7.364  0.0041  2.0124 -1.9085
  172SAPE   H5Y19532   3.538   6.744   7.398 -1.5794  0.1611 -0.8139
  172SAPE   C3619533   3.579   6.586   7.528 -0.0271  0.2043 -0.4732
  172SAPE   H6X19534   3.686   6.609   7.546  0.4276 -1.8813 -0.1999
  172SAPE   H6Y19535   3.586   6.475   7.533  3.8403  0.3490  1.1225
  172SAPE   C3719536   3.476   6.636   7.628  0.5996  0.0472  0.2334
  172SAPE   H7X19537   3.373   6.600   7.607  1.0369  0.1267 -2.3860
  172SAPE   H7Y19538   3.480   6.747   7.637  0.8051 -0.0939  2.7328
  172SAPE   C3819539   3.524   6.582   7.765 -0.7678 -0.5909  0.6597
  172SAPE   H8X19540   3.630   6.610   7.783  0.3994 -3.3917 -1.0601
  172SAPE   H8Y19541   3.524   6.470   7.763  1.3255 -0.6655  1.8346
  172SAPE   C3919542   3.437   6.650   7.872  0.0252  0.5148 -0.1795
  172SAPE   H9X19543   3.336   6.629   7.832  1.2882 -0.9378 -2.8263
  172SAPE   H9Y19544   3.446   6.761   7.877 -0.6594  0.6454 -1.4505
  172SAPE  C31019545   3.465   6.595   8.003  0.6072 -0.6590 -0.5138
  172SAPE  H10X19546   3.576   6.596   8.008  0.6476 -2.5478 -0.5995
  172SAPE  H10Y19547   3.432   6.490   7.999 -2.4667  0.2371 -1.4316
  172SAPE  C31119548   3.387   6.662   8.121 -0.6125 -0.4597  0.0164
  172SAPE  H11X19549   3.281   6.661   8.090 -1.0117  1.4446  1.1634
  172SAPE  H11Y19550   3.430   6.763   8.135  0.0284 -0.8636  1.1795
  172SAPE  C31219551   3.402   6.581   8.250 -0.4716 -0.1171  0.1522
  172SAPE  H12X19552   3.511   6.571   8.267  0.1848 -0.5336 -3.5512
  172SAPE  H12Y19553   3.377   6.473   8.243 -0.5547 -0.1926  1.3460
  172SAPE  C31319554   3.347   6.654   8.369 -1.2411  0.1332  0.4015
  172SAPE  H13X19555   3.245   6.691   8.343 -0.2045  2.7568 -0.2266
  172SAPE  H13Y19556   3.402   6.748   8.387 -0.2978 -0.7818  2.7413
  172SAPE  C31419557   3.341   6.574   8.500 -0.5473  0.1327  0.1823
  172SAPE  H14X19558   3.437   6.537   8.542 -0.1336 -1.0599 -1.6881
  172SAPE  H14Y19559   3.290   6.479   8.473  1.4454 -0.7593 -0.6327
  172SAPE  C31519560   3.260   6.644   8.612  0.4271 -0.4114  0.7225
  172SAPE  H15X19561   3.160   6.669   8.572  0.2260 -0.9365  0.8780
  172SAPE  H15Y19562   3.320   6.730   8.647  2.3060 -2.3794  2.6686
  172SAPE  C31619563   3.241   6.560   8.737  0.0067  0.0083  0.6913
  172SAPE  H16X19564   3.339   6.521   8.771  0.9013  0.5983 -1.0908
  172SAPE  H16Y19565   3.174   6.475   8.710 -1.5814  1.4065  0.0852
  172SAPE  C31719566   3.172   6.629   8.852 -0.3393  0.9116  0.1060
  172SAPE  H17X19567   3.068   6.649   8.818 -0.9225 -0.9417  0.7131
  172SAPE  H17Y19568   3.219   6.728   8.871 -2.5105  1.8028  1.2174
  172SAPE  C31819569   3.173   6.530   8.970 -0.2088 -0.1504  0.1429
  172SAPE  H18X19570   3.283   6.518   8.988 -0.0093  1.7528  0.3894
  172SAPE  H18Y19571   3.123   6.433   8.950 -1.0127 -0.1428  1.8966
  172SAPE  H18Z19572   3.122   6.576   9.057 -0.4602 -0.3235  0.0881
  173SOPE     N19573   4.495   5.272  10.859  0.4267 -0.3641 -0.9993
  173SOPE   HN119574   4.529   5.183  10.817 -2.5714 -1.9342 -0.3595
  173SOPE   HN219575   4.529   5.279  10.957  0.5024  1.1307 -1.1149
  173SOPE   HN319576   4.392   5.262  10.867  0.5190 -0.1440  0.9290
  173SOPE   C1219577   4.542   5.390  10.775 -0.0951  0.4603  0.9850
  173SOPE  H12A19578   4.475   5.394  10.686  1.2360 -0.6795 -0.1184
  173SOPE  H12B19579   4.639   5.358  10.730 -0.2201  1.8386 -0.3303
  173SOPE   C1119580   4.563   5.521  10.857 -0.4720  0.0173  0.0256
  173SOPE  H11A19581   4.580   5.608  10.790  0.7741 -0.5036 -0.3589
  173SOPE  H11B19582   4.661   5.512  10.909  0.3166  1.0033 -1.2177
  173SOPE     P19583   4.324   5.629  10.914 -0.7453  0.4374 -0.1261
  173SOPE   O1319584   4.323   5.757  10.987 -0.3782 -0.1055 -0.5783
  173SOPE   O1419585   4.205   5.544  10.929 -0.3257  0.8412 -0.1497
  173SOPE   O1219586   4.455   5.543  10.949 -0.4078 -0.2269  0.4454
  173SOPE   O1119587   4.345   5.666  10.764 -0.0515  0.7088  0.2845
  173SOPE    C119588   4.239   5.696  10.666 -0.1766  0.0235 -0.2042
  173SOPE    HA19589   4.285   5.740  10.574 -0.1421  0.3416 -0.0332
  173SOPE    HB19590   4.162   5.764  10.707 -0.2682 -1.0000  1.3858
  173SOPE    C219591   4.161   5.571  10.609  0.6088  0.6939  0.3595
  173SOPE    HS19592   4.116   5.519  10.696 -1.5465  1.0611 -0.4748
  173SOPE   O2119593   4.257   5.484  10.542  0.5375 -0.8687  0.2284
  173SOPE   C2119594   4.223   5.356  10.538 -0.4152 -0.0708 -0.7115
  173SOPE   O2219595   4.119   5.309  10.571  0.7249  0.6956  0.1493
  173SOPE   C2219596   4.333   5.268  10.481  0.0512  0.1730 -0.1371
  173SOPE   H2R19597   4.345   5.174  10.540 -3.5462 -0.0909  0.3687
  173SOPE   H2S19598   4.426   5.328  10.491  0.7437 -0.5263 -1.8729
  173SOPE    C319599   4.044   5.620  10.521 -0.7136  0.7960 -0.3641
  173SOPE    HX19600   3.960   5.663  10.578 -1.4391 -0.2909 -0.5851
  173SOPE    HY19601   4.004   5.532  10.465  3.6443 -1.6842 -0.0434
  173SOPE   O3119602   4.088   5.717  10.431 -0.2314  0.0108  0.4142
  173SOPE   C3119603   4.121   5.684  10.302  0.4838 -0.2913  0.0561
  173SOPE   O3219604   4.097   5.580  10.247  0.4459  0.0198  0.5966
  173SOPE   C3219605   4.217   5.785  10.242  0.4358  0.0349  0.4123
  173SOPE   H2X19606   4.286   5.811  10.325 -0.0100  0.9257  0.5091
  173SOPE   H2Y19607   4.148   5.868  10.219 -0.5726 -1.1496 -1.0663
  173SOPE   C2319608   4.317   5.215  10.336  0.3928  0.4798 -0.2102
  173SOPE   H3R19609   4.321   5.303  10.268 -0.1625 -0.1050 -1.0165
  173SOPE   H3S19610   4.218   5.166  10.325  1.1684 -1.3346  0.4292
  173SOPE   C2419611   4.418   5.104  10.291  0.6090  0.0585 -0.0012
  173SOPE   H4R19612   4.515   5.140  10.251  0.6564  0.2301  0.2657
  173SOPE   H4S19613   4.447   5.038  10.375 -2.6675  1.1757  2.1820
  173SOPE   C2519614   4.356   5.016  10.178  0.2490 -0.5696 -0.7158
  173SOPE   H5R19615   4.407   4.919  10.162  0.3138 -0.9386  1.4088
  173SOPE   H5S19616   4.255   4.987  10.214 -0.3013  2.6599  0.7028
  173SOPE   C2619617   4.341   5.090  10.050 -0.0416  0.7682  0.3599
  173SOPE   H6R19618   4.288   5.188  10.057  0.1933  0.9016  0.2516
  173SOPE   H6S19619   4.443   5.121  10.019 -0.0479  0.1822 -0.2708
  173SOPE   C2719620   4.272   5.006   9.938 -0.0562  0.3424 -0.0241
  173SOPE   H7R19621   4.326   4.909   9.935 -1.5353 -0.4996 -0.5682
  173SOPE   H7S19622   4.169   4.968   9.956  0.1366 -1.2217 -1.9030
  173SOPE   C2819623   4.281   5.075   9.798  0.3837  0.0689  0.2639
  173SOPE   H8R19624   4.384   5.112   9.777  0.2079  0.3882 -0.0420
  173SOPE   H8S19625   4.265   4.996   9.721 -0.4882 -0.5191  1.0385
  173SOPE   C2919626   4.181   5.182   9.773 -0.1098  1.1748  0.0547
  173SOPE   H9119627   4.104   5.199   9.850  0.3014  2.1788  0.2590
  173SOPE  C21019628   4.168   5.241   9.648 -0.1176 -0.1728 -0.2078
  173SOPE  H10119629   4.085   5.314   9.644 -1.4720 -1.6346  0.1163
  173SOPE  C21119630   4.258   5.221   9.530 -0.2397 -0.6171 -0.4145
  173SOPE  H11R19631   4.291   5.115   9.532  0.5906 -0.3524  0.9422
  173SOPE  H11S19632   4.349   5.284   9.540 -0.3972 -0.5711  1.0841
  173SOPE  C21219633   4.179   5.222   9.399 -0.4652 -0.1761  0.3812
  173SOPE  H12R19634   4.096   5.296   9.401  0.2686  0.6441  1.4895
  173SOPE  H12S19635   4.128   5.124   9.389 -1.4761  0.4652 -1.2117
  173SOPE  C21319636   4.264   5.251   9.266  0.2184  0.6283 -0.1493
  173SOPE  H13R19637   4.211   5.209   9.178  1.4516  0.1786 -0.7094
  173SOPE  H13S19638   4.361   5.196   9.264 -0.2307 -0.1863  0.3440
  173SOPE  C21419639   4.279   5.399   9.236  0.8536  0.0799 -0.2226
  173SOPE  H14R19640   4.334   5.450   9.317 -0.7100 -1.4133  1.8780
  173SOPE  H14S19641   4.173   5.431   9.240  0.1614 -2.0880  3.5133
  173SOPE  C21519642   4.332   5.412   9.094 -0.0140  0.0841  0.0284
  173SOPE  H15R19643   4.273   5.336   9.039 -2.0971  0.3364  1.7793
  173SOPE  H15S19644   4.439   5.383   9.092 -0.4503 -1.6650 -3.0032
  173SOPE  C21619645   4.311   5.546   9.028 -0.0059 -0.2698 -0.0498
  173SOPE  H16R19646   4.354   5.627   9.090 -0.7306 -1.2073  1.7369
  173SOPE  H16S19647   4.201   5.559   9.033  0.0006 -0.3639  0.3645
  173SOPE  C21719648   4.372   5.541   8.885  0.4712 -0.3283 -0.3306
  173SOPE  H17R19649   4.318   5.467   8.823  1.1673 -0.8983 -0.2834
  173SOPE  H17S19650   4.475   5.499   8.894 -0.1011 -2.3546 -2.2560
  173SOPE  C21819651   4.366   5.672   8.806  0.1643  0.0078 -0.4245
  173SOPE  H18R19652   4.279   5.731   8.842  0.0244 -1.9192  2.8070
  173SOPE  H18S19653   4.355   5.655   8.697  0.3912  0.4632 -0.5198
  173SOPE  H18T19654   4.457   5.724   8.840  0.6685 -2.2915  2.1386
  173SOPE   C3319655   4.283   5.723  10.118 -0.1307  0.3458 -0.3549
  173SOPE   H3X19656   4.318   5.619  10.130  2.2739  1.1422  0.1538
  173SOPE   H3Y19657   4.376   5.779  10.093  0.2351  0.1335  0.5019
  173SOPE   C3419658   4.204   5.738   9.989  0.4613 -0.0022  0.5329
  173SOPE   H4X19659   4.165   5.841   9.977  2.4511  0.6991 -0.2309
  173SOPE   H4Y19660   4.115   5.671   9.989 -0.1111  0.7281 -0.9296
  173SOPE   C3519661   4.279   5.693   9.860  0.1614 -0.0212 -0.2338
  173SOPE   H5X19662   4.335   5.600   9.884  1.1016  0.1201 -1.7639
  173SOPE   H5Y19663   4.351   5.774   9.838  0.5975 -0.7661 -1.6698
  173SOPE   C3619664   4.192   5.663   9.736  0.3248  0.1924 -0.4035
  173SOPE   H6X19665   4.130   5.753   9.718 -2.2544 -1.0336  1.6488
  173SOPE   H6Y19666   4.143   5.563   9.746  0.5594  0.0399 -0.7612
  173SOPE   C3719667   4.283   5.650   9.611 -0.6308 -1.1117 -0.3820
  173SOPE   H7X19668   4.216   5.646   9.522  0.0511  0.5112 -1.0065
  173SOPE   H7Y19669   4.339   5.554   9.616 -1.1926 -1.4470 -0.4663
  173SOPE   C3819670   4.378   5.769   9.582 -0.0606  0.2381  0.4973
  173SOPE   H8X19671   4.437   5.750   9.490 -2.4493 -0.2898 -1.0000
  173SOPE   H8Y19672   4.450   5.775   9.667 -1.7882  0.2266  2.0227
  173SOPE   C3919673   4.306   5.909   9.583  0.3915 -0.7031 -0.3339
  173SOPE   H9X19674   4.248   5.928   9.675 -1.6850  0.3985 -1.7758
  173SOPE   H9Y19675   4.233   5.923   9.500 -0.7295 -0.0141  0.7537
  173SOPE  C31019676   4.397   6.028   9.559 -0.1264  0.2411  0.4711
  173SOPE  H10X19677   4.476   6.026   9.637  1.0367  1.0285 -0.6373
  173SOPE  H10Y19678   4.334   6.119   9.548  0.6755  0.6116 -1.3556
  173SOPE  C31119679   4.479   6.024   9.425 -0.4362 -0.6418  0.0547
  173SOPE  H11X19680   4.549   5.938   9.424  0.7018  0.2648 -0.4629
  173SOPE  H11Y19681   4.544   6.114   9.420  0.6519 -1.2280  2.2660
  173SOPE  C31219682   4.391   6.017   9.295 -0.1989 -0.0006 -0.6538
  173SOPE  H12X19683   4.288   6.052   9.319 -0.5755 -0.0902 -2.0804
  173SOPE  H12Y19684   4.386   5.913   9.256  0.5531 -1.5848  3.0087
  173SOPE  C31319685   4.452   6.108   9.183  0.1525  0.3918 -0.4388
  173SOPE  H13X19686   4.494   6.204   9.219 -1.4695  0.6645  0.8426
  173SOPE  H13Y19687   4.385   6.137   9.099  1.5238 -1.6420 -2.3581
  173SOPE  C31419688   4.566   6.030   9.117  0.2154 -0.0761 -0.7508
  173SOPE  H14X19689   4.520   5.938   9.076 -1.8671  0.1550  0.8632
  173SOPE  H14Y19690   4.632   6.004   9.203  1.6541 -0.5346 -1.9497
  173SOPE  C31519691   4.653   6.102   9.013  0.0199 -0.7799 -0.0208
  173SOPE  H15X19692   4.732   6.032   8.979  2.0334  1.1019  0.5388
  173SOPE  H15Y19693   4.707   6.185   9.065  0.8738 -1.4473  0.1811
  173SOPE  C31619694   4.576   6.172   8.893 -0.2110 -0.5632 -0.7755
  173SOPE  H16X19695   4.653   6.213   8.825  0.6324 -1.4612 -0.3826
  173SOPE  H16Y19696   4.521   6.255   8.943  0.5446 -1.0734  0.9688
  173SOPE  C31719697   4.483   6.083   8.816 -0.5703 -0.4882 -0.5467
  173SOPE  H17X19698   4.404   6.034   8.877 -1.5159  0.4596 -0.9864
  173SOPE  H17Y19699   4.546   6.003   8.772  1.4480 -1.0276  2.8996
  173SOPE  C31819700   4.407   6.166   8.710 -0.5431  0.1188  0.2281
  173SOPE  H18X19701   4.364   6.255   8.760  0.0449  1.7969 -2.1066
  173SOPE  H18Y19702   4.320   6.103   8.682  0.3655 -0.9404 -0.2697
  173SOPE  H18Z19703   4.466   6.187   8.619 -1.8111  0.0559 -0.6347
  174SOPE     N19704   4.078   3.273  10.770  0.3673  0.0469  0.0476
  174SOPE   HN119705   4.013   3.353  10.785 -1.4991 -1.1639 -1.1114
  174SOPE   HN219706   4.134   3.301  10.687 -2.4048  2.0271 -1.3516
  174SOPE   HN319707   4.041   3.178  10.749  3.8489 -1.7005  1.1238
  174SOPE   C1219708   4.157   3.245  10.894  0.4678 -0.3269  0.0913
  174SOPE  H12A19709   4.090   3.203  10.971 -0.0584 -0.8810 -0.6577
  174SOPE  H12B19710   4.211   3.338  10.925  0.7687 -0.0832 -1.0931
  174SOPE   C1119711   4.268   3.153  10.852 -0.1130  0.1484 -0.8847
  174SOPE  H11A19712   4.231   3.052  10.824 -0.4950 -0.5806  1.9539
  174SOPE  H11B19713   4.324   3.134  10.945 -0.2553 -0.0679 -0.8442
  174SOPE     P19714   4.483   3.124  10.716 -0.1550  0.4970  0.3050
  174SOPE   O1319715   4.489   2.986  10.768  0.7605 -0.2876  1.1105
  174SOPE   O1419716   4.589   3.212  10.767 -0.1787 -0.1973  0.3445
  174SOPE   O1219717   4.351   3.194  10.744 -0.1742  0.1423  0.2482
  174SOPE   O1119718   4.500   3.118  10.558 -0.5186 -0.4121 -0.1850
  174SOPE    C119719   4.462   3.232  10.474 -0.2781 -0.1724 -0.0384
  174SOPE    HA19720   4.450   3.329  10.526 -0.2680 -0.5407  0.6570
  174SOPE    HB19721   4.364   3.212  10.424 -1.1986  1.4128  1.0219
  174SOPE    C219722   4.567   3.255  10.362  0.7699  0.2125 -0.6939
  174SOPE    HS19723   4.524   3.325  10.286 -3.4370 -2.1580 -0.7733
  174SOPE   O2119724   4.600   3.131  10.296  0.2213 -0.4390  0.4695
  174SOPE   C2119725   4.502   3.077  10.219  0.0882  0.6531  0.1253
  174SOPE   O2219726   4.400   3.138  10.186  0.3247  0.0349 -0.1491
  174SOPE   C2219727   4.534   2.935  10.169 -0.0545 -0.0867 -0.4493
  174SOPE   H2R19728   4.450   2.871  10.204 -0.6163 -0.4348 -2.2743
  174SOPE   H2S19729   4.629   2.911  10.220 -0.8306 -1.2345  0.5283
  174SOPE    C319730   4.695   3.313  10.417 -0.7336 -0.2535 -0.1588
  174SOPE    HX19731   4.740   3.241  10.488 -0.3668  2.1447  2.1637
  174SOPE    HY19732   4.675   3.405  10.474 -1.9891 -0.1410 -0.7508
  174SOPE   O3119733   4.793   3.346  10.314 -0.4831 -0.1598  0.1306
  174SOPE   C3119734   4.787   3.475  10.265 -0.1114  0.6733  0.2434
  174SOPE   O3219735   4.712   3.563  10.307  0.1796  0.8908  0.0191
  174SOPE   C3219736   4.871   3.489  10.146  0.0707 -0.8736 -0.4430
  174SOPE   H2X19737   4.797   3.468  10.066 -2.6393  1.6146  1.2225
  174SOPE   H2Y19738   4.951   3.412  10.147 -0.2755 -1.3578  2.8300
  174SOPE   C2319739   4.548   2.918  10.014 -0.5399 -1.0627  0.1056
  174SOPE   H3R19740   4.592   2.824   9.974 -0.2103 -0.2466 -1.5257
  174SOPE   H3S19741   4.617   2.999   9.982 -0.7941 -0.4095  1.1623
  174SOPE   C2419742   4.417   2.927   9.935 -0.8097  0.5869  0.4438
  174SOPE   H4R19743   4.352   2.839   9.954 -0.5907  0.2721 -0.2242
  174SOPE   H4S19744   4.366   3.021   9.967  0.5426  0.5858  2.8677
  174SOPE   C2519745   4.446   2.925   9.786  0.2087 -0.3504  0.0861
  174SOPE   H5R19746   4.523   2.996   9.749 -0.2932  0.1539 -0.0007
  174SOPE   H5S19747   4.489   2.827   9.758  1.9425  0.6065 -0.7250
  174SOPE   C2619748   4.318   2.930   9.705 -0.2787 -0.4696  0.1122
  174SOPE   H6R19749   4.249   2.854   9.747 -1.9576  1.0261  0.1924
  174SOPE   H6S19750   4.268   3.029   9.716  0.6310 -0.1322  1.4290
  174SOPE   C2719751   4.348   2.904   9.563 -0.1369  0.2659  0.5342
  174SOPE   H7R19752   4.390   2.803   9.540 -0.6338  0.3110 -0.6556
  174SOPE   H7S19753   4.249   2.907   9.512  1.2486 -0.6778 -2.4713
  174SOPE   C2819754   4.435   3.016   9.495 -0.6723  0.1672 -0.1828
  174SOPE   H8R19755   4.387   3.114   9.518 -0.9730 -0.2516  1.0730
  174SOPE   H8S19756   4.535   3.012   9.542 -0.3626 -2.8323 -0.9406
  174SOPE   C2919757   4.463   2.995   9.350  0.4300 -0.1578 -0.3619
  174SOPE   H9119758   4.552   2.932   9.332 -0.0584 -0.7046 -0.9103
  174SOPE  C21019759   4.395   3.051   9.253 -0.1569  0.3428 -0.1471
  174SOPE  H10119760   4.426   3.028   9.149 -1.8211 -4.5704  0.1648
  174SOPE  C21119761   4.278   3.149   9.266  0.7309 -0.4284 -0.3683
  174SOPE  H11R19762   4.301   3.247   9.218 -0.3608  0.0800  0.1041
  174SOPE  H11S19763   4.251   3.176   9.370 -1.5165  0.0768 -1.0172
  174SOPE  C21219764   4.144   3.098   9.196 -0.3910 -0.4872 -0.6803
  174SOPE  H12R19765   4.057   3.159   9.227  0.2789  0.0303  0.2206
  174SOPE  H12S19766   4.115   2.997   9.231 -3.8135  0.3036 -0.8906
  174SOPE  C21319767   4.151   3.095   9.041  0.1966  0.2786 -1.1659
  174SOPE  H13R19768   4.237   3.030   9.014 -0.1902 -1.4522  1.3865
  174SOPE  H13S19769   4.169   3.193   8.992 -1.3875  0.6059 -1.1386
  174SOPE  C21419770   4.017   3.053   8.977  0.0449  0.3126 -0.0122
  174SOPE  H14R19771   3.937   3.117   9.020 -1.7576 -1.9612  0.1671
  174SOPE  H14S19772   3.986   2.949   9.001 -0.2259 -0.3458 -2.9129
  174SOPE  C21519773   4.003   3.061   8.826 -0.1487  1.0632  0.5261
  174SOPE  H15R19774   3.915   3.002   8.794  0.9923 -0.8418  0.7977
  174SOPE  H15S19775   4.097   3.018   8.785 -0.3104  0.6748  0.5598
  174SOPE  C21619776   3.992   3.208   8.779 -0.4115 -0.0042  0.2331
  174SOPE  H16R19777   4.086   3.266   8.792 -1.6735  1.9637  1.0737
  174SOPE  H16S19778   3.916   3.267   8.835  0.8319  0.7257  1.1968
  174SOPE  C21719779   3.942   3.212   8.628 -0.1093 -0.5037 -0.3846
  174SOPE  H17R19780   3.831   3.209   8.633 -0.1746  0.5674 -0.9476
  174SOPE  H17S19781   3.968   3.118   8.576 -2.0819 -2.7410  2.3674
  174SOPE  C21819782   3.993   3.343   8.562 -0.1412 -1.0073 -0.3652
  174SOPE  H18R19783   4.102   3.335   8.545  0.0735 -0.8742  0.8486
  174SOPE  H18S19784   3.982   3.426   8.636  2.1774 -2.3902  1.6845
  174SOPE  H18T19785   3.944   3.360   8.464 -1.3384 -0.3026  0.3275
  174SOPE   C3319786   4.941   3.632  10.140 -0.0224  0.3284 -0.1507
  174SOPE   H3X19787   4.999   3.657  10.232  2.3473 -2.6989 -0.6751
  174SOPE   H3Y19788   4.862   3.710  10.131  0.6542  1.0184 -0.1732
  174SOPE   C3419789   5.030   3.637  10.012  0.7707  0.3650  0.1169
  174SOPE   H4X19790   5.085   3.541  10.002 -1.0761 -0.4600 -3.5809
  174SOPE   H4Y19791   5.104   3.720  10.010  0.8176  0.3113 -0.6621
  174SOPE   C3519792   4.944   3.665   9.888  0.3793  0.6870 -0.1443
  174SOPE   H5X19793   4.883   3.754   9.914  2.1136  1.4189  1.7096
  174SOPE   H5Y19794   4.884   3.571   9.888  0.7919  0.4193 -0.3682
  174SOPE   C3619795   5.009   3.687   9.762  0.3691  0.0429  0.4869
  174SOPE   H6X19796   5.055   3.589   9.739 -0.3211 -1.2039  3.8024
  174SOPE   H6Y19797   5.088   3.765   9.774  1.2159 -0.4439 -1.5281
  174SOPE   C3719798   4.914   3.734   9.650 -0.4340  0.6251  0.1287
  174SOPE   H7X19799   4.874   3.835   9.674 -0.7841  0.3057  0.9276
  174SOPE   H7Y19800   4.829   3.663   9.643 -0.6132  0.8663 -0.2248
  174SOPE   C3819801   4.975   3.741   9.500  0.5354 -0.2355 -0.2790
  174SOPE   H8X19802   5.015   3.642   9.469 -0.2234  0.3034 -3.2753
  174SOPE   H8Y19803   5.068   3.801   9.513  0.8797 -0.7688 -0.2430
  174SOPE   C3919804   4.875   3.793   9.401  0.7141 -0.1221  0.3289
  174SOPE   H9X19805   4.844   3.897   9.425  0.4098  0.1518 -1.1289
  174SOPE   H9Y19806   4.777   3.741   9.392 -0.2587  1.9177 -2.1284
  174SOPE  C31019807   4.938   3.803   9.260 -0.2969  0.1418  0.0036
  174SOPE  H10X19808   4.950   3.700   9.222  1.2424 -0.3847  1.7426
  174SOPE  H10Y19809   5.041   3.842   9.276  0.0787 -1.6104  2.3109
  174SOPE  C31119810   4.874   3.897   9.158  0.3821 -1.1115  0.6167
  174SOPE  H11X19811   4.946   3.920   9.076 -1.0447 -0.4048 -0.4704
  174SOPE  H11Y19812   4.854   3.997   9.202 -0.6998 -0.9322 -0.2747
  174SOPE  C31219813   4.730   3.866   9.097 -0.6484 -0.0549 -0.4814
  174SOPE  H12X19814   4.705   3.941   9.018 -0.7054  1.2487  0.7390
  174SOPE  H12Y19815   4.656   3.877   9.179 -0.3177 -0.0818 -0.1810
  174SOPE  C31319816   4.719   3.727   9.041  0.1760 -0.0009 -0.2677
  174SOPE  H13X19817   4.719   3.652   9.123 -1.8960  0.9495  0.6831
  174SOPE  H13Y19818   4.809   3.691   8.987  2.0980 -0.3472  2.8858
  174SOPE  C31419819   4.587   3.707   8.961  0.0734  0.1536  0.2670
  174SOPE  H14X19820   4.597   3.626   8.885  0.8585  1.2848 -0.8809
  174SOPE  H14Y19821   4.571   3.802   8.905 -0.7680 -0.0705  0.1165
  174SOPE  C31519822   4.459   3.692   9.055  0.0282  0.4123  0.3456
  174SOPE  H15X19823   4.439   3.792   9.100 -1.6050  0.3778 -0.2302
  174SOPE  H15Y19824   4.476   3.614   9.131 -4.2661 -0.2763  0.8153
  174SOPE  C31619825   4.334   3.645   8.975  0.2500 -0.2979 -0.2264
  174SOPE  H16X19826   4.342   3.538   8.949  1.5243 -1.5688  4.4402
  174SOPE  H16Y19827   4.312   3.715   8.892 -3.1146 -1.4909 -0.4731
  174SOPE  C31719828   4.208   3.651   9.065  0.1732 -0.5088  0.3612
  174SOPE  H17X19829   4.199   3.758   9.095  0.3751  0.0441 -1.4523
  174SOPE  H17Y19830   4.218   3.577   9.148 -0.8964 -1.2477 -0.1386
  174SOPE  C31819831   4.085   3.610   8.993  0.6528 -0.1460  0.6034
  174SOPE  H18X19832   4.088   3.510   8.944  0.6124  0.2382 -0.1985
  174SOPE  H18Y19833   4.063   3.683   8.912 -1.0456 -0.3702  0.8314
  174SOPE  H18Z19834   3.999   3.607   9.063  0.3448 -0.6764  0.2123
  175SOPE     N19835   5.425   0.464  10.887  0.1626  0.1186 -0.3868
  175SOPE   HN119836   5.425   0.391  10.813  1.0859  0.7824 -1.0612
  175SOPE   HN219837   5.447   0.422  10.979  0.8833  2.6872  0.7012
  175SOPE   HN319838   5.328   0.501  10.888 -0.3236 -0.9858 -1.9055
  175SOPE   C1219839   5.524   0.577  10.844  0.3640 -0.0241 -0.1000
  175SOPE  H12A19840   5.524   0.650  10.928 -2.5482 -0.0936  0.0702
  175SOPE  H12B19841   5.477   0.632  10.759  0.1028 -2.5257 -1.6466
  175SOPE   C1119842   5.662   0.518  10.805 -0.0502  0.1962  0.0229
  175SOPE  H11A19843   5.722   0.505  10.898 -0.5360  1.0124  0.4612
  175SOPE  H11B19844   5.718   0.598  10.752 -0.1269 -1.1173 -2.1928
  175SOPE     P19845   5.773   0.308  10.709 -0.3144  0.0565  0.0685
  175SOPE   O1319846   5.778   0.218  10.831 -0.2952  0.1670 -0.1642
  175SOPE   O1419847   5.882   0.402  10.682 -0.4482 -0.5959  0.2380
  175SOPE   O1219848   5.644   0.396  10.722 -0.5694  0.3345  0.3099
  175SOPE   O1119849   5.755   0.212  10.577 -0.3132  0.0450 -0.0801
  175SOPE    C119850   5.711   0.275  10.451  0.1371  0.3673 -0.3517
  175SOPE    HA19851   5.802   0.277  10.386  0.1298 -1.4652 -0.4824
  175SOPE    HB19852   5.669   0.376  10.469 -0.4062 -0.0440  0.7268
  175SOPE    C219853   5.588   0.193  10.388 -0.2486 -0.0537 -0.1222
  175SOPE    HS19854   5.499   0.225  10.447  0.5021  0.4377  0.7900
  175SOPE   O2119855   5.618   0.050  10.398 -0.1484 -0.0267  0.1391
  175SOPE   C2119856   5.512  -0.021  10.387  0.4973 -0.7689 -0.2901
  175SOPE   O2219857   5.399   0.026  10.377  0.4718  0.2896  0.1507
  175SOPE   C2219858   5.553  -0.158  10.380 -0.0445 -0.1826 -0.5985
  175SOPE   H2R19859   5.468  -0.229  10.391 -0.0813  0.1486  1.5288
  175SOPE   H2S19860   5.615  -0.179  10.469 -0.7724  1.4184  0.3196
  175SOPE    C319861   5.578   0.241  10.239 -0.7690  0.0962  0.3010
  175SOPE    HX19862   5.572   0.351  10.229  1.0531  0.1230 -0.9181
  175SOPE    HY19863   5.489   0.199  10.186 -0.8957 -0.6035  1.0508
  175SOPE   O3119864   5.696   0.196  10.168  0.3285 -0.2342 -0.1960
  175SOPE   C3119865   5.688   0.110  10.067  0.1262  0.0422  0.0150
  175SOPE   O3219866   5.582   0.078  10.014  0.6435  0.4884  0.0951
  175SOPE   C3219867   5.830   0.071  10.015  0.1479 -0.0405 -0.1388
  175SOPE   H2X19868   5.873   0.013  10.099 -1.8443  1.0948  1.7743
  175SOPE   H2Y19869   5.879   0.170  10.005  2.2790 -0.9694  0.6297
  175SOPE   C2319870   5.632  -0.204  10.257  0.5569  0.1222  0.0370
  175SOPE   H3R19871   5.736  -0.171  10.274  1.0997 -0.5311 -1.8126
  175SOPE   H3S19872   5.586  -0.150  10.172  1.1191 -0.1337 -0.4292
  175SOPE   C2419873   5.628  -0.352  10.244 -0.1968  0.3892  0.3888
  175SOPE   H4R19874   5.678  -0.388  10.337 -3.0347 -0.8149  1.5421
  175SOPE   H4S19875   5.529  -0.402  10.246  0.0118 -0.0284  0.4983
  175SOPE   C2519876   5.709  -0.398  10.113 -0.2290  0.3691  0.3373
  175SOPE   H5R19877   5.729  -0.507  10.105 -1.9516  0.0008  0.5302
  175SOPE   H5S19878   5.644  -0.377  10.025  1.0427 -1.8612 -1.2203
  175SOPE   C2619879   5.846  -0.336  10.097  0.5666 -0.5179 -0.6567
  175SOPE   H6R19880   5.833  -0.230  10.065 -0.5326 -0.2881  0.4499
  175SOPE   H6S19881   5.890  -0.346  10.199 -2.0308 -0.7320  0.5382
  175SOPE   C2719882   5.950  -0.401   9.997  0.0255 -0.2735 -0.1933
  175SOPE   H7R19883   6.033  -0.330   9.977  0.3145 -1.2807 -3.0499
  175SOPE   H7S19884   5.992  -0.499  10.029  0.1888 -0.1405  0.0018
  175SOPE   C2819885   5.884  -0.423   9.859  0.0822 -1.5429  0.3225
  175SOPE   H8R19886   5.803  -0.499   9.869 -0.0578 -1.4269  0.0889
  175SOPE   H8S19887   5.830  -0.330   9.828 -0.1647 -1.5711  0.6667
  175SOPE   C2919888   5.971  -0.465   9.746  0.5862 -0.4299  0.8255
  175SOPE   H9119889   6.059  -0.402   9.728 -0.5136  0.4585 -2.0635
  175SOPE  C21019890   5.947  -0.560   9.653  0.1893 -1.0256  0.5031
  175SOPE  H10119891   6.019  -0.574   9.571 -0.6232 -1.1218 -0.1997
  175SOPE  C21119892   5.821  -0.641   9.632 -0.3927 -0.3915 -0.0260
  175SOPE  H11R19893   5.732  -0.586   9.669 -1.8711 -4.2629  2.9776
  175SOPE  H11S19894   5.830  -0.728   9.701 -0.6067  0.9944  1.8238
  175SOPE  C21219895   5.803  -0.671   9.482 -0.1936 -0.5759  0.3562
  175SOPE  H12R19896   5.885  -0.740   9.453  1.4575  1.4815 -0.0853
  175SOPE  H12S19897   5.809  -0.577   9.424  1.2658 -0.8543  0.0152
  175SOPE  C21319898   5.664  -0.731   9.441 -0.0694 -0.7247  0.2820
  175SOPE  H13R19899   5.579  -0.660   9.452 -1.4341 -1.7678 -2.5507
  175SOPE  H13S19900   5.658  -0.825   9.499 -1.8003 -1.5720 -1.1748
  175SOPE  C21419901   5.675  -0.773   9.292  0.1744  0.2493  0.2444
  175SOPE  H14R19902   5.767  -0.834   9.286  0.6771  1.1344 -2.2210
  175SOPE  H14S19903   5.679  -0.681   9.229 -1.4700  1.8196  2.2615
  175SOPE  C21519904   5.552  -0.854   9.236  0.1979  0.1747 -0.0957
  175SOPE  H15R19905   5.482  -0.768   9.227  1.6304  1.5307  1.1947
  175SOPE  H15S19906   5.518  -0.927   9.312  1.1419 -0.6354 -0.4178
  175SOPE  C21619907   5.577  -0.919   9.099 -0.6329  0.3373  0.8850
  175SOPE  H16R19908   5.656  -0.997   9.106  0.7266  1.4450 -1.1520
  175SOPE  H16S19909   5.639  -0.852   9.036  1.0714 -2.1534 -0.2369
  175SOPE  C21719910   5.454  -0.969   9.023 -0.6197  0.0491  0.0415
  175SOPE  H17R19911   5.488  -0.993   8.920 -0.5281  0.8130 -0.1087
  175SOPE  H17S19912   5.384  -0.882   9.029  0.6073  0.9547  2.1586
  175SOPE  C21819913   5.398  -1.094   9.078 -0.6505  0.1607  0.3820
  175SOPE  H18R19914   5.321  -1.134   9.009  0.3496  1.2373 -1.4263
  175SOPE  H18S19915   5.349  -1.068   9.174  0.2482  2.5027  0.2623
  175SOPE  H18T19916   5.480  -1.167   9.099  0.3040  1.3890  1.0733
  175SOPE   C3319917   5.829   0.009   9.876  0.6693  0.0341  0.1360
  175SOPE   H3X19918   5.736   0.023   9.817 -0.9892 -0.3459  2.5085
  175SOPE   H3Y19919   5.849  -0.100   9.885  0.1839 -0.2038 -1.3838
  175SOPE   C3419920   5.948   0.074   9.795 -0.0877  0.1908  0.4791
  175SOPE   H4X19921   6.035   0.096   9.860 -0.1634  3.0480 -0.2677
  175SOPE   H4Y19922   5.919   0.171   9.749  1.1458  0.5262  0.3834
  175SOPE   C3519923   6.003  -0.012   9.676 -0.1894  0.8317 -0.4623
  175SOPE   H5X19924   6.087  -0.076   9.712  0.6074  0.2974 -3.0879
  175SOPE   H5Y19925   6.053   0.057   9.605  1.0988  0.1949 -0.2158
  175SOPE   C3619926   5.895  -0.093   9.598  0.1818  0.6730 -0.9042
  175SOPE   H6X19927   5.823  -0.023   9.552  0.7039  1.6415 -0.2973
  175SOPE   H6Y19928   5.832  -0.159   9.661  0.3810  0.7170 -0.6537
  175SOPE   C3719929   5.960  -0.181   9.497  0.5132  0.7731  1.1950
  175SOPE   H7X19930   6.010  -0.260   9.556 -0.5559 -1.7713 -1.1038
  175SOPE   H7Y19931   6.033  -0.114   9.446  0.8853 -1.4018 -1.3435
  175SOPE   C3819932   5.858  -0.248   9.398  0.1638 -0.5177  0.2210
  175SOPE   H8X19933   5.783  -0.170   9.375  1.3448  1.1012  1.6597
  175SOPE   H8Y19934   5.813  -0.334   9.453 -1.8245  0.2146 -0.1704
  175SOPE   C3919935   5.914  -0.299   9.266 -0.1923 -0.3841  0.3567
  175SOPE   H9X19936   5.966  -0.397   9.269  0.6929 -0.0585 -1.8389
  175SOPE   H9Y19937   5.976  -0.223   9.215  1.2780 -0.9130  1.2970
  175SOPE  C31019938   5.800  -0.324   9.166  0.2691 -0.2097  0.3320
  175SOPE  H10X19939   5.738  -0.234   9.146 -1.6605 -0.7904  3.1344
  175SOPE  H10Y19940   5.718  -0.381   9.214 -1.0785  0.1688 -1.4108
  175SOPE  C31119941   5.839  -0.398   9.034  0.0586 -0.0903 -0.6974
  175SOPE  H11X19942   5.904  -0.481   9.070  0.2266  0.2527 -0.1877
  175SOPE  H11Y19943   5.903  -0.333   8.971 -1.4240 -0.0733 -2.2477
  175SOPE  C31219944   5.721  -0.437   8.952 -0.0430  0.3627 -0.1701
  175SOPE  H12X19945   5.657  -0.346   8.945 -0.1330  0.3558  0.4821
  175SOPE  H12Y19946   5.654  -0.506   9.008  1.5109  0.4059  1.8779
  175SOPE  C31319947   5.747  -0.480   8.807 -0.2340 -0.0526  0.3333
  175SOPE  H13X19948   5.806  -0.574   8.813  2.0733  1.2461 -0.5691
  175SOPE  H13Y19949   5.815  -0.407   8.757 -0.7018  0.8188  0.9316
  175SOPE  C31419950   5.627  -0.500   8.719  0.5163 -0.5792  0.4568
  175SOPE  H14X19951   5.677  -0.522   8.623 -1.7893  1.5410 -1.3793
  175SOPE  H14Y19952   5.574  -0.402   8.710 -0.0452 -0.8853  0.4005
  175SOPE  C31519953   5.532  -0.614   8.760  0.2877  0.5797 -0.2584
  175SOPE  H15X19954   5.466  -0.577   8.842 -0.5377 -0.4276 -0.4442
  175SOPE  H15Y19955   5.595  -0.688   8.813 -0.5738 -0.7410 -1.0422
  175SOPE  C31619956   5.451  -0.668   8.644 -0.5547 -0.0409 -0.1680
  175SOPE  H16X19957   5.514  -0.732   8.579  0.7885 -0.4394  1.4452
  175SOPE  H16Y19958   5.405  -0.588   8.582  0.6910  1.6112  0.9714
  175SOPE  C31719959   5.330  -0.759   8.690  0.6571  0.3224  0.4393
  175SOPE  H17X19960   5.266  -0.696   8.755  1.5960  0.7351  0.9812
  175SOPE  H17Y19961   5.357  -0.845   8.755 -0.9818 -1.2985 -0.9223
  175SOPE  C31819962   5.256  -0.814   8.571 -0.5929  0.2482 -0.0828
  175SOPE  H18X19963   5.175  -0.883   8.602 -0.1577 -0.6593 -0.9173
  175SOPE  H18Y19964   5.327  -0.854   8.496 -0.3628  1.6386 -0.6435
  175SOPE  H18Z19965   5.196  -0.740   8.514  0.3841 -0.0079 -1.5081
  176SOPE     N19966   5.882   5.931  11.143 -1.2653  0.0727  0.5170
  176SOPE   HN119967   5.968   5.873  11.153 -1.1378  0.0763 -0.5171
  176SOPE   HN219968   5.930   6.023  11.150  0.3437 -0.7358  0.6895
  176SOPE   HN319969   5.822   5.912  11.226  1.6283 -0.7935  2.5946
  176SOPE   C1219970   5.829   5.918  11.004 -0.4637  0.2703  0.4915
  176SOPE  H12A19971   5.753   5.999  11.002  0.8555  1.5930  1.0868
  176SOPE  H12B19972   5.787   5.816  11.000 -0.6233  0.3343  0.5368
  176SOPE   C1119973   5.933   5.931  10.898 -1.0723 -0.4830  0.4447
  176SOPE  H11A19974   5.871   5.933  10.806  0.0484 -1.3017 -0.3567
  176SOPE  H11B19975   5.994   5.839  10.904  1.0945  0.6251 -2.4348
  176SOPE     P19976   6.138   6.091  10.829 -0.5311  0.5078  0.3531
  176SOPE   O1319977   6.212   5.976  10.775  0.0846  0.3379 -0.3875
  176SOPE   O1419978   6.213   6.179  10.916 -0.3243  0.4868  0.1085
  176SOPE   O1219979   6.013   6.051  10.910 -0.3109  0.2318  0.2999
  176SOPE   O1119980   6.082   6.174  10.712  0.2676  0.4556 -0.5799
  176SOPE    C119981   6.002   6.128  10.604 -0.3349 -0.0471 -0.2583
  176SOPE    HA19982   5.930   6.213  10.595 -3.1945 -2.1143  1.4005
  176SOPE    HB19983   5.938   6.039  10.625 -2.9190  1.6831 -0.3037
  176SOPE    C219984   6.082   6.108  10.468  0.2290 -0.6984 -0.2654
  176SOPE    HS19985   6.133   6.010  10.479  0.9573 -0.5759 -2.0904
  176SOPE   O2119986   6.188   6.214  10.452  0.8336  0.2289 -1.0041
  176SOPE   C2119987   6.285   6.171  10.378 -0.4612 -0.3939 -0.6573
  176SOPE   O2219988   6.297   6.059  10.334 -0.5306  0.0452  0.4656
  176SOPE   C2219989   6.372   6.284  10.341 -0.8296 -0.5726  0.2775
  176SOPE   H2R19990   6.377   6.356  10.426 -0.3930  0.5716 -0.6978
  176SOPE   H2S19991   6.336   6.346  10.257  1.4506  1.5945  0.7650
  176SOPE    C319992   5.988   6.105  10.346  0.1474 -0.3070 -0.4413
  176SOPE    HX19993   5.929   6.198  10.355 -0.0918 -0.5453  0.4948
  176SOPE    HY19994   5.916   6.024  10.369 -0.0464 -0.1682 -0.5569
  176SOPE   O3119995   6.046   6.092  10.217  0.1545 -0.1593 -0.2273
  176SOPE   C3119996   6.069   5.967  10.177 -0.0476  0.3573  0.3708
  176SOPE   O3219997   6.024   5.867  10.229  0.1075  0.0337  0.1419
  176SOPE   C3219998   6.162   5.966  10.056  0.0516  0.5467  0.1150
  176SOPE   H2X19999   6.249   5.898  10.071 -0.8226 -0.4664  0.6892
  176SOPE   H2Y20000   6.215   6.063  10.042  3.5210 -1.3653 -1.4438
  176SOPE   C2320001   6.518   6.228  10.316 -0.0293 -0.1255 -0.4026
  176SOPE   H3R20002   6.501   6.122  10.288 -1.5985 -0.3712  1.2937
  176SOPE   H3S20003   6.582   6.233  10.407 -0.5171  1.4970 -0.1156
  176SOPE   C2420004   6.593   6.312  10.212  0.0647 -0.1797  0.2555
  176SOPE   H4R20005   6.542   6.311  10.114  0.8408  1.6441 -0.1967
  176SOPE   H4S20006   6.600   6.416  10.250 -0.4877 -0.0000 -0.1130
  176SOPE   C2520007   6.740   6.255  10.199  0.1400 -0.1592  0.1106
  176SOPE   H5R20008   6.804   6.300  10.278 -0.5677  0.9854  0.0403
  176SOPE   H5S20009   6.729   6.144  10.201 -3.8411  0.1056  0.6654
  176SOPE   C2620010   6.816   6.289  10.068 -0.1363  0.7603  0.2238
  176SOPE   H6R20011   6.763   6.240   9.984  0.1271 -1.3461  1.2162
  176SOPE   H6S20012   6.808   6.396  10.038  2.6894  0.7765 -0.7181
  176SOPE   C2720013   6.957   6.249  10.076 -0.1906  0.2259 -0.4709
  176SOPE   H7R20014   7.026   6.324  10.121  1.3701 -2.2566  1.5912
  176SOPE   H7S20015   6.978   6.157  10.136 -1.2977 -0.0106 -0.4205
  176SOPE   C2820016   7.018   6.243   9.934  0.4813  0.8795  0.3138
  176SOPE   H8R20017   7.015   6.341   9.882  1.3454 -0.0234 -1.5380
  176SOPE   H8S20018   7.126   6.233   9.957  0.1914 -0.2145  1.2425
  176SOPE   C2920019   6.972   6.121   9.849  0.5067 -0.6483 -0.6234
  176SOPE   H9120020   6.946   6.031   9.907 -1.5843  1.5513  2.1517
  176SOPE  C21020021   6.969   6.116   9.715 -0.5392  0.2793  0.7053
  176SOPE  H10120022   6.921   6.033   9.662  1.3468  0.3565 -1.2531
  176SOPE  C21120023   7.012   6.229   9.623  0.0218  0.0809  0.5432
  176SOPE  H11R20024   7.120   6.251   9.634  0.2590 -1.3509  1.3011
  176SOPE  H11S20025   6.963   6.321   9.662 -1.5681 -1.2016  1.7402
  176SOPE  C21220026   6.987   6.216   9.468 -0.2194 -0.1422 -0.0041
  176SOPE  H12R20027   7.018   6.113   9.440  1.9300  0.5935 -0.5229
  176SOPE  H12S20028   7.038   6.300   9.418 -2.3008  1.1065 -0.1282
  176SOPE  C21320029   6.839   6.234   9.423  0.4330  0.1648  0.0565
  176SOPE  H13R20030   6.796   6.330   9.458 -0.5884  0.2865 -1.4309
  176SOPE  H13S20031   6.780   6.153   9.471  0.5221  1.7087  3.0004
  176SOPE  C21420032   6.820   6.233   9.271 -0.2520  0.2187  0.3448
  176SOPE  H14R20033   6.712   6.235   9.246 -0.4796 -0.2104  1.2827
  176SOPE  H14S20034   6.860   6.135   9.237 -0.1993 -0.3633  2.0237
  176SOPE  C21520035   6.890   6.357   9.203  0.5832  0.2617  0.4492
  176SOPE  H15R20036   6.956   6.324   9.119  1.8969  0.5460  1.3296
  176SOPE  H15S20037   6.959   6.413   9.269  0.8142 -1.1857  1.4900
  176SOPE  C21620038   6.787   6.467   9.166  0.1087 -0.4580 -0.2892
  176SOPE  H16R20039   6.738   6.495   9.262  3.0018  0.6893  0.9440
  176SOPE  H16S20040   6.718   6.412   9.098 -1.3173 -1.1745  1.6432
  176SOPE  C21720041   6.852   6.586   9.089 -0.2535  0.4167  0.3656
  176SOPE  H17R20042   6.766   6.641   9.044  0.3217  0.8115 -0.2623
  176SOPE  H17S20043   6.933   6.552   9.021  0.6097  0.0640  1.5457
  176SOPE  C21820044   6.923   6.683   9.189  0.4655  0.1200 -0.0153
  176SOPE  H18R20045   7.014   6.643   9.238  1.0253 -1.1472 -1.9933
  176SOPE  H18S20046   6.855   6.694   9.276  0.4297  0.4980 -0.0911
  176SOPE  H18T20047   6.940   6.780   9.138 -2.8686  0.9055  0.1264
  176SOPE   C3320048   6.076   5.905   9.934 -0.6558 -0.4643 -0.8294
  176SOPE   H3X20049   5.992   5.978   9.925 -0.4121 -0.0966 -0.1776
  176SOPE   H3Y20050   6.052   5.802   9.969  2.2443  0.0099  3.3877
  176SOPE   C3420051   6.146   5.920   9.799 -0.6335  0.6999 -0.2441
  176SOPE   H4X20052   6.255   5.900   9.806 -0.8387  0.0006  1.2484
  176SOPE   H4Y20053   6.153   6.029   9.781 -1.6099  0.7137 -0.6043
  176SOPE   C3520054   6.082   5.830   9.683 -0.2911 -0.1349 -0.4160
  176SOPE   H5X20055   5.977   5.856   9.660 -0.4786  0.2324  0.8137
  176SOPE   H5Y20056   6.086   5.724   9.715  3.1397 -0.1809 -0.5541
  176SOPE   C3620057   6.161   5.844   9.550 -0.1085  0.4150 -1.0726
  176SOPE   H6X20058   6.258   5.792   9.564 -1.2238 -1.1561  1.6788
  176SOPE   H6Y20059   6.182   5.953   9.551  1.1271  0.3864  3.8855
  176SOPE   C3720060   6.073   5.807   9.429  0.2291 -1.0695  0.0548
  176SOPE   H7X20061   5.967   5.832   9.448  0.7187  0.9454  0.2883
  176SOPE   H7Y20062   6.078   5.696   9.425 -0.8227 -1.3213  2.9912
  176SOPE   C3820063   6.120   5.860   9.292  0.7339 -0.0708 -0.1991
  176SOPE   H8X20064   6.231   5.852   9.297  0.9170  1.9834 -0.1752
  176SOPE   H8Y20065   6.103   5.969   9.277 -2.6516 -0.3575  0.7533
  176SOPE   C3920066   6.063   5.777   9.176  0.3831  0.6467 -0.0652
  176SOPE   H9X20067   5.952   5.784   9.172  0.2419 -1.3610 -0.6945
  176SOPE   H9Y20068   6.086   5.669   9.179 -0.2111  0.5390  1.2704
  176SOPE  C31020069   6.126   5.824   9.043  0.3525  0.2021  0.3647
  176SOPE  H10X20070   6.236   5.811   9.039  0.3408  0.0518  0.5607
  176SOPE  H10Y20071   6.101   5.933   9.044 -0.8595 -0.0715  0.4983
  176SOPE  C31120072   6.072   5.749   8.925  0.0079 -0.8999  0.0813
  176SOPE  H11X20073   5.963   5.742   8.945  0.2123 -3.2604  0.6431
  176SOPE  H11Y20074   6.102   5.643   8.936 -0.1548 -0.7191  3.3300
  176SOPE  C31220075   6.109   5.809   8.792 -0.5447 -0.1959 -0.7100
  176SOPE  H12X20076   6.214   5.789   8.762 -1.0243 -2.0399 -1.3408
  176SOPE  H12Y20077   6.080   5.916   8.789  1.1267  0.3010 -0.0726
  176SOPE  C31320078   6.009   5.734   8.694  0.3083 -0.5063 -0.1938
  176SOPE  H13X20079   5.903   5.761   8.714  0.8524  1.1031  0.6643
  176SOPE  H13Y20080   6.010   5.623   8.697 -2.6137 -0.6184  2.0197
  176SOPE  C31420081   6.035   5.770   8.550  0.3504 -0.2495  0.4874
  176SOPE  H14X20082   6.141   5.748   8.523  0.8089 -1.5657  3.0984
  176SOPE  H14Y20083   6.008   5.876   8.529  0.8797 -0.3532 -0.8247
  176SOPE  C31520084   5.950   5.686   8.445 -0.3223 -0.6828 -0.0239
  176SOPE  H15X20085   5.845   5.712   8.471  0.1917  1.3062  0.2671
  176SOPE  H15Y20086   5.963   5.577   8.462 -1.2512 -0.5318  1.9444
  176SOPE  C31620087   6.007   5.720   8.307  0.2052 -0.4372 -0.2778
  176SOPE  H16X20088   6.041   5.826   8.314 -0.8474 -0.1504  0.9076
  176SOPE  H16Y20089   5.924   5.704   8.236 -1.9275  2.5598  1.3078
  176SOPE  C31720090   6.124   5.634   8.266  0.0761 -0.0258  0.1287
  176SOPE  H17X20091   6.098   5.526   8.265 -0.4310  0.0887 -1.2793
  176SOPE  H17Y20092   6.209   5.651   8.335 -0.4047 -1.4584  1.1221
  176SOPE  C31820093   6.167   5.652   8.113  0.6040 -0.0995  1.4614
  176SOPE  H18X20094   6.086   5.614   8.048  0.4633 -0.0595  1.6126
  176SOPE  H18Y20095   6.256   5.588   8.094  1.3979  1.0701  1.1201
  176SOPE  H18Z20096   6.192   5.755   8.079  1.1160 -1.0463 -1.2917
  177SOPE     N20097   4.109   2.589  11.443  0.0835 -0.2715 -0.1797
  177SOPE   HN120098   4.011   2.624  11.431  0.1209 -0.3945 -0.8922
  177SOPE   HN220099   4.098   2.490  11.471 -0.6028  0.3803  2.1320
  177SOPE   HN320100   4.142   2.651  11.520 -0.5651 -0.0745 -0.0541
  177SOPE   C1220101   4.179   2.621  11.313  0.1280  0.1961 -0.1771
  177SOPE  H12A20102   4.200   2.527  11.259  0.5587  0.8790 -1.2239
  177SOPE  H12B20103   4.280   2.658  11.343  0.0687  0.2528 -0.0453
  177SOPE   C1120104   4.111   2.724  11.224  0.2846 -0.2799 -0.2885
  177SOPE  H11A20105   4.178   2.727  11.135  1.0255  0.7062  0.2727
  177SOPE  H11B20106   4.103   2.820  11.280 -0.7173  0.1219 -1.0883
  177SOPE     P20107   3.900   2.786  11.105 -0.2485  0.5162 -0.2137
  177SOPE   O1320108   3.899   2.915  11.178  0.3000  0.0565 -0.3786
  177SOPE   O1420109   3.769   2.726  11.073  0.5298  0.0977 -0.3337
  177SOPE   O1220110   3.989   2.684  11.182 -0.6406  0.5234  0.4493
  177SOPE   O1120111   3.984   2.796  10.969  0.3060 -0.1725  0.4494
  177SOPE    C120112   4.059   2.703  10.891 -0.0823  0.5817  0.3906
  177SOPE    HA20113   4.061   2.603  10.939 -0.9709 -0.3981 -1.5066
  177SOPE    HB20114   4.164   2.739  10.888 -0.2072  0.9854  0.7898
  177SOPE    C220115   4.006   2.680  10.742  0.4634 -0.3469 -0.7271
  177SOPE    HS20116   4.068   2.597  10.701  1.4138  0.5475 -1.1577
  177SOPE   O2120117   4.031   2.796  10.668  0.2557  0.0174  0.0188
  177SOPE   C2120118   4.155   2.801  10.621  0.4006 -0.4922 -0.5344
  177SOPE   O2220119   4.247   2.728  10.649  0.2712  0.1561 -0.0691
  177SOPE   C2220120   4.168   2.941  10.550 -0.3737  0.0788 -0.7646
  177SOPE   H2R20121   4.250   2.999  10.597 -0.2468 -1.9040  1.7022
  177SOPE   H2S20122   4.070   2.993  10.557 -0.6801 -0.5931  0.3402
  177SOPE    C320123   3.849   2.659  10.737  0.0625  0.3007  0.2044
  177SOPE    HX20124   3.792   2.731  10.799 -1.1838  0.6836 -1.3160
  177SOPE    HY20125   3.834   2.560  10.784  1.9940  0.1782  0.6328
  177SOPE   O3120126   3.796   2.654  10.603  0.7217  0.5947 -0.5443
  177SOPE   C3120127   3.737   2.769  10.568  0.4778 -0.2311 -0.0123
  177SOPE   O3220128   3.736   2.871  10.633 -0.4617 -0.1516 -1.0369
  177SOPE   C3220129   3.667   2.741  10.437  0.5265 -1.1156 -0.3998
  177SOPE   H2X20130   3.609   2.832  10.410  0.4377 -0.9332  0.3723
  177SOPE   H2Y20131   3.586   2.666  10.449 -0.9532  0.6431  1.3417
  177SOPE   C2320132   4.201   2.944  10.399  0.3311 -0.6227  0.0803
  177SOPE   H3R20133   4.304   2.903  10.387  1.0046  1.5101 -2.2743
  177SOPE   H3S20134   4.204   3.054  10.382  0.4026 -0.5489  0.5618
  177SOPE   C2420135   4.096   2.885  10.316  0.0796 -0.0312  0.0473
  177SOPE   H4R20136   4.072   2.785  10.359  2.1204 -0.6193 -0.0909
  177SOPE   H4S20137   4.006   2.951  10.318  0.8329  1.0001  1.0193
  177SOPE   C2520138   4.140   2.873  10.170  1.4633 -0.5254  0.2737
  177SOPE   H5R20139   4.174   2.972  10.133 -0.1737  0.6193  1.7069
  177SOPE   H5S20140   4.224   2.801  10.158  1.8885  0.2055 -1.4353
  177SOPE   C2620141   4.020   2.816  10.084 -0.0900  0.2503 -0.1598
  177SOPE   H6R20142   3.977   2.722  10.124  0.3589 -0.4009 -1.1823
  177SOPE   H6S20143   3.940   2.893  10.082 -0.3470 -0.0219 -0.4395
  177SOPE   C2720144   4.059   2.796   9.938  0.3283 -0.0370 -0.8890
  177SOPE   H7R20145   4.101   2.891   9.898  0.1162 -0.7274 -2.8914
  177SOPE   H7S20146   4.145   2.726   9.930  0.7761  0.2405  1.1043
  177SOPE   C2820147   3.927   2.752   9.852  0.4543  0.3289  0.8728
  177SOPE   H8R20148   3.842   2.758   9.923 -1.0358 -1.9784 -0.5619
  177SOPE   H8S20149   3.912   2.827   9.772 -1.2885  1.6496  2.3709
  177SOPE   C2920150   3.942   2.609   9.797 -0.3076 -0.7121 -0.4992
  177SOPE   H9120151   3.949   2.522   9.864 -0.4387  1.3995  2.4272
  177SOPE  C21020152   3.955   2.579   9.665  0.1105  0.6293 -0.1870
  177SOPE  H10120153   3.990   2.478   9.639  2.2049  1.2743 -0.0668
  177SOPE  C21120154   3.954   2.664   9.542 -0.0008 -0.7991 -0.2063
  177SOPE  H11R20155   4.061   2.675   9.516  0.0256  2.0866  0.7255
  177SOPE  H11S20156   3.916   2.764   9.572  1.6087 -0.4899  0.9301
  177SOPE  C21220157   3.871   2.607   9.426 -0.5227  0.1299 -0.6007
  177SOPE  H12R20158   3.765   2.583   9.452 -0.0743 -1.0009  0.2794
  177SOPE  H12S20159   3.914   2.506   9.407 -0.4621 -0.1506  0.8902
  177SOPE  C21320160   3.879   2.690   9.303 -0.5169  1.2667  0.7516
  177SOPE  H13R20161   3.973   2.749   9.300  0.1382  0.2230 -0.3741
  177SOPE  H13S20162   3.801   2.769   9.293 -0.9742  0.7385 -0.0141
  177SOPE  C21420163   3.863   2.602   9.177 -0.2673 -0.2813  0.2415
  177SOPE  H14R20164   3.776   2.538   9.202 -0.8678  0.3020 -0.2969
  177SOPE  H14S20165   3.945   2.529   9.156  0.6921  0.5019  1.1571
  177SOPE  C21520166   3.852   2.685   9.050 -0.9948  0.7400  0.6480
  177SOPE  H15R20167   3.951   2.735   9.051  0.1259 -1.3148 -0.2742
  177SOPE  H15S20168   3.776   2.764   9.072 -2.9818 -0.8079 -0.2947
  177SOPE  C21620169   3.838   2.606   8.922 -0.2553 -0.0148 -0.2249
  177SOPE  H16R20170   3.746   2.544   8.931  0.0557 -0.3832  0.4595
  177SOPE  H16S20171   3.924   2.535   8.928  2.0801  2.6222 -0.2474
  177SOPE  C21720172   3.831   2.695   8.799 -0.4240 -0.3529  0.5118
  177SOPE  H17R20173   3.927   2.749   8.784  0.0022 -0.3344  2.9049
  177SOPE  H17S20174   3.757   2.777   8.813  1.3340  1.1520  1.4789
  177SOPE  C21820175   3.787   2.612   8.675  0.1775 -1.3854 -0.2368
  177SOPE  H18R20176   3.788   2.673   8.582  2.6140 -0.6629  0.1860
  177SOPE  H18S20177   3.679   2.590   8.691 -0.4010 -0.2966 -2.2902
  177SOPE  H18T20178   3.851   2.526   8.646 -0.2948 -1.0833 -2.3146
  177SOPE   C3320179   3.763   2.702  10.327  0.6601 -0.8767 -0.2723
  177SOPE   H3X20180   3.823   2.612  10.352 -0.0595 -1.7352 -1.4945
  177SOPE   H3Y20181   3.835   2.782  10.299  1.7827 -1.8083 -0.1041
  177SOPE   C3420182   3.696   2.667  10.191 -0.1879  0.3511 -0.8018
  177SOPE   H4X20183   3.618   2.590  10.206 -1.6829  1.9464 -0.0110
  177SOPE   H4Y20184   3.768   2.621  10.120  0.7178  1.1703 -0.4429
  177SOPE   C3520185   3.614   2.783  10.138 -0.0392 -0.0418  0.0916
  177SOPE   H5X20186   3.677   2.872  10.114  0.0870  0.1104  0.9408
  177SOPE   H5Y20187   3.533   2.802  10.211 -0.4059 -0.4713 -0.2006
  177SOPE   C3620188   3.529   2.733  10.015 -0.0199 -0.2739  0.2179
  177SOPE   H6X20189   3.465   2.651  10.054  2.1724 -2.2759 -0.1650
  177SOPE   H6Y20190   3.603   2.688   9.946 -0.4575 -0.2950 -0.2389
  177SOPE   C3720191   3.453   2.845   9.945  0.1965  0.0318 -0.7841
  177SOPE   H7X20192   3.525   2.929   9.930 -0.5471  1.0062  0.8327
  177SOPE   H7Y20193   3.369   2.882  10.007  0.8538 -1.4114  1.0917
  177SOPE   C3820194   3.384   2.805   9.814  0.3348 -0.3893  0.0895
  177SOPE   H8X20195   3.326   2.891   9.776  0.6117 -0.8687 -1.4668
  177SOPE   H8Y20196   3.306   2.728   9.831  0.6190 -0.9655 -1.1616
  177SOPE   C3920197   3.476   2.756   9.703 -0.1339 -1.1675  0.1077
  177SOPE   H9X20198   3.516   2.656   9.728 -1.8106 -1.7972  0.3754
  177SOPE   H9Y20199   3.561   2.828   9.696  0.4826 -1.6781  1.8994
  177SOPE  C31020200   3.405   2.752   9.566  0.4379 -0.1306 -0.5484
  177SOPE  H10X20201   3.334   2.835   9.547  2.9636  1.5928 -3.2148
  177SOPE  H10Y20202   3.343   2.662   9.546 -1.3322  0.4799  1.7047
  177SOPE  C31120203   3.504   2.763   9.455  0.1505  0.2475 -0.1733
  177SOPE  H11X20204   3.545   2.663   9.429  1.5618  1.5371 -3.3559
  177SOPE  H11Y20205   3.584   2.835   9.484 -1.5589  1.3834  2.0561
  177SOPE  C31220206   3.422   2.815   9.334 -0.2541 -0.5094 -0.3699
  177SOPE  H12X20207   3.370   2.911   9.356 -0.0410 -0.8681  1.9103
  177SOPE  H12Y20208   3.341   2.739   9.343 -2.1017  1.5726  2.1112
  177SOPE  C31320209   3.494   2.817   9.197 -0.5061 -0.1870  0.0832
  177SOPE  H13X20210   3.530   2.715   9.173 -0.8090 -0.4900  0.8645
  177SOPE  H13Y20211   3.585   2.881   9.194 -2.2024  2.4213  0.0753
  177SOPE  C31420212   3.398   2.850   9.083  0.4794  0.3030 -0.0334
  177SOPE  H14X20213   3.345   2.946   9.104 -0.9933 -0.4495 -0.1332
  177SOPE  H14Y20214   3.316   2.774   9.084  1.3126 -0.6124  1.3771
  177SOPE  C31520215   3.472   2.848   8.957 -0.2928  0.2405  0.2687
  177SOPE  H15X20216   3.514   2.748   8.931 -1.7847 -0.5441  0.8133
  177SOPE  H15Y20217   3.564   2.910   8.963  0.6097 -0.5221 -3.2572
  177SOPE  C31620218   3.387   2.894   8.836 -0.6788 -0.5160 -0.1051
  177SOPE  H16X20219   3.358   3.001   8.842 -0.4584 -0.4120 -0.7728
  177SOPE  H16Y20220   3.301   2.823   8.842 -1.1443  0.0108 -0.4567
  177SOPE  C31720221   3.453   2.876   8.694  1.0871  0.0218 -1.4294
  177SOPE  H17X20222   3.383   2.895   8.609  0.8240 -0.8880 -1.4212
  177SOPE  H17Y20223   3.485   2.770   8.695  0.5484 -0.1656  0.6074
  177SOPE  C31820224   3.574   2.972   8.675 -0.5323 -0.0589  0.3527
  177SOPE  H18X20225   3.534   3.074   8.656  2.5282  1.8178  2.9772
  177SOPE  H18Y20226   3.636   2.938   8.590  3.2402  2.9988  1.5583
  177SOPE  H18Z20227   3.638   2.960   8.765 -0.1799 -4.3873 -0.2574
  178SOPE     N20228   1.921   1.909  10.818  0.0114 -0.0552 -0.0260
  178SOPE   HN120229   1.852   1.848  10.868 -1.1632  1.6192  0.4878
  178SOPE   HN220230   1.875   1.947  10.733 -0.5047  0.2552  0.3884
  178SOPE   HN320231   1.998   1.848  10.784  0.4380 -0.4735  1.5766
  178SOPE   C1220232   1.980   2.023  10.895  0.2941 -0.0137 -0.0412
  178SOPE  H12A20233   2.038   2.087  10.825  2.1073  0.3425  1.6817
  178SOPE  H12B20234   2.054   1.968  10.958 -2.0107 -1.3844  1.6314
  178SOPE   C1120235   1.876   2.084  10.993  0.4840 -0.6854 -0.2859
  178SOPE  H11A20236   1.797   2.139  10.937  0.7856  0.2408  0.1859
  178SOPE  H11B20237   1.936   2.156  11.051 -0.2052  0.4524 -0.9434
  178SOPE     P20238   1.670   1.941  11.070 -0.0508  0.1182  0.5097
  178SOPE   O1320239   1.571   2.045  11.103  0.5196  0.0363 -0.5609
  178SOPE   O1420240   1.661   1.819  11.152 -0.6750  0.2342 -0.4280
  178SOPE   O1220241   1.816   1.992  11.088  0.0513 -0.1745  0.3632
  178SOPE   O1120242   1.658   1.906  10.916 -0.2970  0.2244 -0.1235
  178SOPE    C120243   1.554   1.820  10.861  0.7395  0.5153  0.3000
  178SOPE    HA20244   1.534   1.856  10.758 -0.8463  1.0336  0.7623
  178SOPE    HB20245   1.460   1.833  10.918  0.3284 -1.3981  0.1491
  178SOPE    C220246   1.594   1.669  10.855 -0.1986 -0.1244  0.8157
  178SOPE    HS20247   1.604   1.634  10.960  0.4890 -1.0336  0.4669
  178SOPE   O2120248   1.721   1.656  10.777 -0.1295 -0.3204  0.3963
  178SOPE   C2120249   1.769   1.530  10.800  0.3896 -0.7696 -0.3417
  178SOPE   O2220250   1.728   1.457  10.886  0.1313 -0.1804 -0.0502
  178SOPE   C2220251   1.906   1.525  10.736  0.5027  0.7039 -0.2877
  178SOPE   H2R20252   1.975   1.581  10.803  0.5996 -0.7732  0.8840
  178SOPE   H2S20253   1.907   1.588  10.644 -0.4256 -1.2326 -1.6928
  178SOPE    C320254   1.477   1.590  10.783  1.1828  0.1066 -0.2236
  178SOPE    HX20255   1.377   1.627  10.814  0.4353 -0.7837 -1.5020
  178SOPE    HY20256   1.484   1.480  10.793 -0.7623 -0.0049  0.3596
  178SOPE   O3120257   1.469   1.629  10.647 -0.5172 -1.4485  0.0842
  178SOPE   C3120258   1.528   1.557  10.552  0.6139 -0.4851 -0.3976
  178SOPE   O3220259   1.561   1.444  10.569 -0.9608  0.1849  0.1730
  178SOPE   C3220260   1.537   1.640  10.424  0.6407 -0.1399 -0.2277
  178SOPE   H2X20261   1.494   1.741  10.444 -0.1687 -0.3709 -0.7442
  178SOPE   H2Y20262   1.468   1.601  10.346  1.8006  0.5980 -1.6744
  178SOPE   C2320263   1.952   1.382  10.716  0.1491 -0.3710 -0.2699
  178SOPE   H3R20264   1.897   1.312  10.783 -0.0571 -0.1772 -0.2363
  178SOPE   H3S20265   2.062   1.373  10.730  0.3464 -0.8999 -1.9298
  178SOPE   C2420266   1.927   1.326  10.577 -0.4809  0.2311 -0.0731
  178SOPE   H4R20267   1.923   1.215  10.574  0.4110  0.1612  0.7995
  178SOPE   H4S20268   1.833   1.372  10.539 -0.0778  0.9172 -0.2638
  178SOPE   C2520269   2.043   1.364  10.483  0.6488 -0.0813 -0.1955
  178SOPE   H5R20270   2.045   1.475  10.486 -0.3181  0.1403 -3.6638
  178SOPE   H5S20271   2.138   1.328  10.526  0.9492  0.6504 -0.2274
  178SOPE   C2620272   2.020   1.321  10.336 -0.4079  0.6820  0.5508
  178SOPE   H6R20273   2.034   1.211  10.336  1.4106  0.8092 -2.3485
  178SOPE   H6S20274   1.916   1.341  10.302 -0.5470  0.9346  1.1124
  178SOPE   C2720275   2.105   1.372  10.217  0.0838  0.1487  0.1156
  178SOPE   H7R20276   2.107   1.483  10.230 -1.3555  0.1698  0.2223
  178SOPE   H7S20277   2.213   1.343  10.220 -0.2286 -1.1055 -0.1802
  178SOPE   C2820278   2.062   1.335  10.071 -0.3465 -0.1556 -0.6783
  178SOPE   H8R20279   2.158   1.329  10.016  0.1231 -1.7520  0.2685
  178SOPE   H8S20280   2.022   1.231  10.067 -0.9726 -0.0604  1.5142
  178SOPE   C2920281   1.962   1.428  10.004  0.6784  0.0274 -0.2726
  178SOPE   H9120282   1.902   1.489  10.073  3.2727  1.5899  0.7380
  178SOPE  C21020283   1.942   1.449   9.872  0.0285 -0.7463 -0.7245
  178SOPE  H10120284   1.863   1.520   9.846  1.4180  1.5537  0.9566
  178SOPE  C21120285   2.001   1.388   9.753 -0.1497  1.3328 -0.1352
  178SOPE  H11R20286   1.950   1.292   9.733 -2.1100  2.6076 -1.7045
  178SOPE  H11S20287   2.109   1.376   9.776 -0.4237 -0.9561  0.1064
  178SOPE  C21220288   1.988   1.470   9.624 -0.5246 -0.0865  0.3599
  178SOPE  H12R20289   2.001   1.577   9.650  1.4077 -0.2364  0.1583
  178SOPE  H12S20290   1.881   1.465   9.596 -1.5379 -0.4377  3.8328
  178SOPE  C21320291   2.088   1.431   9.514  0.5387 -0.2727  0.0971
  178SOPE  H13R20292   2.063   1.327   9.484  0.2822 -0.2178  0.1234
  178SOPE  H13S20293   2.190   1.433   9.558  0.1664  0.3389  0.9440
  178SOPE  C21420294   2.097   1.524   9.389 -0.0887  0.1352 -0.0854
  178SOPE  H14R20295   2.148   1.621   9.407 -1.8811  0.6762  2.7515
  178SOPE  H14S20296   1.992   1.557   9.371 -0.2389  0.3998  1.1722
  178SOPE  C21520297   2.141   1.440   9.268 -0.3088  0.3075 -0.0329
  178SOPE  H15R20298   2.074   1.355   9.243 -1.2507  1.0798 -0.1991
  178SOPE  H15S20299   2.241   1.399   9.292 -0.4281 -0.1209 -0.2676
  178SOPE  C21620300   2.174   1.526   9.139 -0.1430  0.3781 -1.1419
  178SOPE  H16R20301   2.254   1.599   9.166 -0.0227  0.1099 -0.7665
  178SOPE  H16S20302   2.086   1.581   9.099  0.0691  0.6544 -1.2404
  178SOPE  C21720303   2.230   1.434   9.030 -0.6910 -0.4820 -0.7439
  178SOPE  H17R20304   2.155   1.373   8.976  1.1250 -2.7054 -0.8809
  178SOPE  H17S20305   2.291   1.352   9.074  0.1283  0.0762 -0.8217
  178SOPE  C21820306   2.316   1.509   8.932 -0.4074 -0.5495  0.2842
  178SOPE  H18R20307   2.400   1.546   8.994 -1.6699  1.6443  0.8239
  178SOPE  H18S20308   2.269   1.603   8.895  4.4589  1.8484 -0.5216
  178SOPE  H18T20309   2.350   1.443   8.850  0.2622  0.7025 -0.4701
  178SOPE   C3320310   1.678   1.645  10.364  0.0795 -0.1505 -0.5878
  178SOPE   H3X20311   1.733   1.549  10.374  0.0733 -0.2228 -1.1673
  178SOPE   H3Y20312   1.743   1.719  10.415  1.3328 -1.9017  0.4678
  178SOPE   C3420313   1.674   1.688  10.221 -0.2886 -0.0142 -0.1514
  178SOPE   H4X20314   1.610   1.618  10.164 -0.7771  1.5810 -1.6447
  178SOPE   H4Y20315   1.774   1.674  10.174 -0.9101  2.9242 -2.7347
  178SOPE   C3520316   1.617   1.834  10.197  0.2156 -0.3597 -0.2932
  178SOPE   H5X20317   1.705   1.898  10.222  0.5287 -1.2759  1.0460
  178SOPE   H5Y20318   1.533   1.852  10.267  0.9842  3.7931 -0.1818
  178SOPE   C3620319   1.556   1.842  10.055  0.6672  0.0736  0.1487
  178SOPE   H6X20320   1.514   1.942  10.031  0.8836 -0.1097 -1.0286
  178SOPE   H6Y20321   1.478   1.765  10.041  1.6132 -1.1170  1.1723
  178SOPE   C3720322   1.661   1.826   9.939  0.3234  0.2894  0.2297
  178SOPE   H7X20323   1.698   1.722   9.933  3.3363  1.0366  2.8501
  178SOPE   H7Y20324   1.748   1.885   9.976  1.0807 -0.9424  0.4570
  178SOPE   C3820325   1.601   1.879   9.804 -0.1925 -0.8053  0.3925
  178SOPE   H8X20326   1.592   1.989   9.812  1.6079 -0.4457 -1.5790
  178SOPE   H8Y20327   1.502   1.832   9.783 -1.1068  0.2098  2.1877
  178SOPE   C3920328   1.689   1.855   9.681 -0.2718 -0.0217  0.2541
  178SOPE   H9X20329   1.707   1.747   9.664  1.7453  0.1788  0.8893
  178SOPE   H9Y20330   1.788   1.905   9.692  0.2054 -1.0310  0.6744
  178SOPE  C31020331   1.623   1.905   9.550  0.3536  0.8347 -0.7121
  178SOPE  H10X20332   1.609   2.016   9.544  1.4595  1.0524  0.2963
  178SOPE  H10Y20333   1.519   1.869   9.538  0.5569  0.4007 -1.1550
  178SOPE  C31120334   1.705   1.857   9.419  0.6809 -0.5208 -1.3895
  178SOPE  H11X20335   1.730   1.750   9.435  0.2848 -0.4970 -0.5536
  178SOPE  H11Y20336   1.797   1.920   9.422 -0.2170  0.8169  1.0714
  178SOPE  C31220337   1.630   1.871   9.290  0.7280  0.3438 -0.1027
  178SOPE  H12X20338   1.597   1.977   9.289 -0.1445  0.1832  2.5605
  178SOPE  H12Y20339   1.539   1.807   9.290  1.7296 -1.1949 -2.1588
  178SOPE  C31320340   1.730   1.841   9.183  0.1932  0.9464  0.6005
  178SOPE  H13X20341   1.776   1.740   9.181 -1.5497  0.1194  0.6861
  178SOPE  H13Y20342   1.820   1.903   9.205 -0.2276  1.8403 -0.1092
  178SOPE  C31420343   1.665   1.863   9.048 -0.9245  0.1263  0.4981
  178SOPE  H14X20344   1.584   1.788   9.049 -1.1049  0.3204  0.6859
  178SOPE  H14Y20345   1.737   1.843   8.966  1.3770 -0.4460  2.5164
  178SOPE  C31520346   1.610   2.000   9.029 -0.5228  0.6396  0.7920
  178SOPE  H15X20347   1.652   2.067   9.107  0.9701  0.2667  0.3392
  178SOPE  H15Y20348   1.506   1.985   9.066  0.0182 -1.3025  1.6847
  178SOPE  C31620349   1.617   2.052   8.884 -0.4292 -0.3844  0.0112
  178SOPE  H16X20350   1.550   1.990   8.821 -0.3808  0.8980 -1.3566
  178SOPE  H16Y20351   1.718   2.051   8.838 -0.5175 -0.0061 -0.1954
  178SOPE  C31720352   1.571   2.198   8.866  0.7716 -0.8944 -0.2500
  178SOPE  H17X20353   1.596   2.249   8.962 -1.8097  2.1900 -1.0583
  178SOPE  H17Y20354   1.461   2.192   8.853  0.5522  0.5740  0.6634
  178SOPE  C31820355   1.629   2.275   8.745  0.0424 -0.8475 -0.7061
  178SOPE  H18X20356   1.716   2.334   8.781 -0.9852 -0.1284  0.6662
  178SOPE  H18Y20357   1.549   2.342   8.708  0.6257 -0.3500 -1.0941
  178SOPE  H18Z20358   1.656   2.204   8.664  3.1370 -0.2204 -0.3454
  179SOPE     N20359   0.127   4.131   6.377 -0.1016  0.0528 -0.0087
  179SOPE   HN120360   0.035   4.173   6.353 -1.2123 -2.1768  0.0963
  179SOPE   HN220361   0.147   4.155   6.476  1.6612 -1.5053  0.0596
  179SOPE   HN320362   0.199   4.181   6.321  0.9904 -1.5452 -0.1026
  179SOPE   C1220363   0.139   3.978   6.367  0.4460 -0.0853 -0.4827
  179SOPE  H12A20364   0.140   3.938   6.264  2.9822 -5.6697  1.3181
  179SOPE  H12B20365   0.056   3.941   6.431  2.0272 -0.8427  1.2175
  179SOPE   C1120366   0.269   3.943   6.434  0.7065  0.0313  0.0926
  179SOPE  H11A20367   0.362   3.975   6.382  0.8048 -0.0385  0.2227
  179SOPE  H11B20368   0.285   3.834   6.447  1.9035  0.3358  1.5482
  179SOPE     P20369   0.238   3.911   6.691 -0.0743 -0.0452 -0.2966
  179SOPE   O1320370   0.129   3.821   6.667  0.0848  0.0727 -0.3819
  179SOPE   O1420371   0.223   3.998   6.809 -0.1324 -0.2690  0.3150
  179SOPE   O1220372   0.271   3.996   6.566  0.2243 -0.1131 -0.7024
  179SOPE   O1120373   0.363   3.815   6.717 -0.3650 -0.1297 -1.1371
  179SOPE    C120374   0.357   3.670   6.722 -0.1627 -0.1383 -0.5595
  179SOPE    HA20375   0.453   3.619   6.698  0.4975 -0.2733  2.0465
  179SOPE    HB20376   0.295   3.642   6.635  1.3345 -2.7415 -0.8795
  179SOPE    C220377   0.301   3.610   6.853  0.8130 -0.1267 -0.2865
  179SOPE    HS20378   0.202   3.658   6.869  0.3931 -0.7027 -1.0807
  179SOPE   O2120379   0.393   3.635   6.961  0.2688 -0.1897 -0.4039
  179SOPE   C2120380   0.337   3.718   7.051 -0.3107 -0.1365  0.1559
  179SOPE   O2220381   0.229   3.768   7.049  0.1239 -0.4522  0.8120
  179SOPE   C2220382   0.456   3.736   7.150  0.1651 -0.3061  0.0704
  179SOPE   H2R20383   0.430   3.820   7.220 -1.5619  0.5895 -1.5482
  179SOPE   H2S20384   0.548   3.743   7.089  0.9066 -1.7248  0.9805
  179SOPE    C320385   0.265   3.454   6.841 -0.7174  0.1175 -0.7748
  179SOPE    HX20386   0.346   3.398   6.788 -1.1092 -2.0746  0.8251
  179SOPE    HY20387   0.179   3.438   6.773 -1.2081 -1.9007  0.2382
  179SOPE   O3120388   0.220   3.404   6.968  0.4265  0.3564  0.3328
  179SOPE   C3120389   0.255   3.277   6.995 -0.4537  0.1634  0.4183
  179SOPE   O3220390   0.316   3.198   6.925  0.3842 -0.7356  0.1332
  179SOPE   C3220391   0.222   3.243   7.145  0.1035  0.0530 -0.0634
  179SOPE   H2X20392   0.129   3.297   7.173  0.2870 -0.3609  1.4301
  179SOPE   H2Y20393   0.299   3.296   7.206 -0.5505  0.1196  0.7182
  179SOPE   C2320394   0.498   3.603   7.227  0.6278 -0.1292 -0.5706
  179SOPE   H3R20395   0.607   3.620   7.246  0.3812  0.2702  0.5578
  179SOPE   H3S20396   0.486   3.515   7.160  0.3745  0.6822 -1.6072
  179SOPE   C2420397   0.416   3.600   7.361 -0.6033 -0.2731 -0.2110
  179SOPE   H4R20398   0.442   3.680   7.433  1.1339 -1.4620  0.5572
  179SOPE   H4S20399   0.307   3.608   7.339 -0.5025 -1.1190 -1.0989
  179SOPE   C2520400   0.427   3.462   7.431 -0.2226 -0.3097 -0.1757
  179SOPE   H5R20401   0.412   3.379   7.359  1.5999 -0.4433 -0.4352
  179SOPE   H5S20402   0.532   3.450   7.464 -1.1877 -0.5988  3.1819
  179SOPE   C2620403   0.336   3.445   7.560  0.1131  0.1311  0.1902
  179SOPE   H6R20404   0.347   3.533   7.627 -2.1351  0.9280 -0.4141
  179SOPE   H6S20405   0.233   3.422   7.524 -0.3276  0.3057  1.3097
  179SOPE   C2720406   0.360   3.312   7.637 -1.1406  0.1289 -0.1239
  179SOPE   H7R20407   0.324   3.218   7.590 -0.1491 -0.2872 -0.0852
  179SOPE   H7S20408   0.469   3.311   7.658 -1.4689  0.6510  1.8279
  179SOPE   C2820409   0.305   3.313   7.784  0.5303 -0.4013 -0.6144
  179SOPE   H8R20410   0.368   3.397   7.822  2.5354 -3.0431  2.4918
  179SOPE   H8S20411   0.198   3.343   7.775  1.2257  2.3638 -0.5617
  179SOPE   C2920412   0.315   3.187   7.868 -0.2739  0.2371  0.2763
  179SOPE   H9120413   0.226   3.124   7.852 -0.5915  0.5780  0.6888
  179SOPE  C21020414   0.409   3.155   7.958 -0.7755  0.5798 -0.1297
  179SOPE  H10120415   0.387   3.073   8.028  1.0862  0.2971  0.1804
  179SOPE  C21120416   0.532   3.239   7.988  0.4397  0.1872 -0.3346
  179SOPE  H11R20417   0.517   3.349   7.988  1.7262  0.4036  1.7274
  179SOPE  H11S20418   0.602   3.212   7.906  0.9069  1.6865 -0.4702
  179SOPE  C21220419   0.590   3.193   8.121 -0.4665 -0.5997  0.0998
  179SOPE  H12R20420   0.683   3.250   8.141 -2.0083  2.2905 -0.2990
  179SOPE  H12S20421   0.611   3.084   8.117  1.0038 -0.3096 -0.4737
  179SOPE  C21320422   0.499   3.235   8.240  0.3045 -0.0633  0.0050
  179SOPE  H13R20423   0.423   3.155   8.254  0.1281  0.3810  1.7831
  179SOPE  H13S20424   0.438   3.326   8.218  1.5107  0.8524  0.3516
  179SOPE  C21420425   0.561   3.237   8.380  0.0596 -0.8374 -0.3016
  179SOPE  H14R20426   0.644   3.308   8.397  0.2932 -1.1918  0.0846
  179SOPE  H14S20427   0.606   3.135   8.389  1.7459 -0.1378 -0.5634
  179SOPE  C21520428   0.468   3.256   8.498  0.0378 -0.0944  0.1802
  179SOPE  H15R20429   0.518   3.207   8.584  2.5790  0.1676 -1.0407
  179SOPE  H15S20430   0.378   3.201   8.465 -0.3878  1.3663 -1.2356
  179SOPE  C21620431   0.422   3.394   8.526 -0.0787 -0.4025  0.5485
  179SOPE  H16R20432   0.353   3.431   8.447 -0.7298 -1.9390  0.3753
  179SOPE  H16S20433   0.503   3.470   8.530 -0.7806  0.3821  0.3365
  179SOPE  C21720434   0.343   3.408   8.654 -0.0814 -0.1847  0.3950
  179SOPE  H17R20435   0.307   3.513   8.650  1.7017  0.5290  1.8164
  179SOPE  H17S20436   0.417   3.413   8.736  1.7686 -1.7471 -1.0718
  179SOPE  C21820437   0.246   3.290   8.682 -0.3390  0.1451  0.1324
  179SOPE  H18R20438   0.304   3.198   8.705  0.7968  0.7546 -0.2267
  179SOPE  H18S20439   0.181   3.274   8.594 -0.8736  1.4656  0.2755
  179SOPE  H18T20440   0.192   3.304   8.778  0.9843  1.4011  0.7335
  179SOPE   C3320441   0.208   3.089   7.185  0.3113  0.4719 -0.9395
  179SOPE   H3X20442   0.305   3.035   7.179  0.7637  0.9739  1.0684
  179SOPE   H3Y20443   0.137   3.035   7.119 -0.2022  1.0760 -0.8894
  179SOPE   C3420444   0.146   3.077   7.329 -0.2924 -0.3637 -0.2177
  179SOPE   H4X20445   0.043   3.117   7.333  0.5008  1.9016 -0.9539
  179SOPE   H4Y20446   0.211   3.142   7.392  0.2707 -0.7920 -0.3526
  179SOPE   C3520447   0.153   2.927   7.380  0.3127 -0.6380  1.0302
  179SOPE   H5X20448   0.250   2.896   7.335 -0.4031  0.0844 -1.1431
  179SOPE   H5Y20449   0.070   2.866   7.340 -0.3314  2.1009 -2.2397
  179SOPE   C3620450   0.163   2.915   7.532  0.2629 -1.1370 -0.0241
  179SOPE   H6X20451   0.098   2.997   7.570  1.2151  0.0010 -0.7669
  179SOPE   H6Y20452   0.262   2.951   7.566  0.1794  0.6355 -1.4958
  179SOPE   C3720453   0.139   2.772   7.580  0.4022  0.6535 -0.5040
  179SOPE   H7X20454   0.221   2.704   7.549  1.6266  2.2604 -0.9190
  179SOPE   H7Y20455   0.045   2.737   7.532  1.3335 -0.2253 -1.7396
  179SOPE   C3820456   0.113   2.772   7.730 -1.0573 -0.2406 -0.3171
  179SOPE   H8X20457   0.020   2.826   7.755 -0.8331  0.3069 -0.6367
  179SOPE   H8Y20458   0.198   2.824   7.780 -0.8026 -2.1278  1.3796
  179SOPE   C3920459   0.110   2.634   7.794 -0.7929  0.0330 -0.0741
  179SOPE   H9X20460   0.207   2.586   7.770 -0.8534 -0.5104  0.6989
  179SOPE   H9Y20461   0.031   2.567   7.754 -0.5313  0.6372 -1.6813
  179SOPE  C31020462   0.091   2.651   7.939 -0.1702  0.0453 -0.6546
  179SOPE  H10X20463  -0.012   2.690   7.954 -0.2956 -1.0046  1.6088
  179SOPE  H10Y20464   0.161   2.729   7.974  0.0377 -0.4607  0.1001
  179SOPE  C31120465   0.107   2.517   8.019  0.2020 -0.5042  0.9995
  179SOPE  H11X20466   0.212   2.487   7.998 -0.1153  0.3915 -2.4009
  179SOPE  H11Y20467   0.048   2.437   7.970  0.6369  0.3250 -0.9966
  179SOPE  C31220468   0.091   2.517   8.167 -0.4728 -0.4646 -0.6715
  179SOPE  H12X20469  -0.011   2.548   8.198 -1.1182 -1.1965 -1.9880
  179SOPE  H12Y20470   0.173   2.578   8.211  0.0321 -0.0695 -2.1209
  179SOPE  C31320471   0.118   2.372   8.222  0.0646 -0.0270 -0.3151
  179SOPE  H13X20472   0.182   2.310   8.154 -1.6090 -2.0400 -0.1709
  179SOPE  H13Y20473   0.019   2.321   8.217 -0.0997  0.3099 -0.5107
  179SOPE  C31420474   0.170   2.377   8.365  0.2167  0.6105 -0.9128
  179SOPE  H14X20475   0.091   2.427   8.426  1.0274  1.1159 -0.2668
  179SOPE  H14Y20476   0.260   2.440   8.380  0.1406  0.0620  2.6340
  179SOPE  C31520477   0.187   2.233   8.412 -0.0028 -0.0685 -0.4707
  179SOPE  H15X20478   0.259   2.232   8.497  0.1578  0.8782 -0.5868
  179SOPE  H15Y20479   0.238   2.179   8.330  2.7411  1.7324 -0.0816
  179SOPE  C31620480   0.060   2.163   8.455  0.3509 -0.2500  0.5198
  179SOPE  H16X20481  -0.014   2.134   8.378  0.9336  1.3482 -0.7031
  179SOPE  H16Y20482  -0.001   2.223   8.526  0.6495 -0.3777  0.8853
  179SOPE  C31720483   0.090   2.041   8.543 -0.2997 -0.2528  0.5221
  179SOPE  H17X20484  -0.002   1.993   8.583 -0.2659  1.9738  3.5773
  179SOPE  H17Y20485   0.150   2.060   8.634  0.8614 -0.8994 -0.0800
  179SOPE  C31820486   0.170   1.935   8.463 -0.0992  0.1708  0.2753
  179SOPE  H18X20487   0.166   1.846   8.529  2.9752 -0.8249 -0.7030
  179SOPE  H18Y20488   0.272   1.978   8.456  0.8631 -1.6349  2.1687
  179SOPE  H18Z20489   0.125   1.927   8.361 -0.9950  4.1074  0.2115
  180SOPE     N20490   6.452   2.946   6.207 -0.5957  0.1257  0.0078
  180SOPE   HN120491   6.544   2.898   6.202 -0.5757  0.1209  0.4179
  180SOPE   HN220492   6.384   2.883   6.255  0.2876 -0.4416  0.5383
  180SOPE   HN320493   6.410   2.952   6.112 -3.4141 -0.1950  1.1368
  180SOPE   C1220494   6.472   3.075   6.284  0.0453 -1.1918 -0.7583
  180SOPE  H12A20495   6.480   3.052   6.392  1.5711 -2.2094 -1.0488
  180SOPE  H12B20496   6.379   3.134   6.272  2.0977  2.2977 -0.6331
  180SOPE   C1120497   6.593   3.156   6.236 -0.3230 -0.4451  0.5267
  180SOPE  H11A20498   6.581   3.251   6.292 -0.5889  0.5312 -1.1435
  180SOPE  H11B20499   6.593   3.194   6.132 -1.8968  0.8481  0.9676
  180SOPE     P20500   6.811   3.107   6.373  0.5584  0.3188 -0.6966
  180SOPE   O1320501   6.876   3.238   6.357 -0.4427 -0.0987 -0.1557
  180SOPE   O1420502   6.896   2.985   6.388 -0.0169  0.2066  0.6815
  180SOPE   O1220503   6.712   3.080   6.253  0.6662 -0.2074 -0.1275
  180SOPE   O1120504   6.716   3.116   6.499  0.2652 -0.3017  0.2438
  180SOPE    C120505   6.774   3.186   6.612  0.9133  0.0078 -0.4927
  180SOPE    HA20506   6.794   3.293   6.587 -0.2635  0.0137 -1.4823
  180SOPE    HB20507   6.871   3.142   6.642  0.2624 -1.0541  0.1045
  180SOPE    C220508   6.674   3.192   6.737  0.3610  0.6369  0.5656
  180SOPE    HS20509   6.709   3.270   6.807 -0.7987  1.9146 -0.2249
  180SOPE   O2120510   6.666   3.058   6.795  0.0438  0.0758 -0.0557
  180SOPE   C2120511   6.668   3.054   6.931  0.6060 -0.1781  0.4418
  180SOPE   O2220512   6.684   3.152   7.005  0.0177  0.1377  0.1639
  180SOPE   C2220513   6.625   2.915   6.976  0.0854  0.4264  0.2638
  180SOPE   H2R20514   6.695   2.834   6.947 -0.1372 -0.7479  2.7918
  180SOPE   H2S20515   6.541   2.885   6.909 -0.5441  2.6686 -0.0376
  180SOPE    C320516   6.544   3.239   6.683  0.7860  0.3995  0.2442
  180SOPE    HX20517   6.500   3.154   6.626 -1.2468  2.4253 -1.4311
  180SOPE    HY20518   6.555   3.316   6.605 -0.9488 -2.1931 -2.8047
  180SOPE   O3120519   6.456   3.272   6.795 -0.1249  0.2050 -0.0614
  180SOPE   C3120520   6.425   3.398   6.809 -0.3987 -0.0132 -0.3110
  180SOPE   O3220521   6.460   3.486   6.733 -0.3203  0.3172  0.1539
  180SOPE   C3220522   6.323   3.423   6.917  0.2190 -0.8334 -0.5947
  180SOPE   H2X20523   6.228   3.398   6.866 -0.3324  0.7095 -0.4000
  180SOPE   H2Y20524   6.333   3.532   6.940 -0.8540 -1.2812  2.4622
  180SOPE   C2320525   6.599   2.896   7.130  0.1076 -0.4605 -0.0758
  180SOPE   H3R20526   6.680   2.955   7.179 -1.1255  1.1514  0.0825
  180SOPE   H3S20527   6.607   2.789   7.161  0.1914 -0.2139  0.8017
  180SOPE   C2420528   6.467   2.949   7.174 -0.2958 -0.5353  0.8369
  180SOPE   H4R20529   6.480   3.060   7.169  0.0297 -0.5393  1.4814
  180SOPE   H4S20530   6.386   2.924   7.103 -1.0192  2.2528  0.5349
  180SOPE   C2520531   6.414   2.904   7.316 -0.2788 -0.2429 -0.2431
  180SOPE   H5R20532   6.312   2.948   7.326 -1.0867 -2.1016  0.0619
  180SOPE   H5S20533   6.404   2.794   7.320  1.1987 -0.3673  0.6401
  180SOPE   C2620534   6.519   2.948   7.424 -0.1616 -0.3592 -0.5181
  180SOPE   H6R20535   6.609   2.882   7.428  0.0575  0.0017  1.4728
  180SOPE   H6S20536   6.548   3.054   7.406  0.9833 -0.6923 -0.7650
  180SOPE   C2720537   6.467   2.933   7.566 -0.2832  0.8357  0.5262
  180SOPE   H7R20538   6.359   2.959   7.566 -0.4077  0.5241 -1.5144
  180SOPE   H7S20539   6.473   2.824   7.588  0.6828  0.5855 -0.8353
  180SOPE   C2820540   6.547   2.995   7.677 -0.6985 -0.0756 -0.2413
  180SOPE   H8R20541   6.652   2.971   7.651 -0.3208  0.9326  0.3093
  180SOPE   H8S20542   6.526   3.104   7.668 -4.5090 -0.4915  1.4676
  180SOPE   C2920543   6.506   2.945   7.810  0.0755  0.1238  0.8241
  180SOPE   H9120544   6.421   2.876   7.798 -0.2835  0.8219 -1.0079
  180SOPE  C21020545   6.562   2.986   7.931  0.9394 -0.1390  0.6928
  180SOPE  H10120546   6.523   2.938   8.022  0.1669 -1.7659 -0.4485
  180SOPE  C21120547   6.673   3.092   7.945 -0.7398  0.1008  0.0401
  180SOPE  H11R20548   6.645   3.177   8.012 -1.4559 -0.8126  0.9341
  180SOPE  H11S20549   6.714   3.132   7.850  2.5595  0.8603  1.6407
  180SOPE  C21220550   6.800   3.024   8.005  0.2916  0.1141  0.3434
  180SOPE  H12R20551   6.877   3.102   8.023  1.0313 -0.9659  2.0885
  180SOPE  H12S20552   6.842   2.947   7.936  2.4305  0.4159  1.2358
  180SOPE  C21320553   6.788   2.968   8.148 -0.4317 -0.6513  1.1010
  180SOPE  H13R20554   6.748   2.865   8.154  0.7508 -1.0669  2.3417
  180SOPE  H13S20555   6.725   3.036   8.210  1.7277  2.0181  0.5805
  180SOPE  C21420556   6.930   2.952   8.216  0.1228 -0.0993 -0.1480
  180SOPE  H14R20557   6.979   3.051   8.221  1.0582 -0.3061 -3.2838
  180SOPE  H14S20558   6.992   2.897   8.142  0.3864  1.9230 -1.4889
  180SOPE  C21520559   6.943   2.896   8.360  0.1145 -0.1264 -0.0507
  180SOPE  H15R20560   7.050   2.887   8.387  0.4979  1.2410 -1.0470
  180SOPE  H15S20561   6.891   2.799   8.379 -0.2602  0.0788 -0.0204
  180SOPE  C21620562   6.893   3.004   8.464  0.2662  0.3729  0.5662
  180SOPE  H16R20563   6.800   3.053   8.429  2.4942  3.8382 -1.0504
  180SOPE  H16S20564   6.961   3.091   8.461  3.6556 -1.9909  2.1434
  180SOPE  C21720565   6.882   2.959   8.606  0.2640  0.9567  0.3630
  180SOPE  H17R20566   6.798   2.886   8.614 -0.4650  1.3289 -2.7640
  180SOPE  H17S20567   6.863   3.044   8.675  1.8493  1.8751 -0.2792
  180SOPE  C21820568   7.000   2.877   8.658 -0.0928 -0.2094 -0.1499
  180SOPE  H18R20569   6.971   2.824   8.751 -0.7608 -2.0888 -1.3466
  180SOPE  H18S20570   7.092   2.937   8.669 -0.9273  1.3631 -1.3364
  180SOPE  H18T20571   7.028   2.808   8.575  0.9624 -0.0765  0.0857
  180SOPE   C3320572   6.346   3.335   7.046 -0.6208 -0.3344 -0.2365
  180SOPE   H3X20573   6.435   3.374   7.100  0.2774 -1.5664 -0.7865
  180SOPE   H3Y20574   6.360   3.227   7.022 -0.5271 -1.0331  2.6523
  180SOPE   C3420575   6.224   3.328   7.141 -0.2346  0.1457  0.4230
  180SOPE   H4X20576   6.134   3.277   7.099 -0.9315  1.5940  0.0899
  180SOPE   H4Y20577   6.199   3.433   7.165 -2.6396 -0.1102 -0.6589
  180SOPE   C3520578   6.256   3.251   7.269  0.1147  0.4978 -0.3574
  180SOPE   H5X20579   6.336   3.311   7.317 -0.5213  0.5203  0.7115
  180SOPE   H5Y20580   6.283   3.145   7.249 -1.5891  0.1535 -1.0131
  180SOPE   C3620581   6.145   3.260   7.373 -0.2137  0.0735  0.0286
  180SOPE   H6X20582   6.053   3.205   7.345 -1.0594  1.5645 -0.2426
  180SOPE   H6Y20583   6.116   3.366   7.394  1.7180  0.8924 -1.1153
  180SOPE   C3720584   6.198   3.198   7.502 -0.7528  0.0009 -0.2177
  180SOPE   H7X20585   6.301   3.233   7.525 -0.9534 -0.6624  1.9682
  180SOPE   H7Y20586   6.218   3.092   7.477 -0.8008 -0.2711  0.8317
  180SOPE   C3820587   6.129   3.229   7.640 -0.4080 -0.6399  0.1996
  180SOPE   H8X20588   6.026   3.188   7.638 -1.3379  1.5664 -1.7490
  180SOPE   H8Y20589   6.131   3.338   7.663  2.1730 -0.3435 -1.1330
  180SOPE   C3920590   6.218   3.176   7.751  0.0653  0.0993 -0.3795
  180SOPE   H9X20591   6.328   3.183   7.733  0.1524 -1.2532 -0.4222
  180SOPE   H9Y20592   6.201   3.067   7.764 -1.6832  0.2738 -0.9628
  180SOPE  C31020593   6.196   3.250   7.887 -0.0278  0.3200 -0.2488
  180SOPE  H10X20594   6.089   3.273   7.907 -0.0582  0.7729 -0.8974
  180SOPE  H10Y20595   6.248   3.347   7.873  2.1694 -0.8194 -0.3590
  180SOPE  C31120596   6.262   3.204   8.011 -0.5355  0.7701  0.1170
  180SOPE  H11X20597   6.359   3.155   7.987 -1.4503 -1.3649  0.6101
  180SOPE  H11Y20598   6.195   3.123   8.044  0.3757 -1.1939 -2.5115
  180SOPE  C31220599   6.284   3.294   8.132  0.1709  1.3515 -0.6176
  180SOPE  H12X20600   6.195   3.361   8.134  1.0436  2.5153  1.6657
  180SOPE  H12Y20601   6.368   3.363   8.108 -0.4339  1.2219 -3.4948
  180SOPE  C31320602   6.308   3.213   8.263 -0.0402 -0.3707 -0.0088
  180SOPE  H13X20603   6.210   3.166   8.285 -0.7487  1.8887  2.0788
  180SOPE  H13Y20604   6.302   3.298   8.334 -1.5579 -0.3415 -0.1404
  180SOPE  C31420605   6.435   3.136   8.262 -0.1279  0.0734  0.2306
  180SOPE  H14X20606   6.519   3.207   8.247  1.4398 -2.0912 -2.0772
  180SOPE  H14Y20607   6.425   3.069   8.173  1.0624  3.6621 -2.8956
  180SOPE  C31520608   6.447   3.083   8.410 -0.0009  0.1695  0.4463
  180SOPE  H15X20609   6.536   3.017   8.406  1.5572  2.2122 -0.1011
  180SOPE  H15Y20610   6.351   3.027   8.420  0.2367 -0.1196  1.1856
  180SOPE  C31620611   6.471   3.186   8.522  0.7902  1.5037  0.3852
  180SOPE  H16X20612   6.376   3.243   8.539 -0.7884 -1.2118  1.3954
  180SOPE  H16Y20613   6.556   3.254   8.501  1.3513  0.8876  0.6476
  180SOPE  C31720614   6.508   3.107   8.646  0.0787 -0.5299 -0.4817
  180SOPE  H17X20615   6.608   3.060   8.649  0.1677 -0.2963  2.2373
  180SOPE  H17Y20616   6.436   3.022   8.646 -0.0507 -0.4475 -1.5852
  180SOPE  C31820617   6.488   3.194   8.775  0.1698  0.4665 -0.8680
  180SOPE  H18X20618   6.557   3.281   8.770  0.3762  0.2637 -1.8015
  180SOPE  H18Y20619   6.490   3.136   8.869  0.3869  2.0112  0.1141
  180SOPE  H18Z20620   6.383   3.230   8.776 -0.3432 -0.0512  5.7557
  181SOPE     N20621   4.034   1.832   6.510  0.2576  0.3760 -0.5542
  181SOPE   HN120622   4.034   1.934   6.491 -2.0179  0.6940  0.8525
  181SOPE   HN220623   4.017   1.783   6.419 -2.8815  1.1852 -0.5366
  181SOPE   HN320624   3.954   1.794   6.564  1.5907  0.6704  1.7325
  181SOPE   C1220625   4.169   1.792   6.571 -0.0576 -0.0999  0.3975
  181SOPE  H12A20626   4.162   1.688   6.610 -2.0621  1.8851  6.3474
  181SOPE  H12B20627   4.191   1.852   6.661  1.2666  0.0156  0.0109
  181SOPE   C1120628   4.273   1.810   6.456 -0.4550 -0.0832 -0.3335
  181SOPE  H11A20629   4.240   1.750   6.369  1.8568 -2.2898  0.1709
  181SOPE  H11B20630   4.369   1.773   6.499 -1.4249 -0.8214  1.3171
  181SOPE     P20631   4.412   2.022   6.381 -0.2574  0.1879  0.1196
  181SOPE   O1320632   4.378   2.161   6.351  0.2190  0.3085 -0.5034
  181SOPE   O1420633   4.468   1.955   6.264  0.0728 -0.2048 -0.3374
  181SOPE   O1220634   4.281   1.951   6.428  0.2730 -0.4843 -0.0010
  181SOPE   O1120635   4.515   2.011   6.504  0.1462  0.2840 -0.1784
  181SOPE    C120636   4.475   2.059   6.632 -0.4439 -0.4051 -0.5493
  181SOPE    HA20637   4.462   1.973   6.702  1.5545 -1.3515 -1.2676
  181SOPE    HB20638   4.378   2.112   6.636 -1.6116 -2.3741 -1.0538
  181SOPE    C220639   4.584   2.153   6.685 -0.4512 -0.5032 -0.3293
  181SOPE    HS20640   4.682   2.104   6.666 -0.8261 -1.2115 -0.4822
  181SOPE   O2120641   4.566   2.165   6.823  0.6382 -0.3715 -0.0351
  181SOPE   C2120642   4.666   2.237   6.887  0.5977  0.0364 -0.1088
  181SOPE   O2220643   4.766   2.275   6.832 -0.0316 -0.2007  0.5035
  181SOPE   C2220644   4.635   2.268   7.033  0.3748 -0.2639  0.1710
  181SOPE   H2R20645   4.627   2.168   7.082 -2.8526  0.5870  1.6977
  181SOPE   H2S20646   4.533   2.313   7.031  0.7570  0.5882 -0.2272
  181SOPE    C320647   4.581   2.291   6.605 -0.5859 -0.7885 -0.0778
  181SOPE    HX20648   4.591   2.257   6.500 -0.7400  0.6709 -0.5989
  181SOPE    HY20649   4.667   2.358   6.629 -1.9723  1.4664 -1.0430
  181SOPE   O3120650   4.455   2.360   6.618 -0.4368 -0.1297 -0.1910
  181SOPE   C3120651   4.446   2.458   6.702  0.7122 -0.0764 -0.8114
  181SOPE   O3220652   4.528   2.481   6.793  0.1034 -0.3178 -0.0822
  181SOPE   C3220653   4.306   2.523   6.684 -0.0047  0.3061 -0.6127
  181SOPE   H2X20654   4.237   2.436   6.691  0.7623 -0.2494  0.3408
  181SOPE   H2Y20655   4.291   2.552   6.578  2.7027 -1.0773 -1.4565
  181SOPE   C2320656   4.724   2.374   7.106 -0.0706 -0.0790 -0.0880
  181SOPE   H3R20657   4.737   2.459   7.036 -4.1478  0.6527 -0.2030
  181SOPE   H3S20658   4.826   2.332   7.120 -0.2787 -0.3698  0.5880
  181SOPE   C2420659   4.661   2.437   7.231  0.1507 -0.3206 -0.3836
  181SOPE   H4R20660   4.694   2.543   7.233 -1.1932  0.2007  3.9202
  181SOPE   H4S20661   4.552   2.449   7.220  0.3168  0.2481 -1.5556
  181SOPE   C2520662   4.711   2.379   7.363 -0.1647 -0.5483  0.1737
  181SOPE   H5R20663   4.683   2.272   7.363 -0.4274 -0.4824 -0.2573
  181SOPE   H5S20664   4.822   2.380   7.367  0.0440  0.6319 -3.0853
  181SOPE   C2620665   4.648   2.453   7.484 -0.4285 -0.5269  0.3410
  181SOPE   H6R20666   4.679   2.559   7.498  1.0257 -0.9030  0.1651
  181SOPE   H6S20667   4.538   2.451   7.477 -0.5384  1.0633  1.1767
  181SOPE   C2720668   4.693   2.387   7.614  0.0491  0.6774 -0.4541
  181SOPE   H7R20669   4.661   2.281   7.609  1.5595  0.2069 -0.4991
  181SOPE   H7S20670   4.803   2.397   7.625 -0.0042 -0.2984  1.5015
  181SOPE   C2820671   4.629   2.447   7.743 -0.8065  1.2055 -0.0879
  181SOPE   H8R20672   4.618   2.555   7.722 -0.9040  1.0746 -0.7408
  181SOPE   H8S20673   4.526   2.405   7.743  0.3055 -1.7971  0.8409
  181SOPE   C2920674   4.709   2.410   7.869 -0.3735  0.7207 -0.3167
  181SOPE   H9120675   4.811   2.453   7.868 -0.0364  0.1427  2.2542
  181SOPE  C21020676   4.664   2.332   7.972  0.2446 -0.3632 -0.0855
  181SOPE  H10120677   4.731   2.318   8.058  1.8795 -1.1419 -1.4243
  181SOPE  C21120678   4.530   2.282   7.981  0.2484  0.5354  0.3976
  181SOPE  H11R20679   4.508   2.207   7.902 -0.7956  1.0902  0.1465
  181SOPE  H11S20680   4.445   2.354   7.982 -1.3879 -1.3172  2.0698
  181SOPE  C21220681   4.502   2.187   8.102 -0.4728 -0.2795  0.1059
  181SOPE  H12R20682   4.562   2.095   8.086 -0.0567  0.1561 -0.9639
  181SOPE  H12S20683   4.396   2.156   8.099 -0.1197 -1.5459  0.0985
  181SOPE  C21320684   4.531   2.243   8.240  0.3592 -0.5524 -0.0698
  181SOPE  H13R20685   4.471   2.336   8.250 -1.2712 -1.4022 -1.3212
  181SOPE  H13S20686   4.638   2.269   8.252  0.1651  0.4469 -0.3948
  181SOPE  C21420687   4.498   2.141   8.356  0.1350  0.5621  0.6055
  181SOPE  H14R20688   4.547   2.182   8.447  0.4686 -0.3743  0.8577
  181SOPE  H14S20689   4.546   2.041   8.348 -0.3017  0.4565 -1.1141
  181SOPE  C21520690   4.351   2.117   8.385  0.3094 -0.0021  0.3961
  181SOPE  H15R20691   4.338   2.058   8.478  1.1623  0.6429  0.9367
  181SOPE  H15S20692   4.308   2.051   8.306 -0.8482  0.1108  0.9164
  181SOPE  C21620693   4.265   2.243   8.398  0.2374  0.0590 -0.7646
  181SOPE  H16R20694   4.264   2.309   8.309 -0.4512  1.4954  0.2567
  181SOPE  H16S20695   4.318   2.308   8.470  1.4781 -1.0908 -0.6138
  181SOPE  C21720696   4.122   2.212   8.432  0.4260 -0.6285 -0.3102
  181SOPE  H17R20697   4.119   2.148   8.523 -1.3827 -0.8122 -0.4520
  181SOPE  H17S20698   4.088   2.160   8.339  1.0731  2.7700 -2.6338
  181SOPE  C21820699   4.034   2.330   8.455  0.1424  0.0570  0.0913
  181SOPE  H18R20700   4.021   2.366   8.351  1.4150  0.1092 -0.0666
  181SOPE  H18S20701   4.092   2.405   8.513  0.3112 -1.7607  2.4443
  181SOPE  H18T20702   3.941   2.301   8.509 -0.9410 -0.2082 -1.8095
  181SOPE   C3320703   4.277   2.631   6.795 -0.1393  0.5675 -0.0782
  181SOPE   H3X20704   4.193   2.697   6.765 -1.5558 -0.7087  0.9345
  181SOPE   H3Y20705   4.368   2.694   6.810  0.7452 -0.4454 -1.0244
  181SOPE   C3420706   4.247   2.582   6.941 -0.2594 -0.3227  0.1642
  181SOPE   H4X20707   4.264   2.472   6.948  2.9342  0.1197  0.8208
  181SOPE   H4Y20708   4.138   2.596   6.962  0.2722  0.9603  2.4073
  181SOPE   C3520709   4.322   2.657   7.052 -0.2657 -0.2256 -0.5890
  181SOPE   H5X20710   4.308   2.768   7.053 -0.9404 -0.3058 -0.3146
  181SOPE   H5Y20711   4.431   2.642   7.037 -0.7630 -2.6127 -2.4274
  181SOPE   C3620712   4.270   2.606   7.190 -0.1416 -1.0772 -0.2261
  181SOPE   H6X20713   4.276   2.495   7.202 -2.6364 -1.5258 -2.2403
  181SOPE   H6Y20714   4.163   2.635   7.193  0.0886 -0.2110 -0.0396
  181SOPE   C3720715   4.335   2.677   7.314 -0.2235 -0.1869  0.3230
  181SOPE   H7X20716   4.325   2.787   7.305 -1.5488 -0.3174 -0.0416
  181SOPE   H7Y20717   4.441   2.645   7.307  0.0686  0.4951  1.3716
  181SOPE   C3820718   4.278   2.625   7.444  0.6585 -0.5024 -0.0424
  181SOPE   H8X20719   4.326   2.528   7.467  0.9654 -0.2904  0.2052
  181SOPE   H8Y20720   4.168   2.624   7.427  0.7684  2.7619 -1.9642
  181SOPE   C3920721   4.302   2.731   7.565  0.2334  0.4687  0.7915
  181SOPE   H9X20722   4.299   2.839   7.536  3.5838  0.7733  1.1217
  181SOPE   H9Y20723   4.402   2.718   7.611 -0.1868  1.4723  2.0525
  181SOPE  C31020724   4.197   2.718   7.672  1.0704 -0.5093 -0.2735
  181SOPE  H10X20725   4.190   2.614   7.712  2.5387 -0.7242 -0.5327
  181SOPE  H10Y20726   4.097   2.753   7.639  0.2309  0.6815  3.0594
  181SOPE  C31120727   4.223   2.812   7.787  0.6586  0.3532 -0.2480
  181SOPE  H11X20728   4.213   2.913   7.741 -0.1901  0.4403  0.1045
  181SOPE  H11Y20729   4.329   2.795   7.815  0.4985 -1.8317 -0.7422
  181SOPE  C31220730   4.116   2.797   7.900 -0.2992  0.8964 -0.5682
  181SOPE  H12X20731   4.015   2.798   7.852 -0.1700 -2.7847 -1.2049
  181SOPE  H12Y20732   4.123   2.889   7.963  1.0459 -0.3774  1.2186
  181SOPE  C31320733   4.115   2.673   7.998 -0.9937  0.3826  0.1072
  181SOPE  H13X20734   4.221   2.654   8.026 -1.2580 -2.1413 -0.4517
  181SOPE  H13Y20735   4.083   2.591   7.930  1.8867  2.1853 -3.8399
  181SOPE  C31420736   4.039   2.682   8.129  0.6456  0.2699 -0.1262
  181SOPE  H14X20737   4.035   2.580   8.172  4.0296  0.3319  0.6151
  181SOPE  H14Y20738   3.940   2.728   8.107 -0.1784 -0.3764  2.0010
  181SOPE  C31520739   4.109   2.766   8.239 -0.2708 -0.0231  0.2296
  181SOPE  H15X20740   4.130   2.869   8.206 -0.8244  0.6364  1.8280
  181SOPE  H15Y20741   4.206   2.721   8.268 -0.7895 -0.4808  1.3565
  181SOPE  C31620742   4.024   2.771   8.367  0.0471  0.3190 -1.2496
  181SOPE  H16X20743   4.037   2.670   8.410 -0.4031  0.4779 -0.7265
  181SOPE  H16Y20744   3.920   2.786   8.330  0.1911  1.2871 -1.2979
  181SOPE  C31720745   4.055   2.885   8.476 -0.5096  0.2476 -0.2864
  181SOPE  H17X20746   3.989   2.888   8.565 -0.7117  2.9578 -0.4382
  181SOPE  H17Y20747   4.053   2.988   8.435  5.2119  1.4948  1.5676
  181SOPE  C31820748   4.196   2.879   8.531 -0.1315  0.1255 -0.1788
  181SOPE  H18X20749   4.210   2.779   8.577  0.4055  0.5634  0.6305
  181SOPE  H18Y20750   4.201   2.952   8.615 -0.4211  0.4705 -0.4606
  181SOPE  H18Z20751   4.276   2.895   8.456  1.2805  0.2602  1.3043
  182SOPE     N20752   0.094   2.653   6.477 -0.2925  0.5964  0.4682
  182SOPE   HN120753   0.113   2.553   6.498  0.0605  0.1241 -1.7811
  182SOPE   HN220754   0.176   2.694   6.427 -0.7340  1.7747  0.6811
  182SOPE   HN320755   0.091   2.708   6.565  2.3009  0.4260  0.7242
  182SOPE   C1220756  -0.039   2.652   6.405 -0.1657 -0.4506 -0.3613
  182SOPE  H12A20757  -0.029   2.603   6.306 -1.8362 -0.4242 -0.5746
  182SOPE  H12B20758  -0.059   2.760   6.387  2.9493  0.3020  0.1806
  182SOPE   C1120759  -0.153   2.590   6.486 -0.2768 -0.6397  0.1056
  182SOPE  H11A20760  -0.256   2.620   6.456 -0.5779 -1.5123  0.2485
  182SOPE  H11B20761  -0.158   2.623   6.592  1.7216 -1.3839  0.4676
  182SOPE     P20762  -0.187   2.353   6.398  0.0431  0.2982 -0.1699
  182SOPE   O1320763  -0.077   2.326   6.304  0.0403 -0.0920  0.2261
  182SOPE   O1420764  -0.317   2.402   6.351  0.1020 -0.4547  0.5736
  182SOPE   O1220765  -0.141   2.451   6.505 -0.0856  0.1339  0.2915
  182SOPE   O1120766  -0.209   2.216   6.479 -0.2149  0.8986  0.3759
  182SOPE    C120767  -0.295   2.203   6.593 -0.6117 -0.7119 -0.4921
  182SOPE    HA20768  -0.369   2.125   6.565 -0.9140 -0.4978 -0.3116
  182SOPE    HB20769  -0.341   2.301   6.619  2.6029  0.8477 -0.2308
  182SOPE    C220770  -0.214   2.155   6.717 -0.2408 -0.2890  0.3069
  182SOPE    HS20771  -0.164   2.061   6.684  1.1922  0.9544 -1.2068
  182SOPE   O2120772  -0.310   2.134   6.821  0.4705 -0.4031  0.1603
  182SOPE   C2120773  -0.287   2.033   6.902  0.3167  0.9460 -0.2756
  182SOPE   O2220774  -0.185   1.963   6.896  0.2572  0.1360 -0.1684
  182SOPE   C2220775  -0.403   2.013   7.001 -0.1687 -1.1778  0.1477
  182SOPE   H2R20776  -0.473   1.945   6.948 -1.6934 -0.4965  1.2223
  182SOPE   H2S20777  -0.460   2.109   7.004 -1.5677 -1.9147 -1.0982
  182SOPE    C320778  -0.111   2.262   6.756  0.0938 -0.4150  0.1802
  182SOPE    HX20779  -0.158   2.362   6.767 -1.1776 -1.0564  0.8397
  182SOPE    HY20780  -0.033   2.272   6.678  1.8845  0.4347  1.9809
  182SOPE   O3120781  -0.051   2.229   6.884 -0.0440  0.0020 -0.2145
  182SOPE   C3120782   0.047   2.140   6.877 -0.9009 -0.4054 -0.2416
  182SOPE   O3220783   0.082   2.085   6.774  0.1244 -0.0311 -0.0239
  182SOPE   C3220784   0.129   2.117   7.006 -0.7191 -0.2871  0.0028
  182SOPE   H2X20785   0.192   2.206   7.028  0.0076 -1.2630  2.1688
  182SOPE   H2Y20786   0.197   2.030   6.992 -0.2404 -0.1561  1.3913
  182SOPE   C2320787  -0.346   1.972   7.135 -0.0154  0.3568 -0.0201
  182SOPE   H3R20788  -0.268   2.046   7.162  0.3804  0.0490 -0.3068
  182SOPE   H3S20789  -0.295   1.874   7.133 -0.4982  0.0361  1.6820
  182SOPE   C2420790  -0.442   1.954   7.256  0.1003 -0.7537 -0.5035
  182SOPE   H4R20791  -0.509   2.037   7.286 -1.7606 -1.9151 -1.2683
  182SOPE   H4S20792  -0.516   1.877   7.225  0.6251 -1.4773  0.0026
  182SOPE   C2520793  -0.389   1.887   7.381 -0.7680  0.7424  0.0696
  182SOPE   H5R20794  -0.329   1.798   7.354 -0.5301  1.1836 -0.9054
  182SOPE   H5S20795  -0.312   1.951   7.429  1.2643 -0.1505 -1.8044
  182SOPE   C2620796  -0.501   1.851   7.478  0.4801 -0.5438 -1.1887
  182SOPE   H6R20797  -0.551   1.949   7.494  0.4326 -0.9363  1.5300
  182SOPE   H6S20798  -0.570   1.779   7.429 -0.9141 -0.2752  0.2840
  182SOPE   C2720799  -0.445   1.803   7.613  0.4899  0.4519  0.6970
  182SOPE   H7R20800  -0.401   1.701   7.601 -2.0323 -0.7654  1.2358
  182SOPE   H7S20801  -0.366   1.872   7.649 -0.8939  0.6572  3.5307
  182SOPE   C2820802  -0.553   1.807   7.728  0.1469  0.2987 -0.0005
  182SOPE   H8R20803  -0.491   1.814   7.820  0.8797  1.2643 -0.5526
  182SOPE   H8S20804  -0.611   1.901   7.720 -0.6252  0.1266  2.6115
  182SOPE   C2920805  -0.642   1.690   7.731 -0.5792  0.8069  0.1223
  182SOPE   H9120806  -0.711   1.678   7.646 -1.2060  2.4430  0.3670
  182SOPE  C21020807  -0.641   1.586   7.822  0.3951  0.0174  0.0734
  182SOPE  H10120808  -0.713   1.503   7.812  0.0359  0.3905 -0.4825
  182SOPE  C21120809  -0.549   1.572   7.941 -0.3536  0.1220  0.9367
  182SOPE  H11R20810  -0.576   1.640   8.025  1.4215  1.3115  0.6063
  182SOPE  H11S20811  -0.443   1.597   7.917 -0.5574  3.2334  2.6430
  182SOPE  C21220812  -0.565   1.429   8.007 -0.5768  0.2380  0.2024
  182SOPE  H12R20813  -0.529   1.349   7.938  0.3897  0.3863  0.5250
  182SOPE  H12S20814  -0.672   1.415   8.035 -0.6203  1.0795  0.4768
  182SOPE  C21320815  -0.486   1.419   8.134 -0.3113  0.5697 -0.1378
  182SOPE  H13R20816  -0.513   1.502   8.203  1.0807  2.1653 -1.4262
  182SOPE  H13S20817  -0.377   1.434   8.117 -0.0600 -1.0956 -0.1640
  182SOPE  C21420818  -0.487   1.281   8.195  0.1624  0.0118  0.3872
  182SOPE  H14R20819  -0.447   1.203   8.127 -1.2161 -0.6742  0.3375
  182SOPE  H14S20820  -0.593   1.255   8.213  0.7104 -1.5941  1.5534
  182SOPE  C21520821  -0.418   1.269   8.336 -0.1910  0.1974  0.8321
  182SOPE  H15R20822  -0.477   1.338   8.400 -2.0301 -0.8111  0.3205
  182SOPE  H15S20823  -0.314   1.306   8.343  0.8946 -2.5613  0.4869
  182SOPE  C21620824  -0.407   1.123   8.393  0.2755 -0.8270 -0.4438
  182SOPE  H16R20825  -0.346   1.062   8.323  0.4606 -2.6129  1.1982
  182SOPE  H16S20826  -0.510   1.081   8.396  0.0428 -0.2322  0.1213
  182SOPE  C21720827  -0.324   1.116   8.531 -0.4947 -0.1993 -1.1358
  182SOPE  H17R20828  -0.385   1.179   8.600  1.6101  0.2297  0.4378
  182SOPE  H17S20829  -0.227   1.169   8.517  2.0614 -3.7125  1.4735
  182SOPE  C21820830  -0.294   0.986   8.595  0.3168  0.8514  0.5424
  182SOPE  H18R20831  -0.381   0.919   8.611  0.7359 -0.1188 -1.0130
  182SOPE  H18S20832  -0.264   1.004   8.700 -1.8612  0.3623  1.3029
  182SOPE  H18T20833  -0.212   0.932   8.542  0.8956  3.6451 -1.6778
  182SOPE   C3320834   0.039   2.084   7.122 -0.2975  0.0270  0.2306
  182SOPE   H3X20835  -0.038   2.008   7.096  0.0209 -0.4062  0.5598
  182SOPE   H3Y20836  -0.016   2.175   7.156 -1.0172  1.1368 -3.4196
  182SOPE   C3420837   0.120   2.029   7.241 -0.2953 -0.5439 -0.6018
  182SOPE   H4X20838   0.210   2.087   7.272 -0.4637 -0.9682  0.7399
  182SOPE   H4Y20839   0.164   1.929   7.222 -0.6656 -0.4314 -2.1681
  182SOPE   C3520840   0.034   2.028   7.365  0.4979  0.8874  0.0656
  182SOPE   H5X20841  -0.062   1.981   7.337  2.2187 -3.6977  1.0023
  182SOPE   H5Y20842   0.011   2.130   7.402  0.3558  0.5381  0.9561
  182SOPE   C3620843   0.094   1.936   7.469 -0.0661 -0.5674 -0.2422
  182SOPE   H6X20844   0.175   2.004   7.503 -0.3884 -2.2370  4.5703
  182SOPE   H6Y20845   0.142   1.846   7.426  1.3776  0.7742 -1.5653
  182SOPE   C3720846  -0.005   1.906   7.585 -0.3814  0.1359  0.3546
  182SOPE   H7X20847  -0.096   1.864   7.537  0.4369  1.5566 -2.7011
  182SOPE   H7Y20848  -0.016   1.996   7.649 -0.4715 -0.4393  1.1528
  182SOPE   C3820849   0.047   1.794   7.677  0.1982 -1.0577 -0.3587
  182SOPE   H8X20850   0.145   1.811   7.727 -0.1583 -1.8748  0.6603
  182SOPE   H8Y20851   0.046   1.704   7.613 -1.3887 -0.9573 -0.5288
  182SOPE   C3920852  -0.055   1.786   7.789 -0.0272 -0.0927 -0.1676
  182SOPE   H9X20853  -0.154   1.765   7.744  0.2508 -0.0625 -0.8057
  182SOPE   H9Y20854  -0.075   1.890   7.822 -0.0257  0.1659 -0.9500
  182SOPE  C31020855  -0.010   1.703   7.912  0.4682  0.5345  0.6294
  182SOPE  H10X20856   0.075   1.765   7.947  0.6390 -0.6221  2.3535
  182SOPE  H10Y20857   0.023   1.604   7.875 -3.1441 -1.2053  1.6160
  182SOPE  C31120858  -0.119   1.715   8.019 -0.3448  0.1749 -0.2468
  182SOPE  H11X20859  -0.203   1.646   7.997 -0.9592  1.5952 -2.7818
  182SOPE  H11Y20860  -0.166   1.815   8.022 -2.5997 -0.8358  0.3804
  182SOPE  C31220861  -0.058   1.685   8.156  0.1500 -0.5172  0.2248
  182SOPE  H12X20862  -0.001   1.775   8.186  1.4263 -0.2809 -2.6007
  182SOPE  H12Y20863   0.006   1.597   8.134  0.5482 -0.2890  0.4711
  182SOPE  C31320864  -0.172   1.652   8.261 -0.3569  0.1044 -0.1197
  182SOPE  H13X20865  -0.213   1.555   8.225  0.7234  0.4549 -2.5264
  182SOPE  H13Y20866  -0.264   1.713   8.245 -1.8457 -2.5542 -2.9383
  182SOPE  C31420867  -0.112   1.645   8.400  0.7374  0.1020  0.7736
  182SOPE  H14X20868  -0.077   1.748   8.421  1.2554  0.2765 -0.8622
  182SOPE  H14Y20869  -0.022   1.580   8.405  0.2869 -0.6214 -0.2194
  182SOPE  C31520870  -0.221   1.600   8.497 -0.2185  0.5837  0.2093
  182SOPE  H15X20871  -0.249   1.493   8.480  1.6067 -0.3149  2.4418
  182SOPE  H15Y20872  -0.308   1.669   8.503 -2.0097 -1.5608  0.6458
  182SOPE  C31620873  -0.170   1.577   8.643  0.6022 -0.1709  0.1882
  182SOPE  H16X20874  -0.142   1.669   8.698  1.5971 -0.8141  0.8131
  182SOPE  H16Y20875  -0.075   1.518   8.643  1.0329  0.5161  0.5041
  182SOPE  C31720876  -0.270   1.502   8.728 -0.1547 -0.0393 -0.2162
  182SOPE  H17X20877  -0.270   1.392   8.711 -0.8307 -0.7491  3.4456
  182SOPE  H17Y20878  -0.373   1.540   8.713  0.2038  0.5508 -1.2165
  182SOPE  C31820879  -0.249   1.514   8.883  0.2628  0.1466  0.7728
  182SOPE  H18X20880  -0.241   1.622   8.911  2.3147  0.5257 -1.0067
  182SOPE  H18Y20881  -0.161   1.458   8.919  0.6382 -1.2233 -2.0614
  182SOPE  H18Z20882  -0.327   1.462   8.944  0.2268  0.2662  0.8311
  183SOPE     N20883   2.357   6.478   6.648 -0.0482  0.1126 -0.3352
  183SOPE   HN120884   2.298   6.478   6.734 -0.8210 -2.0008 -0.8162
  183SOPE   HN220885   2.359   6.384   6.605  0.0890  0.9153 -2.1766
  183SOPE   HN320886   2.456   6.499   6.672  0.2187 -0.7427 -0.6470
  183SOPE   C1220887   2.288   6.565   6.547 -0.5198  0.0922 -0.2379
  183SOPE  H12A20888   2.282   6.669   6.586  1.9932  0.6341 -1.0935
  183SOPE  H12B20889   2.187   6.520   6.556  0.2689 -1.4206  1.9532
  183SOPE   C1120890   2.371   6.568   6.415  0.3245  0.5267  0.1040
  183SOPE  H11A20891   2.321   6.643   6.350  0.3786 -0.0268 -0.5747
  183SOPE  H11B20892   2.353   6.467   6.374 -0.1501  0.8688 -0.5492
  183SOPE     P20893   2.562   6.742   6.424  0.5138  0.3630 -0.4150
  183SOPE   O1320894   2.458   6.830   6.483  0.0642 -0.9744  0.1081
  183SOPE   O1420895   2.604   6.773   6.284 -0.0955 -0.0296  0.2163
  183SOPE   O1220896   2.509   6.591   6.441 -0.3330  0.3405 -0.1909
  183SOPE   O1120897   2.690   6.731   6.513 -0.1281  0.5578 -0.1482
  183SOPE    C120898   2.780   6.618   6.502 -0.0079  0.1165 -0.1397
  183SOPE    HA20899   2.881   6.652   6.534  0.2115 -1.3920  0.8606
  183SOPE    HB20900   2.789   6.571   6.402 -1.6568 -1.2804  0.3102
  183SOPE    C220901   2.747   6.512   6.610 -0.4298 -0.6707 -0.2503
  183SOPE    HS20902   2.639   6.490   6.596 -0.4631 -2.2339  1.9393
  183SOPE   O2120903   2.770   6.577   6.732  0.1016 -0.5154  0.6256
  183SOPE   C2120904   2.671   6.582   6.819  0.1704 -0.0074 -0.2353
  183SOPE   O2220905   2.559   6.536   6.804 -0.2925 -0.0859 -0.2537
  183SOPE   C2220906   2.713   6.661   6.940 -0.2750 -0.1178  0.5066
  183SOPE   H2R20907   2.807   6.714   6.912 -0.5800  0.3135  0.2904
  183SOPE   H2S20908   2.735   6.583   7.016 -0.2136  0.3482  0.9742
  183SOPE    C320909   2.822   6.377   6.599  0.4402  0.1820  0.0683
  183SOPE    HX20910   2.929   6.382   6.627  0.2785 -0.4088  0.8388
  183SOPE    HY20911   2.828   6.348   6.491 -0.0379 -0.0720  0.1044
  183SOPE   O3120912   2.747   6.289   6.689  0.0913  0.1574  0.1093
  183SOPE   C3120913   2.790   6.160   6.679  1.1218 -0.8576 -0.7883
  183SOPE   O3220914   2.870   6.113   6.607  0.0146  0.3915 -0.2787
  183SOPE   C3220915   2.700   6.080   6.774 -0.5641 -0.8076  0.9206
  183SOPE   H2X20916   2.669   5.989   6.719 -0.1337 -0.0636 -0.5799
  183SOPE   H2Y20917   2.612   6.147   6.788 -0.7568 -1.2605  2.0381
  183SOPE   C2320918   2.622   6.773   6.980 -0.0118 -0.1126  0.4228
  183SOPE   H3R20919   2.514   6.745   6.984 -0.2379  0.2166 -1.8565
  183SOPE   H3S20920   2.628   6.846   6.896 -0.2295 -0.6749 -0.0855
  183SOPE   C2420921   2.663   6.847   7.105 -0.2950 -0.3368 -0.9711
  183SOPE   H4R20922   2.773   6.846   7.115 -0.3205  0.4050 -0.5570
  183SOPE   H4S20923   2.630   6.952   7.095  1.8836  0.4793 -0.0333
  183SOPE   C2520924   2.597   6.778   7.228  0.2991  0.6067  0.1426
  183SOPE   H5R20925   2.487   6.769   7.214  0.5348  0.5587 -1.9142
  183SOPE   H5S20926   2.648   6.680   7.241 -0.0279  0.1188 -1.9796
  183SOPE   C2620927   2.608   6.848   7.368 -0.5007 -0.1498 -1.0355
  183SOPE   H6R20928   2.711   6.886   7.381 -0.3623 -0.7437 -0.3176
  183SOPE   H6S20929   2.545   6.940   7.364 -1.8742 -0.8224  2.2222
  183SOPE   C2720930   2.567   6.762   7.492  0.3116 -0.6370 -0.5670
  183SOPE   H7R20931   2.457   6.760   7.487  0.0898 -0.7330  2.2761
  183SOPE   H7S20932   2.608   6.659   7.485  0.2226 -0.5808 -2.0814
  183SOPE   C2820933   2.605   6.837   7.624  0.7858 -0.4094  0.5863
  183SOPE   H8R20934   2.714   6.853   7.638  1.1627  0.0292 -2.2827
  183SOPE   H8S20935   2.558   6.937   7.623 -0.5180 -0.9760 -1.4315
  183SOPE   C2920936   2.560   6.761   7.750  0.3398 -0.0309 -0.2233
  183SOPE   H9120937   2.495   6.674   7.731  1.9897 -1.1261 -1.0841
  183SOPE  C21020938   2.597   6.787   7.878 -0.0511 -0.2683  0.0834
  183SOPE  H10120939   2.559   6.727   7.962 -1.1473  1.0794  0.5807
  183SOPE  C21120940   2.682   6.906   7.909 -0.9454  0.0807  0.0637
  183SOPE  H11R20941   2.713   6.963   7.819 -1.7143 -0.9868 -0.9048
  183SOPE  H11S20942   2.780   6.862   7.939  0.1053  0.6042 -2.3748
  183SOPE  C21220943   2.623   6.986   8.026 -0.2707  0.7344 -0.4817
  183SOPE  H12R20944   2.524   7.016   7.986  0.2998  2.7721 -0.4944
  183SOPE  H12S20945   2.682   7.080   8.031  0.0861  0.5296 -0.7722
  183SOPE  C21320946   2.607   6.900   8.153  0.2390 -0.2409  0.8088
  183SOPE  H13R20947   2.711   6.861   8.160 -0.4799 -3.4463 -2.9666
  183SOPE  H13S20948   2.543   6.811   8.137 -0.7549  0.5949 -0.0165
  183SOPE  C21420949   2.558   6.989   8.263 -0.2223 -0.4453  0.3592
  183SOPE  H14R20950   2.459   7.028   8.229  1.4280  2.7660 -1.1590
  183SOPE  H14S20951   2.606   7.088   8.277 -1.4809  0.4560 -1.3348
  183SOPE  C21520952   2.549   6.912   8.395 -0.5809  0.1468  0.0990
  183SOPE  H15R20953   2.517   6.806   8.387  1.2702 -0.3226 -1.7129
  183SOPE  H15S20954   2.479   6.961   8.466  0.2788 -0.2030  1.2341
  183SOPE  C21620955   2.672   6.929   8.477  0.3580  0.0114 -0.4685
  183SOPE  H16R20956   2.701   7.036   8.476  2.0965 -0.3219  2.1501
  183SOPE  H16S20957   2.743   6.873   8.413  0.6456  0.6078 -0.6727
  183SOPE  C21720958   2.678   6.866   8.617  0.3673 -0.5543  1.3891
  183SOPE  H17R20959   2.776   6.893   8.662  2.4120 -1.4500 -2.1713
  183SOPE  H17S20960   2.675   6.758   8.591 -1.2661  0.0498 -1.3485
  183SOPE  C21820961   2.568   6.896   8.718  0.4088  0.4271  0.0703
  183SOPE  H18R20962   2.591   6.994   8.765  2.5933  0.4070 -0.8155
  183SOPE  H18S20963   2.569   6.820   8.799 -0.7913 -0.3318 -0.6036
  183SOPE  H18T20964   2.470   6.884   8.668  1.0363 -0.3488 -1.0436
  183SOPE   C3320965   2.762   6.045   6.910 -0.0191 -0.1346  0.2303
  183SOPE   H3X20966   2.873   6.037   6.916 -0.1377 -1.4229  1.1137
  183SOPE   H3Y20967   2.730   5.942   6.934 -0.1480 -0.8388 -2.5813
  183SOPE   C3420968   2.707   6.145   7.017  0.8295  0.1252  0.1484
  183SOPE   H4X20969   2.598   6.123   7.025  1.1077 -1.1571  0.8300
  183SOPE   H4Y20970   2.715   6.252   6.987  0.5836  0.9004  2.6473
  183SOPE   C3520971   2.755   6.116   7.159 -0.6894 -0.0452  0.7218
  183SOPE   H5X20972   2.864   6.134   7.168 -0.4997  0.2514 -1.5665
  183SOPE   H5Y20973   2.723   6.015   7.192 -2.3699  0.0657 -0.4796
  183SOPE   C3620974   2.681   6.206   7.264  0.3721 -0.1033  0.6638
  183SOPE   H6X20975   2.571   6.198   7.258  0.5209 -1.1595 -2.8570
  183SOPE   H6Y20976   2.697   6.312   7.238 -3.2268  0.2782 -0.5637
  183SOPE   C3720977   2.718   6.169   7.404 -0.7918  0.3378 -0.5194
  183SOPE   H7X20978   2.825   6.143   7.411 -0.9584 -0.0554  0.8322
  183SOPE   H7Y20979   2.658   6.076   7.417 -1.8734  1.2053  1.1256
  183SOPE   C3820980   2.693   6.268   7.514 -1.0124 -0.4877 -0.8017
  183SOPE   H8X20981   2.686   6.218   7.613  0.4125  0.7595 -0.0209
  183SOPE   H8Y20982   2.590   6.306   7.497 -1.3564 -0.6281  0.8156
  183SOPE   C3920983   2.793   6.386   7.520  0.1412 -0.3009  0.5642
  183SOPE   H9X20984   2.801   6.443   7.426  1.7657  0.4864  1.1370
  183SOPE   H9Y20985   2.894   6.340   7.528  0.2931  0.0381  0.6104
  183SOPE  C31020986   2.769   6.472   7.647 -0.0325  0.5519  0.4709
  183SOPE  H10X20987   2.661   6.472   7.673  0.2617  2.6012  2.0305
  183SOPE  H10Y20988   2.794   6.579   7.630  2.2353 -0.1099 -0.8753
  183SOPE  C31120989   2.859   6.433   7.765  0.1064  0.1308 -0.2422
  183SOPE  H11X20990   2.966   6.462   7.765  0.0061  0.5039 -0.1836
  183SOPE  H11Y20991   2.850   6.322   7.775 -1.4754  0.1187 -1.4827
  183SOPE  C31220992   2.799   6.490   7.895  0.2613 -0.2313 -0.1000
  183SOPE  H12X20993   2.692   6.458   7.895  0.5520 -1.5836 -3.2126
  183SOPE  H12Y20994   2.803   6.601   7.891  1.6973 -0.2288  0.7166
  183SOPE  C31320995   2.875   6.451   8.022  0.0212  0.3631  1.0369
  183SOPE  H13X20996   2.982   6.481   8.010  0.8573 -2.7542 -0.2083
  183SOPE  H13Y20997   2.885   6.341   8.028 -0.0709  0.2897  0.0028
  183SOPE  C31420998   2.807   6.508   8.146  0.2567 -0.7249 -0.0428
  183SOPE  H14X20999   2.704   6.468   8.152 -0.5050  1.0684 -0.2760
  183SOPE  H14Y21000   2.807   6.618   8.127 -0.9590 -0.7341 -0.1894
  183SOPE  C31521001   2.870   6.462   8.280 -0.6261  0.0595 -0.5216
  183SOPE  H15X21002   2.981   6.451   8.271 -0.5913  0.0983 -0.1817
  183SOPE  H15Y21003   2.826   6.363   8.304  0.2505 -0.0282  0.8718
  183SOPE  C31621004   2.841   6.552   8.400  0.3289  0.8793 -0.0227
  183SOPE  H16X21005   2.732   6.568   8.413 -0.2207 -1.9997 -0.4155
  183SOPE  H16Y21006   2.882   6.652   8.372  1.8815  0.7318  1.5290
  183SOPE  C31721007   2.908   6.516   8.532 -0.0499 -0.8434  0.1550
  183SOPE  H17X21008   2.900   6.610   8.591  0.6216 -0.1676 -0.8084
  183SOPE  H17Y21009   3.015   6.490   8.516 -0.4220 -1.8957 -0.7641
  183SOPE  C31821010   2.852   6.395   8.604 -0.0877  0.0800  0.0856
  183SOPE  H18X21011   2.870   6.304   8.543  0.9512  0.3197  0.0288
  183SOPE  H18Y21012   2.742   6.410   8.619 -0.2632 -0.0630 -1.0214
  183SOPE  H18Z21013   2.905   6.383   8.701  0.9830 -0.6031 -0.5700
  184SOPE     N21014   1.264   0.275   6.277 -0.3633 -0.2053 -0.0053
  184SOPE   HN121015   1.257   0.171   6.271 -3.9094 -0.0266 -2.3355
  184SOPE   HN221016   1.286   0.297   6.377 -1.2224 -0.0271  0.1601
  184SOPE   HN321017   1.173   0.320   6.252  0.8553  2.7498  0.4996
  184SOPE   C1221018   1.378   0.330   6.205 -0.0067  0.0031  0.5834
  184SOPE  H12A21019   1.348   0.434   6.177 -1.8373 -0.5654  0.2588
  184SOPE  H12B21020   1.388   0.279   6.107 -1.8783 -0.1277  0.4257
  184SOPE   C1121021   1.508   0.316   6.278  0.6532 -0.4506  0.0332
  184SOPE  H11A21022   1.498   0.388   6.362 -0.7941  0.1216 -0.6053
  184SOPE  H11B21023   1.591   0.355   6.216 -1.5389  3.1507 -0.9060
  184SOPE     P21024   1.655   0.132   6.392  0.0477  0.1281  0.2743
  184SOPE   O1321025   1.704   0.238   6.484 -0.5652  0.2167 -0.1993
  184SOPE   O1421026   1.758   0.079   6.304 -0.0085  0.3459 -0.2196
  184SOPE   O1221027   1.526   0.182   6.313 -0.0839  0.0640  0.1362
  184SOPE   O1121028   1.604   0.010   6.470  0.0284 -0.3768  0.3932
  184SOPE    C121029   1.488  -0.004   6.553  0.5779  1.0073 -0.7095
  184SOPE    HA21030   1.427  -0.095   6.532 -0.8906  1.7913  0.0189
  184SOPE    HB21031   1.432   0.091   6.544  0.2233  1.0362  1.2797
  184SOPE    C221032   1.522  -0.033   6.700 -0.2350 -0.0589  0.7574
  184SOPE    HS21033   1.423  -0.037   6.749 -0.8019 -1.1811 -0.4227
  184SOPE   O2121034   1.605   0.066   6.757  0.6729 -0.2081 -0.2853
  184SOPE   C2121035   1.556   0.187   6.755  0.1498  0.2827  0.4046
  184SOPE   O2221036   1.455   0.226   6.708  0.0822  0.0533 -0.4657
  184SOPE   C2221037   1.649   0.274   6.825 -0.3839  1.1985  0.0090
  184SOPE   H2R21038   1.625   0.376   6.790 -1.8608  1.0009  0.3989
  184SOPE   H2S21039   1.755   0.252   6.797  0.0522  1.1415  1.6047
  184SOPE    C321040   1.594  -0.160   6.718 -0.5480  0.2800 -0.5666
  184SOPE    HX21041   1.705  -0.166   6.709 -0.2109  1.0449  2.1163
  184SOPE    HY21042   1.552  -0.237   6.651  1.6849 -0.6668 -0.9888
  184SOPE   O3121043   1.560  -0.218   6.852 -0.0348 -0.3413 -0.2654
  184SOPE   C3121044   1.651  -0.210   6.946 -0.1650  0.5480  0.1577
  184SOPE   O3221045   1.763  -0.163   6.938 -0.4858  0.3964 -0.1085
  184SOPE   C3221046   1.602  -0.291   7.073 -0.0127  0.1439 -0.3130
  184SOPE   H2X21047   1.639  -0.394   7.055 -1.8176 -1.1432  2.5146
  184SOPE   H2Y21048   1.491  -0.283   7.071 -0.0419 -0.3418 -1.6286
  184SOPE   C2321049   1.637   0.260   6.978 -0.9618 -0.1999 -0.1498
  184SOPE   H3R21050   1.693   0.166   6.996 -2.5090 -1.1273  0.0029
  184SOPE   H3S21051   1.533   0.253   7.014 -1.3585 -3.1768 -1.5957
  184SOPE   C2421052   1.708   0.384   7.053 -0.4708  0.9644 -0.5810
  184SOPE   H4R21053   1.819   0.387   7.046 -0.5092  2.6982 -0.9580
  184SOPE   H4S21054   1.675   0.478   7.004 -0.4856  2.0439  1.3978
  184SOPE   C2521055   1.680   0.391   7.198 -0.1398 -0.6214 -0.2047
  184SOPE   H5R21056   1.570   0.385   7.217  0.0654  0.2407  1.5462
  184SOPE   H5S21057   1.726   0.299   7.238  1.3126  0.2450  0.2019
  184SOPE   C2621058   1.753   0.503   7.274 -0.4382 -0.1752 -0.1591
  184SOPE   H6R21059   1.863   0.502   7.264 -0.4917  0.8359 -1.0251
  184SOPE   H6S21060   1.719   0.601   7.234 -0.4329  0.3409  1.0647
  184SOPE   C2721061   1.722   0.511   7.420  0.7947 -0.0709 -0.1506
  184SOPE   H7R21062   1.746   0.415   7.469 -0.4224  0.5114  1.6759
  184SOPE   H7S21063   1.798   0.586   7.451  0.7925  1.1529 -2.7786
  184SOPE   C2821064   1.583   0.562   7.466 -0.1208 -0.0979 -0.5092
  184SOPE   H8R21065   1.551   0.649   7.404 -0.8206 -1.6116 -2.3565
  184SOPE   H8S21066   1.505   0.486   7.450 -1.0509  1.0278 -1.5461
  184SOPE   C2921067   1.594   0.576   7.615 -0.4508 -0.2588 -0.5589
  184SOPE   H9121068   1.655   0.497   7.662  0.0931 -0.3240 -1.3563
  184SOPE  C21021069   1.534   0.674   7.684  0.2525 -0.0349 -0.3908
  184SOPE  H10121070   1.563   0.677   7.791  3.2215  0.6589 -1.1126
  184SOPE  C21121071   1.451   0.791   7.632 -0.4703 -0.0583  0.6986
  184SOPE  H11R21072   1.353   0.777   7.681 -1.0011 -2.3825 -0.8276
  184SOPE  H11S21073   1.433   0.791   7.522  0.7125 -0.0623  0.4893
  184SOPE  C21221074   1.485   0.939   7.673 -0.1084 -0.0191  0.3887
  184SOPE  H12R21075   1.424   1.000   7.603  0.9870  0.2571 -0.3457
  184SOPE  H12S21076   1.590   0.960   7.645  0.1627 -1.9944 -0.2674
  184SOPE  C21321077   1.450   0.976   7.819 -0.2921  0.3032 -0.3821
  184SOPE  H13R21078   1.486   0.899   7.890 -2.1920 -0.0932  0.2054
  184SOPE  H13S21079   1.339   0.968   7.811 -0.4475  0.7354  1.0692
  184SOPE  C21421080   1.502   1.114   7.867 -0.3951 -0.6015  0.4131
  184SOPE  H14R21081   1.471   1.191   7.794  1.2060 -0.1169  0.2046
  184SOPE  H14S21082   1.613   1.109   7.866 -0.1081  2.5207  2.6433
  184SOPE  C21521083   1.471   1.153   8.019  0.2577 -0.9023 -0.2848
  184SOPE  H15R21084   1.530   1.246   8.036  0.4537 -1.4864  2.9299
  184SOPE  H15S21085   1.517   1.081   8.091  1.8480  0.0172 -0.3283
  184SOPE  C21621086   1.324   1.186   8.032 -0.2889  0.2083 -0.3555
  184SOPE  H16R21087   1.271   1.090   8.010 -0.1206 -0.0679  0.4034
  184SOPE  H16S21088   1.286   1.255   7.953 -0.2889 -2.1896 -2.6011
  184SOPE  C21721089   1.270   1.244   8.168 -0.2277  0.2423 -0.1316
  184SOPE  H17R21090   1.161   1.264   8.162 -0.2017  0.4153 -0.0403
  184SOPE  H17S21091   1.316   1.344   8.184  0.4298  0.0549 -0.7696
  184SOPE  C21821092   1.294   1.156   8.296  0.8475  0.0592  0.3761
  184SOPE  H18R21093   1.238   1.061   8.287 -2.0893  1.8077 -1.0712
  184SOPE  H18S21094   1.249   1.218   8.376  0.7358  0.9898 -0.3767
  184SOPE  H18T21095   1.404   1.154   8.313  0.7835  0.9393  0.9565
  184SOPE   C3321096   1.656  -0.241   7.207 -0.2179  0.2344  0.4050
  184SOPE   H3X21097   1.690  -0.137   7.191  2.0765 -0.1555  2.1509
  184SOPE   H3Y21098   1.747  -0.302   7.226  0.4466  0.5607 -1.5586
  184SOPE   C3421099   1.550  -0.251   7.321  0.2315 -0.7930  0.6668
  184SOPE   H4X21100   1.466  -0.313   7.283 -1.6358  2.2621 -0.5642
  184SOPE   H4Y21101   1.502  -0.151   7.329 -2.0336 -1.7978  0.2794
  184SOPE   C3521102   1.607  -0.284   7.455 -0.2138  0.0716 -0.0281
  184SOPE   H5X21103   1.695  -0.221   7.480  0.5727 -0.9589 -0.1666
  184SOPE   H5Y21104   1.633  -0.391   7.452  1.4505  0.2709  3.2201
  184SOPE   C3621105   1.507  -0.274   7.565 -0.1779  0.5890 -0.2068
  184SOPE   H6X21106   1.415  -0.330   7.536  0.2327  0.0168 -0.4182
  184SOPE   H6Y21107   1.477  -0.167   7.564 -1.1190  0.3339 -0.8413
  184SOPE   C3721108   1.557  -0.314   7.708  0.7726  0.2042  0.2036
  184SOPE   H7X21109   1.647  -0.249   7.717 -0.5152  2.5327 -2.3780
  184SOPE   H7Y21110   1.585  -0.420   7.724 -2.0253 -0.7646 -0.7019
  184SOPE   C3821111   1.443  -0.278   7.807  0.2525  0.7964  0.1820
  184SOPE   H8X21112   1.355  -0.344   7.787  0.6492  0.3237 -0.0099
  184SOPE   H8Y21113   1.408  -0.174   7.790 -2.1439 -0.1484 -1.2779
  184SOPE   C3921114   1.471  -0.306   7.958  0.0327  0.5125 -0.2205
  184SOPE   H9X21115   1.534  -0.395   7.980 -1.1202  0.0763  1.4087
  184SOPE   H9Y21116   1.373  -0.324   8.006  0.0506  2.5114  0.6382
  184SOPE  C31021117   1.534  -0.193   8.033 -0.1185 -0.3235  0.0478
  184SOPE  H10X21118   1.463  -0.109   8.050  0.0720  0.1238 -1.2713
  184SOPE  H10Y21119   1.605  -0.155   7.957 -0.6315  0.3735 -0.0945
  184SOPE  C31121120   1.604  -0.236   8.164  0.0821 -0.0820  0.2606
  184SOPE  H11X21121   1.631  -0.142   8.218  1.3821 -0.4832  0.3395
  184SOPE  H11Y21122   1.701  -0.287   8.151  0.6229  0.7213  1.0004
  184SOPE  C31221123   1.503  -0.304   8.254  0.4334 -0.8967  0.0403
  184SOPE  H12X21124   1.491  -0.408   8.217  1.8155 -0.6852 -1.0893
  184SOPE  H12Y21125   1.410  -0.244   8.263  0.1357 -1.6192  2.7301
  184SOPE  C31321126   1.558  -0.327   8.394  0.0979 -0.5197  0.3133
  184SOPE  H13X21127   1.559  -0.235   8.457  1.6819 -0.1089 -0.2752
  184SOPE  H13Y21128   1.663  -0.362   8.396  0.8734  1.5661 -0.3137
  184SOPE  C31421129   1.474  -0.429   8.479 -0.8533 -0.9445 -0.3080
  184SOPE  H14X21130   1.439  -0.509   8.410 -2.1480 -0.6976  0.0444
  184SOPE  H14Y21131   1.382  -0.380   8.518 -1.6395 -0.9296 -2.0609
  184SOPE  C31521132   1.554  -0.484   8.595  1.0588  0.3580 -0.3379
  184SOPE  H15X21133   1.585  -0.400   8.661 -2.1962  0.2907  1.4553
  184SOPE  H15Y21134   1.641  -0.548   8.567  0.5682  0.3042 -1.8461
  184SOPE  C31621135   1.460  -0.576   8.682 -0.1160 -0.3459 -0.6963
  184SOPE  H16X21136   1.446  -0.672   8.629  1.1297 -1.0241  0.1298
  184SOPE  H16Y21137   1.359  -0.531   8.689 -0.8203 -1.9511 -0.0147
  184SOPE  C31721138   1.516  -0.596   8.822 -0.1556  0.2264  0.1682
  184SOPE  H17X21139   1.521  -0.495   8.868  1.4852  0.8955 -1.3383
  184SOPE  H17Y21140   1.620  -0.635   8.819 -1.1907 -2.7984  0.5929
  184SOPE  C31821141   1.433  -0.692   8.907 -0.4577 -0.4542 -0.2233
  184SOPE  H18X21142   1.326  -0.665   8.895 -0.7786 -0.3485  2.1910
  184SOPE  H18Y21143   1.456  -0.680   9.016 -0.3661 -1.7328 -0.0816
  184SOPE  H18Z21144   1.464  -0.796   8.881  1.3055 -0.4565  1.5574
  185SAPI   C1221145   4.822   3.585  10.944  0.7442 -0.1985  0.8722
  185SAPI    H221146   4.894   3.523  10.887 -1.9143 -1.4372 -1.3849
  185SAPI    O221147   4.809   3.706  10.872 -0.2693  0.2562  0.4361
  185SAPI   HO221148   4.792   3.691  10.779 -0.7092  2.3057  0.1298
  185SAPI   C1321149   4.692   3.509  10.940  0.1128 -0.0578 -0.4007
  185SAPI    H321150   4.704   3.413  10.995  0.7413 -0.3822 -1.0994
  185SAPI    O321151   4.664   3.462  10.804 -0.4488  0.2096  0.0352
  185SAPI   HO321152   4.638   3.370  10.807 -0.7499  0.3085  1.5386
  185SAPI   C1421153   4.578   3.588  11.000 -0.1242 -0.6292  0.4834
  185SAPI    H421154   4.555   3.672  10.930  0.3688  0.7988  1.9699
  185SAPI    O421155   4.458   3.509  10.987 -0.2133  0.0401  0.1792
  185SAPI   HO421156   4.390   3.552  10.935  0.9035  3.4668  1.3168
  185SAPI   C1521157   4.617   3.631  11.143 -0.3785 -0.0810  0.5878
  185SAPI    H521158   4.613   3.538  11.203 -0.8102 -0.6794 -0.3464
  185SAPI    O521159   4.518   3.718  11.198 -0.1294  0.2319  0.3349
  185SAPI   HO521160   4.514   3.805  11.156 -2.4543  0.1397  0.1958
  185SAPI   C1621161   4.749   3.705  11.151 -0.2643 -0.1068  0.6365
  185SAPI    H621162   4.735   3.800  11.094 -1.3424 -0.3747  0.4371
  185SAPI    O621163   4.779   3.736  11.286  0.5287 -0.1317  0.0063
  185SAPI   HO621164   4.857   3.791  11.285 -1.1073  2.3644 -0.7051
  185SAPI   C1121165   4.852   3.612  11.094  0.0956  0.3723  0.5994
  185SAPI    H121166   4.845   3.519  11.155 -0.8583  0.5987  0.8520
  185SAPI     P21167   5.123   3.575  11.094  0.2426  0.2346 -0.2041
  185SAPI   O1321168   5.082   3.433  11.102 -0.2268  0.6941 -0.1725
  185SAPI   O1421169   5.222   3.626  11.194  0.0325 -0.5069 -0.2933
  185SAPI   O1221170   4.984   3.674  11.097 -0.6383  0.2014 -0.7120
  185SAPI   O1121171   5.188   3.597  10.945  0.5715  0.7543 -0.3694
  185SAPI    C121172   5.217   3.719  10.881  0.0679  0.3660 -0.2545
  185SAPI    HA21173   5.175   3.809  10.930 -1.1878  0.7993 -2.0517
  185SAPI    HB21174   5.326   3.735  10.864 -0.1616  2.2122 -0.1104
  185SAPI    C221175   5.155   3.724  10.738 -0.2031 -0.8024 -0.5264
  185SAPI    HS21176   5.046   3.713  10.755 -0.1948 -0.4635 -0.2483
  185SAPI   O2121177   5.205   3.614  10.652 -0.7297 -0.4246 -0.1188
  185SAPI   C2121178   5.111   3.540  10.600  0.0563  0.0818 -0.0187
  185SAPI   O2221179   4.988   3.557  10.619  0.0183 -0.2521 -0.5475
  185SAPI   C2221180   5.172   3.427  10.521 -0.3273 -0.1938 -0.2834
  185SAPI   H2R21181   5.239   3.471  10.444  1.0467 -0.3707  0.7653
  185SAPI   H2S21182   5.252   3.386  10.586  1.2325  1.0101 -1.3634
  185SAPI    C321183   5.177   3.865  10.677  0.5856 -0.0097  0.5995
  185SAPI    HX21184   5.286   3.859  10.657  0.5307  0.3430  0.1657
  185SAPI    HY21185   5.155   3.945  10.751 -0.2794 -0.6499  1.0438
  185SAPI   O3121186   5.106   3.868  10.547 -0.0923  0.0839 -0.2225
  185SAPI   C3121187   4.980   3.912  10.559 -0.3018  0.7024  0.2292
  185SAPI   O3221188   4.916   3.932  10.665 -0.6113 -0.6210  0.2871
  185SAPI   C3221189   4.945   3.948  10.414 -0.3164  0.0467 -0.0177
  185SAPI   H2X21190   4.989   3.866  10.353 -1.1161 -1.4491  1.3593
  185SAPI   H2Y21191   4.998   4.041  10.383  0.7983 -0.3042  0.7657
  185SAPI   C2321192   5.075   3.315  10.463 -0.4525  0.0032  0.2930
  185SAPI   H3R21193   4.982   3.367  10.431  0.2112  2.6375  2.2204
  185SAPI   H3S21194   5.050   3.241  10.542  0.5574  0.7521  1.3366
  185SAPI   C2421195   5.134   3.238  10.340  0.1361  0.6852 -0.1328
  185SAPI   H4R21196   5.221   3.184  10.383 -0.5596 -0.0585  0.3639
  185SAPI   H4S21197   5.176   3.304  10.261 -2.9782  2.4100 -0.4935
  185SAPI   C2521198   5.029   3.144  10.291  1.1252 -0.3684  0.1850
  185SAPI   H5R21199   4.969   3.094  10.368  0.2363 -1.5067 -1.1978
  185SAPI   C2621200   5.009   3.107  10.161  0.6495  1.1070  0.2932
  185SAPI   H6R21201   4.921   3.044  10.142  0.3802  1.4819  0.2858
  185SAPI   C2721202   5.078   3.161  10.037 -0.0641  0.2275 -0.3439
  185SAPI   H7R21203   5.143   3.085   9.988  0.4736  1.2706 -1.2741
  185SAPI   H7S21204   5.151   3.237  10.070 -0.9642 -0.1636  2.9079
  185SAPI   C2821205   4.980   3.214   9.936  0.6250 -0.0106  0.0740
  185SAPI   H8R21206   4.875   3.197   9.964  0.9990  2.3594  3.5994
  185SAPI   C2921207   5.014   3.271   9.819 -0.2880  0.2514  0.4570
  185SAPI   H9R21208   4.935   3.297   9.747 -0.6538 -2.0100 -0.0176
  185SAPI  C21021209   5.149   3.299   9.769  0.1475 -0.4476 -0.0237
  185SAPI  H10R21210   5.217   3.308   9.856  0.2431  1.9288 -0.2735
  185SAPI  H10S21211   5.148   3.403   9.731 -1.7973  0.2215  1.6657
  185SAPI  C21121212   5.206   3.198   9.673  0.0343 -0.3201 -0.2865
  185SAPI  H11R21213   5.263   3.120   9.726 -0.7585  0.1410  1.3233
  185SAPI  C21221214   5.194   3.215   9.540 -0.1338 -0.2457 -0.5777
  185SAPI  H12R21215   5.239   3.142   9.471  1.2007 -0.6712  0.6928
  185SAPI  C21321216   5.120   3.328   9.468  0.4135  0.2975 -0.3757
  185SAPI  H13R21217   5.037   3.381   9.520 -0.2241 -2.1741  1.2915
  185SAPI  H13S21218   5.066   3.279   9.384  1.0511  1.1620 -1.3171
  185SAPI  C21421219   5.213   3.428   9.405 -0.2645 -0.4782  0.1462
  185SAPI  H14R21220   5.228   3.518   9.466 -1.4237 -0.7127  0.8027
  185SAPI  C21521221   5.255   3.428   9.279 -0.0660 -0.6171  0.1709
  185SAPI  H15R21222   5.317   3.513   9.247 -1.1883  0.3000  0.3389
  185SAPI  C21621223   5.232   3.330   9.169  0.1175  0.0641 -0.7012
  185SAPI  H16R21224   5.157   3.250   9.189 -0.6749  0.4965 -1.8085
  185SAPI  H16S21225   5.333   3.294   9.139  0.5391  0.0788  0.6654
  185SAPI  C21721226   5.169   3.420   9.063 -0.1209 -0.3905  0.0035
  185SAPI  H17R21227   5.256   3.482   9.033  2.9449 -2.3767  3.9217
  185SAPI  H17S21228   5.084   3.481   9.101  0.5361 -0.4364  1.6217
  185SAPI  C21821229   5.128   3.349   8.935 -0.5058  0.4942 -0.2333
  185SAPI  H18R21230   5.067   3.260   8.961  0.2620  0.5926  2.0816
  185SAPI  H18S21231   5.218   3.316   8.878 -1.5202 -2.3336 -0.3592
  185SAPI  C21921232   5.032   3.429   8.840  0.0237  0.3995  0.2578
  185SAPI  H19R21233   5.079   3.521   8.799  2.2188 -1.2151 -1.0480
  185SAPI  H19S21234   4.942   3.454   8.901 -1.0247 -1.5877 -0.4054
  185SAPI  C22021235   4.973   3.350   8.723  0.3229 -1.0330  0.0698
  185SAPI  H20R21236   4.935   3.430   8.656 -0.5304 -0.0546  1.6554
  185SAPI  H20S21237   4.894   3.280   8.757 -1.3193 -0.2363 -1.8860
  185SAPI  H20T21238   5.055   3.299   8.667 -0.0030 -1.3239 -0.1483
  185SAPI   C3321239   4.794   3.947  10.377 -0.5587  0.0648 -0.4237
  185SAPI   H3X21240   4.730   4.008  10.445 -1.1924  0.0075 -0.9579
  185SAPI   H3Y21241   4.746   3.847  10.387  3.2383 -1.8663 -0.0365
  185SAPI   C3421242   4.772   3.996  10.235  0.1975 -0.2608 -0.0608
  185SAPI   H4X21243   4.848   3.945  10.173  0.1978 -0.7213  0.3132
  185SAPI   H4Y21244   4.791   4.105  10.231  0.9065 -0.3074  1.5234
  185SAPI   C3521245   4.637   3.956  10.166 -0.2736  0.0432 -0.4814
  185SAPI   H5X21246   4.564   4.010  10.231  0.1568  0.3692 -0.2627
  185SAPI   H5Y21247   4.627   3.845  10.163  0.0956 -0.0400  0.6471
  185SAPI   C3621248   4.636   4.004  10.021  0.6316 -0.2614  0.1326
  185SAPI   H6X21249   4.704   3.933   9.969  1.2516  1.3192 -1.3283
  185SAPI   H6Y21250   4.690   4.099  10.000  0.6278 -0.5215 -1.0946
  185SAPI   C3721251   4.492   3.981   9.960 -0.2120  0.2335  0.5587
  185SAPI   H7X21252   4.424   4.055  10.007 -0.5426  0.3250 -0.0559
  185SAPI   H7Y21253   4.454   3.880   9.986  1.6072 -0.8433 -0.6831
  185SAPI   C3821254   4.472   4.012   9.814 -0.3241  0.2275 -0.5414
  185SAPI   H8X21255   4.521   4.111   9.800  2.0556 -0.7469  0.3024
  185SAPI   H8Y21256   4.368   4.030   9.781 -0.7297 -2.0346 -0.6152
  185SAPI   C3921257   4.533   3.913   9.718 -0.5519 -0.6999  0.6890
  185SAPI   H9X21258   4.481   3.816   9.734 -4.7294  0.5698 -3.1278
  185SAPI   H9Y21259   4.644   3.915   9.725 -0.5883 -0.5259  1.3322
  185SAPI  C31021260   4.506   3.937   9.569  0.5154 -0.0436 -0.5341
  185SAPI  H10X21261   4.411   3.888   9.540  0.4536  0.5226 -1.3217
  185SAPI  H10Y21262   4.588   3.878   9.522 -0.5842 -2.5593  0.5456
  185SAPI  C31121263   4.504   4.078   9.520  0.2482 -0.1255  0.0631
  185SAPI  H11X21264   4.606   4.121   9.512  0.4288 -0.5575  0.0559
  185SAPI  H11Y21265   4.442   4.136   9.592  1.4576 -1.3159  2.1784
  185SAPI  C31221266   4.452   4.085   9.374 -0.2988 -0.6574  0.4347
  185SAPI  H12X21267   4.504   4.007   9.315  2.7130  2.8462 -1.9731
  185SAPI  H12Y21268   4.493   4.173   9.319 -0.0669 -1.3644 -0.5624
  185SAPI  C31321269   4.301   4.070   9.356 -0.2972  0.3276  0.5026
  185SAPI  H13X21270   4.257   4.157   9.409  0.3550  1.2508 -0.4267
  185SAPI  H13Y21271   4.274   3.977   9.412 -1.1619 -2.0113 -3.4348
  185SAPI  C31421272   4.249   4.058   9.217  0.0551 -0.0919  0.6217
  185SAPI  H14X21273   4.138   4.052   9.219  0.1054 -1.0071  1.1259
  185SAPI  H14Y21274   4.293   3.964   9.178  0.3715 -0.0769  0.9361
  185SAPI  C31521275   4.303   4.181   9.128  0.1250  0.5543  0.0899
  185SAPI  H15X21276   4.411   4.166   9.109 -0.3435 -1.6031 -1.1684
  185SAPI  H15Y21277   4.285   4.270   9.192 -2.5732  0.2001 -0.0445
  185SAPI  C31621278   4.221   4.196   9.001 -0.3206 -0.0144  0.2261
  185SAPI  H16X21279   4.253   4.286   8.945 -1.2381  0.0223 -0.2577
  185SAPI  H16Y21280   4.116   4.210   9.033 -0.4725  1.1877 -0.7626
  185SAPI  C31721281   4.233   4.070   8.910  0.5912  0.4042  0.5622
  185SAPI  H17X21282   4.159   4.070   8.827 -2.3340 -0.4363  2.9566
  185SAPI  H17Y21283   4.202   3.979   8.966 -1.8877  0.9006  0.1360
  185SAPI  C31821284   4.376   4.039   8.856  0.2857  0.0150  0.5921
  185SAPI  H18X21285   4.430   4.038   8.953  0.3463  0.9930  0.5840
  185SAPI  H18Y21286   4.419   4.118   8.790  0.2487 -1.8743 -1.8242
  185SAPI  H18Z21287   4.369   3.941   8.805 -0.2059  1.1142 -1.5740
  186SAPI   C1221288   4.852   2.137  10.897 -0.1423  0.5424 -0.1605
  186SAPI    H221289   4.822   2.202  10.812  1.5988  0.5628 -0.8117
  186SAPI    O221290   4.821   2.226  11.007  0.2318  0.6519  0.2670
  186SAPI   HO221291   4.812   2.313  10.967  2.1632  0.3299 -1.0251
  186SAPI   C1321292   4.754   2.025  10.898  0.6575  0.1865 -0.1141
  186SAPI    H321293   4.765   1.958  10.810  0.9691  0.6641 -0.4439
  186SAPI    O321294   4.619   2.070  10.899 -0.5629  0.1349 -0.1724
  186SAPI   HO321295   4.618   2.116  10.983  0.3137  1.7605 -1.0236
  186SAPI   C1421296   4.791   1.925  11.012 -0.2933 -0.5933 -0.2001
  186SAPI    H421297   4.772   1.978  11.107  0.3352 -0.4022 -0.1732
  186SAPI    O421298   4.721   1.800  11.015 -0.2550  0.5392  0.0881
  186SAPI   HO421299   4.641   1.812  11.069  0.7060  0.2569  1.6484
  186SAPI   C1521300   4.945   1.896  11.002 -0.1015  0.4143 -0.7118
  186SAPI    H521301   4.940   1.841  10.905 -0.7374 -2.9118  1.0511
  186SAPI    O521302   4.982   1.812  11.110  0.6016 -0.2371 -0.0995
  186SAPI   HO521303   4.944   1.854  11.188  0.5372 -0.5780  0.0551
  186SAPI   C1621304   5.042   2.007  10.995  0.4211 -0.3806 -0.2198
  186SAPI    H621305   5.049   2.064  11.090 -1.5669 -0.1341 -0.1813
  186SAPI    O621306   5.178   1.966  10.970 -0.4818  0.3525  0.3108
  186SAPI   HO621307   5.162   1.906  10.896  0.7906  1.8540 -1.2681
  186SAPI   C1121308   4.999   2.100  10.892  0.4853 -0.3918 -0.0202
  186SAPI    H121309   5.007   2.034  10.802 -1.9833 -0.5553 -0.1708
  186SAPI     P21310   5.127   2.281  10.733  0.1022  0.3115  0.0068
  186SAPI   O1321311   5.132   2.426  10.747 -0.2619  0.0036  0.8352
  186SAPI   O1421312   5.038   2.216  10.640  0.4807 -0.7355  0.3495
  186SAPI   O1221313   5.080   2.217  10.885  0.4152 -0.3854 -0.2222
  186SAPI   O1121314   5.266   2.216  10.718 -0.0191 -0.2193  0.3121
  186SAPI    C121315   5.279   2.088  10.664  0.5745 -0.2537 -0.4455
  186SAPI    HA21316   5.363   2.037  10.715  2.2229  1.4812 -1.3114
  186SAPI    HB21317   5.188   2.024  10.665  0.6686 -0.3928 -0.5990
  186SAPI    C221318   5.318   2.108  10.521 -0.2140  0.2416  0.4686
  186SAPI    HS21319   5.225   2.130  10.465 -0.2830 -1.1959 -0.0266
  186SAPI   O2121320   5.376   1.983  10.475 -0.0264 -0.2756 -0.7535
  186SAPI   C2121321   5.304   1.895  10.420  0.4253  0.3632 -0.5473
  186SAPI   O2221322   5.180   1.898  10.403  0.2520 -0.1091 -0.1453
  186SAPI   C2221323   5.401   1.782  10.366  0.1923  0.0226  0.5127
  186SAPI   H2R21324   5.496   1.830  10.335  0.1529  0.7062  1.3954
  186SAPI   H2S21325   5.420   1.707  10.446 -1.1460  0.4227  1.2481
  186SAPI    C321326   5.429   2.213  10.496  0.0370 -0.3282  0.5378
  186SAPI    HX21327   5.522   2.173  10.543  0.2517  0.7689  1.0800
  186SAPI    HY21328   5.407   2.309  10.548  0.6030  0.5546 -0.7974
  186SAPI   O3121329   5.464   2.235  10.359 -0.3599 -0.1444 -0.3500
  186SAPI   C3121330   5.385   2.309  10.280 -0.6347  0.1053 -0.2255
  186SAPI   O3221331   5.286   2.373  10.316 -0.1242  0.0963 -0.5990
  186SAPI   C3221332   5.458   2.315  10.144 -0.1283 -0.1736 -0.8412
  186SAPI   H2X21333   5.562   2.275  10.146  0.2676  0.8752  0.6965
  186SAPI   H2Y21334   5.476   2.423  10.129  0.7379  0.0030  1.2580
  186SAPI   C2321335   5.331   1.714  10.249  0.1222  0.5426  0.0458
  186SAPI   H3R21336   5.229   1.686  10.282  0.5934 -0.1721  0.9187
  186SAPI   H3S21337   5.385   1.618  10.234 -2.0033 -0.9707  1.4075
  186SAPI   C2421338   5.330   1.805  10.120 -0.8290  0.1300  0.4454
  186SAPI   H4R21339   5.431   1.825  10.080 -0.4748  0.0757  1.3035
  186SAPI   H4S21340   5.285   1.904  10.142  2.2477  1.4352  1.3780
  186SAPI   C2521341   5.241   1.737  10.012  0.0407 -0.2239  0.3090
  186SAPI   H5R21342   5.139   1.705  10.039 -0.5038  0.0868 -1.2703
  186SAPI   C2621343   5.276   1.703   9.888 -0.1866 -0.3272  0.3662
  186SAPI   H6R21344   5.213   1.657   9.811  0.2737 -0.2992 -0.0305
  186SAPI   C2721345   5.414   1.735   9.827  0.1992  0.3385  0.0244
  186SAPI   H7R21346   5.433   1.651   9.757 -0.5151  0.7728 -0.7079
  186SAPI   H7S21347   5.497   1.728   9.900  0.3169  2.8677  0.2191
  186SAPI   C2821348   5.403   1.860   9.751 -0.8138 -0.5583 -0.5705
  186SAPI   H8R21349   5.382   1.954   9.804 -1.1258 -0.6707 -0.4883
  186SAPI   C2921350   5.432   1.873   9.622 -0.1709  0.7741 -0.0209
  186SAPI   H9R21351   5.418   1.975   9.584  0.8639  0.2639 -1.8976
  186SAPI  C21021352   5.474   1.782   9.503 -0.8732 -0.8197 -0.6121
  186SAPI  H10R21353   5.405   1.791   9.416 -1.7115 -2.1324 -0.1106
  186SAPI  H10S21354   5.487   1.675   9.531  1.6070 -0.4124  0.0725
  186SAPI  C21121355   5.614   1.822   9.451  0.3856 -0.8811 -0.3888
  186SAPI  H11R21356   5.698   1.776   9.504 -0.9396 -0.6419  2.0881
  186SAPI  C21221357   5.634   1.902   9.345 -0.5117  0.1763  0.3952
  186SAPI  H12R21358   5.738   1.928   9.320 -0.4994 -0.4093 -0.2251
  186SAPI  C21321359   5.538   1.976   9.259 -0.1549  0.4916 -0.1548
  186SAPI  H13R21360   5.561   2.084   9.272  0.7621  0.1858  0.8994
  186SAPI  H13S21361   5.431   1.974   9.291 -0.6027  2.7385 -1.3206
  186SAPI  C21421362   5.539   1.936   9.117  0.2251 -0.0924 -0.1797
  186SAPI  H14R21363   5.530   1.826   9.112  1.1721 -0.1422 -1.0171
  186SAPI  C21521364   5.577   2.000   9.007  0.5833 -0.2978  0.7313
  186SAPI  H15R21365   5.589   1.945   8.913  1.0893  2.0002 -0.6291
  186SAPI  C21621366   5.615   2.147   8.999  0.8701 -0.4914 -0.2748
  186SAPI  H16R21367   5.712   2.161   8.947  1.5435 -2.7735  0.2405
  186SAPI  H16S21368   5.613   2.202   9.095 -3.2356  1.1323 -1.0748
  186SAPI  C21721369   5.515   2.226   8.909  0.4688  0.3800  0.1833
  186SAPI  H17R21370   5.552   2.330   8.898 -1.6316  1.2865  1.1778
  186SAPI  H17S21371   5.411   2.213   8.945  0.6623  2.8432  1.8807
  186SAPI  C21821372   5.505   2.174   8.764 -0.0369 -0.2719 -0.6770
  186SAPI  H18R21373   5.481   2.067   8.748  0.1296 -0.6567  1.3485
  186SAPI  H18S21374   5.605   2.194   8.718  0.7463 -1.1952  0.5398
  186SAPI  C21921375   5.400   2.254   8.683 -0.4693 -0.2408  0.1034
  186SAPI  H19R21376   5.433   2.359   8.699  1.5732 -1.1806  2.6947
  186SAPI  H19S21377   5.297   2.245   8.722  1.0568  0.7713  5.0962
  186SAPI  C22021378   5.414   2.233   8.532 -0.1422 -0.8305  0.1106
  186SAPI  H20R21379   5.354   2.149   8.491  1.5343 -2.3215  0.5819
  186SAPI  H20S21380   5.515   2.190   8.515 -0.1354 -2.0720  2.8657
  186SAPI  H20T21381   5.416   2.326   8.471  1.8235 -1.1236 -0.3463
  186SAPI   C3321382   5.385   2.253  10.024 -0.6245  0.3493  0.3433
  186SAPI   H3X21383   5.275   2.264  10.028 -0.8463 -1.2331 -0.4813
  186SAPI   H3Y21384   5.402   2.143  10.025  3.6305  0.8419  0.2784
  186SAPI   C3421385   5.435   2.306   9.888  1.0134 -0.1527  0.7190
  186SAPI   H4X21386   5.533   2.254   9.877 -0.3232 -2.8412  0.7611
  186SAPI   H4Y21387   5.441   2.417   9.890  5.4516 -0.1317 -1.3632
  186SAPI   C3521388   5.338   2.278   9.761  1.0230 -0.6969 -0.4115
  186SAPI   H5X21389   5.244   2.335   9.778  0.8101 -1.0522 -0.3736
  186SAPI   H5Y21390   5.312   2.170   9.758 -0.1972 -0.4559  0.4550
  186SAPI   C3621391   5.401   2.332   9.635 -0.3658  0.2672  0.1566
  186SAPI   H6X21392   5.488   2.270   9.607 -0.5212 -0.6037  1.5068
  186SAPI   H6Y21393   5.443   2.434   9.650 -0.3116  0.1563  0.7730
  186SAPI   C3721394   5.306   2.319   9.510 -0.1359 -0.3431 -0.3733
  186SAPI   H7X21395   5.238   2.407   9.518  1.2156  0.6021  1.1804
  186SAPI   H7Y21396   5.250   2.223   9.505 -0.9137 -0.1239  2.3345
  186SAPI   C3821397   5.385   2.341   9.375  0.6827 -0.6173 -0.1304
  186SAPI   H8X21398   5.465   2.265   9.385  2.3652  1.2513  1.7534
  186SAPI   H8Y21399   5.438   2.438   9.390 -0.9627  0.3163 -0.1316
  186SAPI   C3921400   5.313   2.323   9.240 -0.1023  0.0745  0.4972
  186SAPI   H9X21401   5.272   2.221   9.230  0.0304  0.1446 -0.9999
  186SAPI   H9Y21402   5.383   2.343   9.157 -1.0590 -1.6158 -0.7740
  186SAPI  C31021403   5.185   2.404   9.223  0.3948 -0.4636  0.2654
  186SAPI  H10X21404   5.219   2.510   9.226  1.3739 -0.6648 -1.6555
  186SAPI  H10Y21405   5.119   2.391   9.311  1.7919  3.5312  2.1320
  186SAPI  C31121406   5.122   2.377   9.088  0.3439 -0.2891 -0.1808
  186SAPI  H11X21407   5.072   2.280   9.108 -0.7707  0.3890  0.4898
  186SAPI  H11Y21408   5.201   2.356   9.014 -0.0265 -1.8605 -0.1601
  186SAPI  C31221409   5.033   2.493   9.030 -0.1662 -0.4476  0.2120
  186SAPI  H12X21410   5.103   2.574   9.001 -0.0662  0.1197  1.9253
  186SAPI  H12Y21411   4.975   2.519   9.122  2.8695 -1.4278  2.5623
  186SAPI  C31321412   4.954   2.443   8.912  0.2429 -0.3452  0.8197
  186SAPI  H13X21413   4.901   2.533   8.876  0.6410 -0.3346  0.2320
  186SAPI  H13Y21414   4.875   2.370   8.940  0.3642 -0.7693  0.1004
  186SAPI  C31421415   5.033   2.405   8.787 -0.2376  0.1146 -0.2160
  186SAPI  H14X21416   5.094   2.321   8.827 -0.2029  0.4502  0.4475
  186SAPI  H14Y21417   5.093   2.490   8.746 -0.0051  0.0849  0.0580
  186SAPI  C31521418   4.941   2.344   8.678 -0.7330 -0.1786 -0.7331
  186SAPI  H15X21419   4.856   2.414   8.662 -0.8451 -0.2402 -0.4152
  186SAPI  H15Y21420   4.899   2.248   8.715 -0.1906 -0.6504 -1.3242
  186SAPI  C31621421   5.012   2.306   8.550 -0.2887  0.2825 -0.1328
  186SAPI  H16X21422   5.105   2.252   8.577  0.2258 -0.3593 -2.8661
  186SAPI  H16Y21423   5.044   2.390   8.485  1.1906 -0.7362 -0.7634
  186SAPI  C31721424   4.920   2.215   8.465 -0.4266  0.0156  0.3178
  186SAPI  H17X21425   4.831   2.278   8.441 -0.2385  0.6607  1.2577
  186SAPI  H17Y21426   4.886   2.131   8.528  0.7397 -0.8307 -0.1579
  186SAPI  C31821427   4.991   2.164   8.343 -0.2724 -0.1815 -0.2609
  186SAPI  H18X21428   5.037   2.250   8.290  1.0818 -1.7334 -1.7541
  186SAPI  H18Y21429   4.915   2.119   8.275  0.9032  0.0229 -1.7561
  186SAPI  H18Z21430   5.077   2.100   8.370 -0.1471 -0.2956 -0.9083
  187SAPI   C1221431   1.221   3.720   5.996 -0.9112  0.2958 -0.7662
  187SAPI    H221432   1.227   3.609   6.003 -1.3863  0.3867  1.6657
  187SAPI    O221433   1.331   3.747   5.907 -0.1932 -0.3012 -0.0738
  187SAPI   HO221434   1.344   3.663   5.863 -2.3421  0.2479 -1.9479
  187SAPI   C1321435   1.084   3.765   5.950 -0.7559 -0.0078  0.3902
  187SAPI    H321436   1.005   3.728   6.018 -1.7751  3.5317  1.3023
  187SAPI    O321437   1.046   3.704   5.819  0.0580  0.9006  1.0679
  187SAPI   HO321438   1.114   3.728   5.755  1.0235 -2.0270  0.8520
  187SAPI   C1421439   1.086   3.918   5.952 -0.4291 -0.0666  0.8741
  187SAPI    H421440   1.168   3.959   5.890 -0.3823 -1.1077  0.2055
  187SAPI    O421441   0.964   3.966   5.902 -0.2795  0.2275 -0.1441
  187SAPI   HO421442   0.990   4.056   5.879  3.4611 -0.8190 -0.7464
  187SAPI   C1521443   1.121   3.970   6.089  0.3050 -0.1589  0.4604
  187SAPI    H521444   1.041   3.921   6.150 -0.5623 -0.8206 -1.1478
  187SAPI    O521445   1.103   4.114   6.109  0.5968 -0.3319  0.3811
  187SAPI   HO521446   1.053   4.127   6.190 -1.5994  0.6687 -1.0302
  187SAPI   C1621447   1.254   3.914   6.140 -0.0623  0.4024  0.2576
  187SAPI    H621448   1.333   3.963   6.080 -0.2282  1.0053  0.5291
  187SAPI    O621449   1.277   3.961   6.274 -0.1559 -0.4029 -0.2892
  187SAPI   HO621450   1.258   3.886   6.331 -0.4338 -1.5747 -1.8521
  187SAPI   C1121451   1.254   3.765   6.137 -0.1447  0.5325 -0.1881
  187SAPI    H121452   1.174   3.726   6.204  0.4560 -0.0543  0.2038
  187SAPI     P21453   1.393   3.646   6.340  0.2614 -0.0418 -0.2533
  187SAPI   O1321454   1.292   3.709   6.426  0.8788 -0.7534  0.3267
  187SAPI   O1421455   1.534   3.669   6.381 -0.6234  0.4277  0.0225
  187SAPI   O1221456   1.371   3.702   6.191  0.2768 -0.3763  0.4673
  187SAPI   O1121457   1.375   3.497   6.312 -0.3341  0.3063 -0.5038
  187SAPI    C121458   1.298   3.418   6.401  0.1687  0.3299 -0.2969
  187SAPI    HA21459   1.207   3.472   6.435 -1.3067 -0.3782 -2.8790
  187SAPI    HB21460   1.271   3.319   6.359 -0.9207 -0.2290  1.5795
  187SAPI    C221461   1.391   3.370   6.519  0.0207 -0.3001 -0.3300
  187SAPI    HS21462   1.349   3.283   6.574 -1.3171 -0.7059 -1.9126
  187SAPI   O2121463   1.407   3.481   6.615 -0.2589  0.6555 -0.1042
  187SAPI   C2121464   1.301   3.480   6.699 -0.0426 -0.5092 -0.1163
  187SAPI   O2221465   1.217   3.393   6.708 -0.5682  0.2251  0.1826
  187SAPI   C2221466   1.285   3.609   6.779  0.4021  0.7992 -0.0118
  187SAPI   H2R21467   1.380   3.624   6.833  2.9720 -2.2508 -3.2425
  187SAPI   H2S21468   1.270   3.682   6.696 -3.3131  0.8542  0.5457
  187SAPI    C321469   1.529   3.324   6.467  0.2738  0.1857  0.0720
  187SAPI    HX21470   1.583   3.409   6.421  0.9372  0.3901  1.1862
  187SAPI    HY21471   1.506   3.256   6.382 -1.1467 -0.3876  0.8748
  187SAPI   O3121472   1.601   3.251   6.568 -0.1934 -0.2791  0.1514
  187SAPI   C3121473   1.706   3.186   6.519 -0.2500 -0.4914  0.0098
  187SAPI   O3221474   1.752   3.191   6.407 -0.3645 -0.1810  0.2070
  187SAPI   C3221475   1.764   3.111   6.640 -0.4908 -0.3166 -0.5819
  187SAPI   H2X21476   1.789   3.186   6.717 -1.7963  1.6818 -1.9964
  187SAPI   H2Y21477   1.857   3.058   6.611 -1.8062 -4.4642  1.8150
  187SAPI   C2321478   1.157   3.628   6.862  0.3308  0.0040  0.1182
  187SAPI   H3R21479   1.074   3.579   6.807 -1.3084  2.2895  0.3978
  187SAPI   H3S21480   1.127   3.735   6.857  0.0501 -0.0252  0.9664
  187SAPI   C2421481   1.162   3.600   7.013 -0.6955  0.2524 -0.9496
  187SAPI   H4R21482   1.056   3.592   7.043 -0.3379  0.2510  0.3570
  187SAPI   H4S21483   1.207   3.689   7.061 -0.1206 -0.9304  0.7940
  187SAPI   C2521484   1.239   3.474   7.048 -0.2268  0.5938 -0.2641
  187SAPI   H5R21485   1.214   3.393   6.978 -1.6659  1.0037 -0.2511
  187SAPI   C2621486   1.322   3.454   7.158  0.4237  0.3252  0.3759
  187SAPI   H6R21487   1.370   3.355   7.168  0.9438  0.5088 -0.2382
  187SAPI   C2721488   1.349   3.547   7.276 -0.6387 -0.4057  0.3179
  187SAPI   H7R21489   1.355   3.652   7.240 -0.9268  0.4219  2.5380
  187SAPI   H7S21490   1.451   3.531   7.318 -1.7952 -3.4196  2.3080
  187SAPI   C2821491   1.246   3.515   7.376  0.2496  0.1893  0.5071
  187SAPI   H8R21492   1.152   3.476   7.333  1.9988 -0.5895 -2.9855
  187SAPI   C2921493   1.251   3.520   7.515 -0.4889 -0.0826 -0.2858
  187SAPI   H9R21494   1.161   3.501   7.575  1.4053 -1.5187  2.3080
  187SAPI  C21021495   1.381   3.562   7.591 -0.3567  0.2693  0.9422
  187SAPI  H10R21496   1.376   3.666   7.631  0.4588  0.3612  0.8124
  187SAPI  H10S21497   1.463   3.571   7.517 -1.2415  1.0647  0.0187
  187SAPI  C21121498   1.418   3.473   7.710  0.8529 -0.3677  0.2910
  187SAPI  H11R21499   1.505   3.407   7.695  0.0896 -1.2457 -0.4429
  187SAPI  C21221500   1.355   3.481   7.823  0.0101  0.1421 -0.0398
  187SAPI  H12R21501   1.373   3.401   7.896 -0.0372  1.7659  1.8178
  187SAPI  C21321502   1.234   3.564   7.865 -0.2568  0.1162 -0.3266
  187SAPI  H13R21503   1.221   3.641   7.786 -0.0551 -1.5505 -2.0664
  187SAPI  H13S21504   1.255   3.621   7.958  0.7106 -2.3330  1.0486
  187SAPI  C21421505   1.103   3.494   7.880 -0.1287 -0.4512 -0.5322
  187SAPI  H14R21506   1.042   3.485   7.789 -1.0208 -0.9425  0.0981
  187SAPI  C21521507   1.061   3.423   7.984  0.5160  0.1412 -0.4100
  187SAPI  H15R21508   0.957   3.387   7.992 -0.3122  2.5967  1.2835
  187SAPI  C21621509   1.133   3.407   8.113  0.6101  0.2824 -0.3104
  187SAPI  H16R21510   1.241   3.430   8.110  1.2584 -2.0752  1.8236
  187SAPI  H16S21511   1.126   3.306   8.160  0.2124  1.3151  1.9739
  187SAPI  C21721512   1.074   3.511   8.214  0.0116  0.3694  0.3882
  187SAPI  H17R21513   0.965   3.489   8.221 -0.0983  0.9201  0.4489
  187SAPI  H17S21514   1.089   3.614   8.176  0.4408  0.7863  1.6234
  187SAPI  C21821515   1.130   3.510   8.351 -0.0405  0.1890 -0.5362
  187SAPI  H18R21516   1.175   3.411   8.374 -0.3443  0.5115  1.6498
  187SAPI  H18S21517   1.050   3.523   8.427  1.6721  0.5958  1.2849
  187SAPI  C21921518   1.237   3.618   8.358  0.2005  0.5389  0.5504
  187SAPI  H19R21519   1.196   3.721   8.346 -1.0658  0.3949  3.0437
  187SAPI  H19S21520   1.307   3.600   8.273 -1.3162  0.0543 -0.6431
  187SAPI  C22021521   1.318   3.598   8.486  0.1958  0.3081 -0.0472
  187SAPI  H20R21522   1.384   3.687   8.496  2.2130 -0.9683 -1.2753
  187SAPI  H20S21523   1.392   3.517   8.470  0.5536  0.4254  0.9766
  187SAPI  H20T21524   1.255   3.562   8.570  0.3426  0.4541  0.1254
  187SAPI   C3321525   1.674   2.991   6.685  0.6236 -0.3694 -0.3943
  187SAPI   H3X21526   1.743   2.903   6.694  0.1107 -0.5857  3.3129
  187SAPI   H3Y21527   1.609   2.960   6.601 -0.0190 -1.5678  0.5084
  187SAPI   C3421528   1.596   3.008   6.820  0.1594  0.3148  0.8727
  187SAPI   H4X21529   1.677   3.041   6.888  0.9798  2.2020 -0.9394
  187SAPI   H4Y21530   1.553   2.910   6.849 -1.5082  1.1463  1.3526
  187SAPI   C3521531   1.472   3.103   6.808 -0.2110 -0.0932 -0.5685
  187SAPI   H5X21532   1.407   3.052   6.733  0.0003 -1.0779 -0.1020
  187SAPI   H5Y21533   1.512   3.201   6.773 -1.7552  1.4837  1.7920
  187SAPI   C3621534   1.393   3.101   6.940  0.3228  0.1806  0.4588
  187SAPI   H6X21535   1.329   3.011   6.929 -1.5765  1.8411 -5.1432
  187SAPI   H6Y21536   1.329   3.192   6.940  0.5263  0.3230 -0.2639
  187SAPI   C3721537   1.476   3.086   7.064  0.0638 -0.0021  0.1973
  187SAPI   H7X21538   1.550   3.169   7.073  0.4378 -0.4393  1.5517
  187SAPI   H7Y21539   1.539   2.994   7.067 -0.9728 -0.8025  3.8642
  187SAPI   C3821540   1.398   3.077   7.199 -0.3827  0.3070 -0.6207
  187SAPI   H8X21541   1.345   2.980   7.186 -1.9814  0.9886  0.5717
  187SAPI   H8Y21542   1.323   3.159   7.208 -0.7005  0.0836 -1.1512
  187SAPI   C3921543   1.492   3.072   7.318 -0.4654 -0.6122  0.2750
  187SAPI   H9X21544   1.564   3.157   7.322 -1.1551 -0.0257  0.4875
  187SAPI   H9Y21545   1.555   2.981   7.315  1.3609  0.5008  2.4274
  187SAPI  C31021546   1.412   3.085   7.444  0.5292 -0.1077  0.5019
  187SAPI  H10X21547   1.360   2.988   7.453 -1.6723  0.8130 -1.4163
  187SAPI  H10Y21548   1.336   3.166   7.435 -1.3284 -1.9583 -1.5854
  187SAPI  C31121549   1.502   3.119   7.567 -0.1428  0.6548  0.4305
  187SAPI  H11X21550   1.547   3.219   7.549 -1.2598  0.8399 -1.6920
  187SAPI  H11Y21551   1.586   3.048   7.581  0.8825  1.8726  0.6187
  187SAPI  C31221552   1.417   3.109   7.696 -0.0434  0.3836 -0.4179
  187SAPI  H12X21553   1.374   3.007   7.694 -0.6291  0.4535  2.9322
  187SAPI  H12Y21554   1.332   3.180   7.691 -1.0922 -0.8657 -0.9822
  187SAPI  C31321555   1.491   3.138   7.833  0.4489 -0.0234  0.1373
  187SAPI  H13X21556   1.516   3.246   7.843 -0.5521  0.0360  2.6767
  187SAPI  H13Y21557   1.585   3.081   7.824  0.5983  0.4771 -2.5651
  187SAPI  C31421558   1.422   3.078   7.958 -0.1364 -0.5956 -0.3742
  187SAPI  H14X21559   1.435   2.968   7.958 -0.9736 -0.7051  0.0195
  187SAPI  H14Y21560   1.311   3.086   7.956 -0.3252 -2.0291  1.7344
  187SAPI  C31521561   1.467   3.135   8.094  0.6330 -0.5490  0.6067
  187SAPI  H15X21562   1.417   3.234   8.102  0.7161 -0.5238  0.8183
  187SAPI  H15Y21563   1.578   3.131   8.098  0.9961  4.6150  1.6579
  187SAPI  C31621564   1.407   3.038   8.204 -0.5429 -0.3366  0.1943
  187SAPI  H16X21565   1.479   2.953   8.209 -0.3195 -0.0605  2.5224
  187SAPI  H16Y21566   1.305   2.997   8.187 -0.3543 -1.0380  0.6972
  187SAPI  C31721567   1.422   3.103   8.346 -0.3009  0.8357  0.0254
  187SAPI  H17X21568   1.346   3.183   8.360 -0.5036  1.2066 -2.6449
  187SAPI  H17Y21569   1.523   3.148   8.341  0.6351 -1.1370  0.2819
  187SAPI  C31821570   1.413   3.006   8.466 -0.6413 -0.1445  0.1050
  187SAPI  H18X21571   1.311   2.962   8.472 -1.1553  1.0348  0.2810
  187SAPI  H18Y21572   1.440   3.050   8.565  1.3391  1.5488 -1.1221
  187SAPI  H18Z21573   1.476   2.915   8.460 -1.5315 -1.0507  2.6694
  188SAPI   C1221574   4.286   0.581   6.387 -0.5981  0.1203  0.9526
  188SAPI    H221575   4.334   0.537   6.477  1.8521  1.2178  0.2674
  188SAPI    O221576   4.158   0.527   6.373  1.0440 -0.0076  0.6874
  188SAPI   HO221577   4.166   0.451   6.316 -1.8792 -0.1515  0.3203
  188SAPI   C1321578   4.290   0.732   6.415 -0.3519  1.0916  0.2594
  188SAPI    H321579   4.393   0.759   6.448  0.0006  2.1178 -1.5218
  188SAPI    O321580   4.200   0.761   6.518  0.6203 -0.5321 -0.1236
  188SAPI   HO321581   4.117   0.717   6.497  0.2436  0.1621 -0.1080
  188SAPI   C1421582   4.254   0.806   6.284  0.1928 -0.6858 -1.2009
  188SAPI    H421583   4.150   0.785   6.252 -1.2917  3.6249  0.1324
  188SAPI    O421584   4.263   0.954   6.305  0.0677  0.0157  0.0795
  188SAPI   HO421585   4.185   0.991   6.348 -1.3746 -1.5669 -1.0243
  188SAPI   C1521586   4.339   0.772   6.158 -0.0326  0.9007  0.2634
  188SAPI    H521587   4.446   0.798   6.174  0.3676 -0.8613  0.7736
  188SAPI    O521588   4.299   0.847   6.050 -0.0457  0.4311 -0.0332
  188SAPI   HO521589   4.321   0.938   6.070 -1.1325  1.2227 -2.1011
  188SAPI   C1621590   4.328   0.620   6.140 -0.3070  0.2315 -0.0841
  188SAPI    H621591   4.222   0.588   6.130 -0.8139  1.5070  0.8612
  188SAPI    O621592   4.410   0.570   6.033  0.2696  0.2457  0.5242
  188SAPI   HO621593   4.445   0.493   6.078  0.6223  0.9518  1.5181
  188SAPI   C1121594   4.379   0.547   6.269  0.0400 -0.4715 -0.4891
  188SAPI    H121595   4.481   0.582   6.295 -0.4998  0.1650  0.8754
  188SAPI     P21596   4.463   0.299   6.350  0.0521 -0.0622 -0.1675
  188SAPI   O1321597   4.592   0.367   6.377  0.2285 -0.0906 -0.3229
  188SAPI   O1421598   4.465   0.163   6.292  0.2205  0.2273 -0.1659
  188SAPI   O1221599   4.372   0.401   6.250 -0.3823 -0.1610  0.1049
  188SAPI   O1121600   4.391   0.287   6.484  0.5700 -0.4567  0.5841
  188SAPI    C121601   4.281   0.194   6.514 -1.0121  0.2760  0.3882
  188SAPI    HA21602   4.189   0.239   6.469 -0.9130 -1.2966 -1.5677
  188SAPI    HB21603   4.307   0.098   6.464  4.6610  2.9638 -2.7582
  188SAPI    C221604   4.245   0.181   6.663 -0.4860  0.5511 -0.2663
  188SAPI    HS21605   4.144   0.135   6.661  0.4400 -1.5719 -0.7887
  188SAPI   O2121606   4.250   0.305   6.732  0.1606  0.0619  0.0419
  188SAPI   C2121607   4.146   0.383   6.717 -0.3512 -0.1739  0.5212
  188SAPI   O2221608   4.047   0.366   6.645  0.1149  0.1024  0.0780
  188SAPI   C2221609   4.173   0.509   6.801 -0.6372 -0.1972  0.4036
  188SAPI   H2R21610   4.212   0.485   6.902  0.4305  0.6913  0.2138
  188SAPI   H2S21611   4.257   0.566   6.757 -1.1328  0.1328 -0.1363
  188SAPI    C321612   4.341   0.081   6.724 -0.2373  0.3509 -0.0612
  188SAPI    HX21613   4.310   0.057   6.828 -0.0164 -2.0516 -0.4825
  188SAPI    HY21614   4.445   0.120   6.727  0.7713 -2.1421  0.6537
  188SAPI   O3121615   4.346  -0.041   6.651  0.1316  0.3062 -0.4725
  188SAPI   C3121616   4.429  -0.133   6.698 -0.1743 -0.7742 -0.1736
  188SAPI   O3221617   4.512  -0.115   6.787  0.0134 -0.8032 -0.5471
  188SAPI   C3221618   4.404  -0.266   6.627 -0.2162  0.3732  0.7624
  188SAPI   H2X21619   4.458  -0.353   6.670  0.9723  1.0280  0.6325
  188SAPI   H2Y21620   4.434  -0.252   6.521 -0.2054 -1.2091  0.5324
  188SAPI   C2321621   4.038   0.583   6.818  0.3415  0.3010  0.4445
  188SAPI   H3R21622   3.975   0.497   6.848  1.9201 -2.3834 -3.1497
  188SAPI   H3S21623   4.012   0.634   6.723  1.8673 -0.5485 -0.4762
  188SAPI   C2421624   4.035   0.699   6.926 -0.4251 -0.2438  0.0851
  188SAPI   H4R21625   4.104   0.781   6.895  0.3880 -0.4474  1.2982
  188SAPI   H4S21626   4.073   0.650   7.018 -2.2314 -0.7458  0.5995
  188SAPI   C2521627   3.894   0.748   6.949  0.4358  0.6877  0.2753
  188SAPI   H5R21628   3.845   0.782   6.856 -0.6985  0.6922  0.8581
  188SAPI   C2621629   3.805   0.725   7.045  0.5029  1.1341  0.0638
  188SAPI   H6R21630   3.706   0.768   7.028 -0.6076 -1.8436 -1.7304
  188SAPI   C2721631   3.827   0.657   7.178  0.1223 -0.1894  0.2149
  188SAPI   H7R21632   3.935   0.636   7.197 -0.1895 -1.8800  0.2165
  188SAPI   H7S21633   3.777   0.558   7.182 -0.2933  0.0371  0.8597
  188SAPI   C2821634   3.761   0.730   7.300 -0.3702 -0.0816  0.0558
  188SAPI   H8R21635   3.654   0.755   7.291 -0.7948 -0.3236  3.2454
  188SAPI   C2921636   3.815   0.738   7.424 -0.5063  0.6296  0.5779
  188SAPI   H9R21637   3.748   0.769   7.505 -1.1601 -1.3159  0.8452
  188SAPI  C21021638   3.950   0.687   7.481  0.6240  0.0849 -0.1471
  188SAPI  H10R21639   4.011   0.654   7.394 -0.5060 -0.2603 -0.8282
  188SAPI  H10S21640   3.921   0.586   7.518 -0.7243 -1.2656 -4.2576
  188SAPI  C21121641   4.029   0.777   7.574  0.1378 -0.2768  0.1096
  188SAPI  H11R21642   4.128   0.807   7.535 -0.4306  0.1695 -1.0190
  188SAPI  C21221643   3.995   0.798   7.706  0.2320  0.6398 -0.3372
  188SAPI  H12R21644   4.068   0.849   7.771 -0.6706  1.7090 -0.1382
  188SAPI  C21321645   3.867   0.749   7.771  0.5050 -0.1326  0.0413
  188SAPI  H13R21646   3.817   0.672   7.708 -2.4391  0.4855  1.4320
  188SAPI  H13S21647   3.787   0.825   7.782 -0.8402 -1.0936 -2.3957
  188SAPI  C21421648   3.902   0.675   7.895  0.0870 -0.5096 -0.3242
  188SAPI  H14R21649   3.990   0.609   7.889  0.6888  0.0744  1.5353
  188SAPI  C21521650   3.814   0.660   8.003 -0.0643  0.5809 -0.2202
  188SAPI  H15R21651   3.861   0.610   8.089  0.3009 -0.5054 -1.0254
  188SAPI  C21621652   3.685   0.733   8.034 -0.0161  0.5513  0.4236
  188SAPI  H16R21653   3.599   0.671   8.002 -0.7124  0.9561  1.4341
  188SAPI  H16S21654   3.689   0.829   7.977 -3.4533 -0.2808 -1.4662
  188SAPI  C21721655   3.671   0.758   8.186 -0.3373 -0.4099 -1.0035
  188SAPI  H17R21656   3.751   0.826   8.223 -1.6486 -0.7257  2.8175
  188SAPI  H17S21657   3.677   0.663   8.243 -0.5347  0.1268 -0.0605
  188SAPI  C21821658   3.536   0.826   8.229 -0.0961 -0.1265  0.1724
  188SAPI  H18R21659   3.454   0.766   8.185  0.1479 -0.6493  0.4325
  188SAPI  H18S21660   3.532   0.925   8.178  2.7368  0.6773  1.2980
  188SAPI  C21921661   3.522   0.847   8.381 -0.3571 -0.6425  0.1772
  188SAPI  H19R21662   3.620   0.884   8.417  0.9021 -2.1698 -1.4865
  188SAPI  H19S21663   3.504   0.747   8.426 -0.7004 -1.3211 -1.3947
  188SAPI  C22021664   3.413   0.942   8.428  1.0135  0.5639 -0.3915
  188SAPI  H20R21665   3.388   0.937   8.536 -2.4004  4.2388 -0.7835
  188SAPI  H20S21666   3.318   0.913   8.379 -0.6705  0.8428  2.5046
  188SAPI  H20T21667   3.435   1.046   8.393 -0.8189  1.5917  1.3097
  188SAPI   C3321668   4.254  -0.311   6.626  0.2260 -0.5479 -0.0032
  188SAPI   H3X21669   4.231  -0.392   6.553 -1.7238 -1.3958  1.4442
  188SAPI   H3Y21670   4.198  -0.220   6.599  2.2065  1.2614  1.6342
  188SAPI   C3421671   4.193  -0.355   6.755 -0.6590  0.8144  0.2918
  188SAPI   H4X21672   4.252  -0.301   6.832  0.2551  1.1103 -0.5998
  188SAPI   H4Y21673   4.205  -0.463   6.778  0.0604  0.1345 -2.7587
  188SAPI   C3521674   4.052  -0.310   6.785  0.1503  0.6814  0.0061
  188SAPI   H5X21675   3.992  -0.346   6.699  1.1565 -0.8671 -0.0879
  188SAPI   H5Y21676   4.052  -0.203   6.811  0.0869  0.3727  1.3387
  188SAPI   C3621677   3.992  -0.383   6.898  0.6952 -0.9937 -0.7324
  188SAPI   H6X21678   4.032  -0.487   6.900  0.0043 -1.2600 -0.6812
  188SAPI   H6Y21679   3.883  -0.394   6.881  0.6801  0.9486 -2.1632
  188SAPI   C3721680   4.024  -0.317   7.033 -0.0787  0.7600 -0.4206
  188SAPI   H7X21681   3.975  -0.217   7.040 -2.4574 -0.0765 -3.1065
  188SAPI   H7Y21682   4.134  -0.305   7.043 -0.2369  0.4705  2.8092
  188SAPI   C3821683   3.978  -0.409   7.151 -0.6894 -0.1417 -0.1019
  188SAPI   H8X21684   4.036  -0.503   7.140 -1.0407 -0.4245  0.4096
  188SAPI   H8Y21685   3.873  -0.440   7.136 -0.6394 -0.5782  0.4269
  188SAPI   C3921686   3.998  -0.344   7.290 -0.2431 -0.1424 -0.4195
  188SAPI   H9X21687   3.962  -0.240   7.303  2.0822  0.8014 -0.9515
  188SAPI   H9Y21688   4.106  -0.351   7.317 -0.4409 -2.9260 -0.0587
  188SAPI  C31021689   3.918  -0.427   7.396  0.5341 -0.2558  0.0210
  188SAPI  H10X21690   3.960  -0.530   7.398 -0.5175 -0.7005 -0.3980
  188SAPI  H10Y21691   3.819  -0.416   7.349  1.6351  1.2534 -2.1145
  188SAPI  C31121692   3.916  -0.359   7.530  0.3040  0.1393 -0.3055
  188SAPI  H11X21693   3.878  -0.255   7.518  0.5757  0.2321 -0.3758
  188SAPI  H11Y21694   4.016  -0.357   7.578 -0.6150 -0.2966  1.7106
  188SAPI  C31221695   3.837  -0.445   7.631  0.3577  0.5846  0.3864
  188SAPI  H12X21696   3.896  -0.539   7.635  0.9552  0.7852 -1.9855
  188SAPI  H12Y21697   3.733  -0.452   7.593  0.8866  0.5483 -1.1244
  188SAPI  C31321698   3.862  -0.378   7.767  0.1482  0.2358 -0.5170
  188SAPI  H13X21699   3.798  -0.289   7.785  0.3028  0.3003 -0.2773
  188SAPI  H13Y21700   3.961  -0.328   7.773  1.3991 -1.8836 -2.0774
  188SAPI  C31421701   3.825  -0.454   7.893 -0.1355  0.2177  0.1736
  188SAPI  H14X21702   3.901  -0.534   7.905  0.3690  0.8289  1.2892
  188SAPI  H14Y21703   3.727  -0.501   7.868  0.6546 -1.5247  0.2451
  188SAPI  C31521704   3.822  -0.371   8.023  0.0852  0.2843 -0.2456
  188SAPI  H15X21705   3.748  -0.289   8.013 -0.0148 -0.0122 -2.3934
  188SAPI  H15Y21706   3.921  -0.323   8.038  0.5045 -0.2229 -1.3098
  188SAPI  C31621707   3.804  -0.459   8.152 -0.2005 -0.1700 -0.3794
  188SAPI  H16X21708   3.905  -0.492   8.184 -0.4359 -1.5378 -0.9538
  188SAPI  H16Y21709   3.734  -0.545   8.143 -0.3112 -0.6382  3.3183
  188SAPI  C31721710   3.753  -0.371   8.273  0.2381  0.4591 -0.0424
  188SAPI  H17X21711   3.663  -0.320   8.231  0.3558  0.0685 -0.7871
  188SAPI  H17Y21712   3.830  -0.291   8.277 -0.2151  0.9273 -0.3734
  188SAPI  C31821713   3.732  -0.423   8.414 -0.2333  0.4354  0.4781
  188SAPI  H18X21714   3.835  -0.424   8.455  0.3206  0.4038 -0.8717
  188SAPI  H18Y21715   3.700  -0.530   8.414  0.7359  0.1117  1.9369
  188SAPI  H18Z21716   3.657  -0.366   8.472 -1.7452 -0.9295 -0.0470
  189POPC     N21717   3.517   1.387  10.657 -0.0404  0.3462 -0.2554
  189POPC   C1221718   3.596   1.278  10.719  0.1120  0.1279  0.5127
  189POPC  H12A21719   3.686   1.272  10.658 -0.8172  2.8057 -1.3126
  189POPC  H12B21720   3.542   1.186  10.706 -1.1286  1.1204 -2.2463
  189POPC   C1321721   3.583   1.518  10.676  0.4172 -0.1518  0.0717
  189POPC  H13A21722   3.685   1.522  10.641 -0.0894  0.5950 -1.4177
  189POPC  H13B21723   3.527   1.592  10.621 -0.5318 -1.4619 -0.7692
  189POPC  H13C21724   3.573   1.556  10.777  2.7052 -0.0336  0.3110
  189POPC   C1421725   3.495   1.359  10.507  0.4371 -0.2891  0.2327
  189POPC  H14A21726   3.592   1.382  10.465  1.2697  0.2910  2.3254
  189POPC  H14B21727   3.469   1.255  10.496  0.2282 -0.0833 -1.3905
  189POPC  H14C21728   3.423   1.423  10.457 -0.8053 -2.1191 -0.4036
  189POPC   C1521729   3.383   1.389  10.724 -0.5104 -0.4266 -0.2775
  189POPC  H15A21730   3.330   1.300  10.692 -0.9965 -0.3985  0.4291
  189POPC  H15B21731   3.327   1.472  10.685 -1.3421 -0.4147  0.9067
  189POPC  H15C21732   3.382   1.398  10.832  0.8489 -1.2252 -0.1679
  189POPC   C1121733   3.630   1.292  10.871  0.1044  0.4481 -0.0398
  189POPC  H11A21734   3.680   1.391  10.869  0.1479  0.4206 -1.4321
  189POPC  H11B21735   3.708   1.216  10.893  0.4776  0.5459 -0.9683
  189POPC     P21736   3.503   1.186  11.062 -0.2921  0.1153 -0.0156
  189POPC   O1321737   3.366   1.191  11.117  0.0624  0.7772  0.2444
  189POPC   O1421738   3.609   1.200  11.156 -0.4828  0.3089 -0.6566
  189POPC   O1221739   3.520   1.303  10.959 -0.1246 -0.2823  0.2079
  189POPC   O1121740   3.516   1.053  10.975  0.0501 -0.2865 -0.3069
  189POPC    C121741   3.409   1.026  10.880 -0.7029  0.1588 -0.1011
  189POPC    HA21742   3.369   1.113  10.823  1.5461  0.2445 -1.7045
  189POPC    HB21743   3.317   0.984  10.926 -1.5978  0.4294 -1.5738
  189POPC    C221744   3.460   0.925  10.770 -0.9175 -0.1291 -0.2492
  189POPC    HS21745   3.506   0.842  10.827  3.3554  2.6756  0.8810
  189POPC   O2121746   3.566   0.993  10.700 -0.4404 -0.5830  0.1669
  189POPC   C2121747   3.634   0.920  10.617 -0.2251  0.0572 -0.2430
  189POPC   O2221748   3.614   0.801  10.605  0.2913 -0.6313 -0.1664
  189POPC   C2221749   3.732   1.008  10.534  0.3530  0.2605 -0.7548
  189POPC   H2R21750   3.823   1.016  10.598 -0.7143 -1.2116  1.0388
  189POPC   H2S21751   3.707   1.116  10.525  1.1462  0.6193  0.8468
  189POPC    C321752   3.345   0.862  10.685 -0.4422  0.1330 -0.0223
  189POPC    HX21753   3.274   0.829  10.763 -1.3475  0.2397 -0.7791
  189POPC    HY21754   3.385   0.773  10.632 -0.1728  1.7966 -2.8153
  189POPC   O3121755   3.290   0.961  10.599 -0.0780 -0.0438 -0.2955
  189POPC   C3121756   3.199   0.915  10.518  0.8092  0.5726  1.0538
  189POPC   O3221757   3.161   0.798  10.508  0.4610 -0.5770 -0.7346
  189POPC   C3221758   3.143   1.047  10.450 -0.0654  0.7780  0.3929
  189POPC   H2X21759   3.226   1.097  10.397 -0.3356  1.0597  0.2313
  189POPC   H2Y21760   3.121   1.114  10.536 -2.2816 -1.7566  1.9906
  189POPC   C2321761   3.778   0.945  10.404  0.5419 -0.2419  0.5141
  189POPC   H3R21762   3.821   0.847  10.433  1.6485  0.1612  0.2829
  189POPC   H3S21763   3.866   0.993  10.357  2.1532 -1.0547  2.5716
  189POPC   C2421764   3.659   0.932  10.301  0.4319  0.1135 -0.0042
  189POPC   H4R21765   3.601   0.841  10.330  0.7352 -0.7208 -1.8827
  189POPC   H4S21766   3.708   0.905  10.205 -1.6203 -2.4546 -0.4570
  189POPC   C2521767   3.565   1.053  10.288 -0.2257 -0.7968 -0.1903
  189POPC   H5R21768   3.621   1.147  10.274  1.7779 -2.1615 -1.8652
  189POPC   H5S21769   3.494   1.070  10.373  0.0051 -0.0460 -0.1407
  189POPC   C2621770   3.487   1.041  10.155  0.1821  0.0031 -0.4749
  189POPC   H6R21771   3.447   1.141  10.128  2.1930  1.2476  0.8614
  189POPC   H6S21772   3.405   0.966  10.157 -0.9366  1.1611 -1.3013
  189POPC   C2721773   3.567   1.017  10.029 -0.7309  0.0706 -0.7071
  189POPC   H7R21774   3.500   1.006   9.940 -2.9220  1.7168  0.6437
  189POPC   H7S21775   3.620   0.919  10.027  0.7623  0.8197  0.4419
  189POPC   C2821776   3.675   1.123   9.998 -0.2236  0.1479  0.1605
  189POPC   H8R21777   3.748   1.089   9.921 -0.0568  0.2811  0.2585
  189POPC   H8S21778   3.749   1.145  10.079  1.9557  0.2560 -1.7541
  189POPC   C2921779   3.612   1.251   9.945 -0.4605  0.7227  0.2529
  189POPC   H9121780   3.583   1.319  10.026  1.6775 -0.2965  1.9478
  189POPC  C21021781   3.578   1.273   9.818 -0.1217 -0.1311  0.1850
  189POPC  H10121782   3.531   1.367   9.783 -0.0351 -0.5702 -1.1929
  189POPC  C21121783   3.602   1.179   9.699 -0.0732 -0.3732  0.4154
  189POPC  H11R21784   3.505   1.151   9.651  1.0218 -2.1071 -0.9005
  189POPC  H11S21785   3.652   1.081   9.714 -2.2491 -1.5392  0.4543
  189POPC  C21221786   3.689   1.255   9.592 -0.3017  0.1366  0.8061
  189POPC  H12R21787   3.798   1.254   9.616  0.1500 -1.8431 -1.0156
  189POPC  H12S21788   3.659   1.358   9.563 -0.1876 -0.6552 -2.5903
  189POPC  C21321789   3.703   1.162   9.466 -0.2000  0.1694  0.5028
  189POPC  H13R21790   3.594   1.153   9.444 -0.8088 -0.6566  3.4212
  189POPC  H13S21791   3.748   1.067   9.502  1.9897  0.1966 -1.8649
  189POPC  C21421792   3.773   1.218   9.340 -0.1613 -0.1176 -0.4919
  189POPC  H14R21793   3.881   1.230   9.363  0.0429 -0.8434 -1.0008
  189POPC  H14S21794   3.734   1.321   9.323  0.0842 -0.0309 -0.5304
  189POPC  C21521795   3.741   1.133   9.223  0.1159 -0.0183  0.2925
  189POPC  H15R21796   3.633   1.129   9.198  0.5920  0.9757 -2.2313
  189POPC  H15S21797   3.772   1.029   9.245 -0.3147 -0.2334 -0.0964
  189POPC  C21621798   3.811   1.177   9.094  0.2390  0.0393 -0.1285
  189POPC  H16R21799   3.806   1.097   9.017  0.1266  1.1247 -1.3035
  189POPC  H16S21800   3.919   1.195   9.110 -0.1376  2.2591  0.3148
  189POPC  C21721801   3.752   1.304   9.034  0.3171  0.6638 -0.8107
  189POPC  H17R21802   3.793   1.386   9.097  1.8125 -0.2027 -0.6080
  189POPC  H17S21803   3.642   1.305   9.022  0.2568 -0.4042 -0.4525
  189POPC  C21821804   3.809   1.325   8.889  0.3542 -0.0753  0.2259
  189POPC  H18R21805   3.919   1.324   8.878  0.3934  0.6377  0.4589
  189POPC  H18S21806   3.774   1.423   8.850  0.5228  1.0626  2.7330
  189POPC  H18T21807   3.775   1.246   8.819  2.6420 -0.2500 -0.7635
  189POPC   C3321808   3.028   1.026  10.356  0.0748 -0.7429  0.2811
  189POPC   H3X21809   2.980   1.125  10.336  0.7585 -0.5839 -0.6436
  189POPC   H3Y21810   2.956   0.958  10.406  0.7397 -0.2937  1.9285
  189POPC   C3421811   3.067   0.974  10.222  0.2032  0.0232 -0.5559
  189POPC   H4X21812   3.115   0.876  10.240 -0.2844 -0.1731 -0.3000
  189POPC   H4Y21813   3.151   1.033  10.179  0.5924 -0.3293 -0.2815
  189POPC   C3521814   2.956   0.955  10.112  0.0505 -0.0335 -1.0200
  189POPC   H5X21815   2.903   1.050  10.089 -0.4261 -0.0722 -0.1284
  189POPC   H5Y21816   2.871   0.894  10.148 -0.4623  1.0129 -0.4260
  189POPC   C3621817   3.020   0.896   9.983 -0.3513 -0.6516 -0.1335
  189POPC   H6X21818   3.018   0.786   9.998  0.5377 -0.7951 -0.9412
  189POPC   H6Y21819   3.115   0.943   9.949 -1.1608 -0.7709 -2.7837
  189POPC   C3721820   2.923   0.918   9.861 -0.5232  0.0862 -0.0831
  189POPC   H7X21821   2.919   1.026   9.837  2.3972 -0.0373 -1.5745
  189POPC   H7Y21822   2.819   0.885   9.882 -1.0758 -0.0247 -2.6716
  189POPC   C3821823   2.974   0.853   9.725 -0.3783 -0.4874  0.1890
  189POPC   H8X21824   2.974   0.742   9.725  1.8334 -0.5359 -0.0459
  189POPC   H8Y21825   3.084   0.873   9.722 -0.7063  1.6556  0.6333
  189POPC   C3921826   2.912   0.914   9.606 -0.6712 -0.0196 -0.4623
  189POPC   H9X21827   2.929   1.023   9.597 -1.5793  0.2636  0.9894
  189POPC   H9Y21828   2.801   0.907   9.609 -0.7280  0.7851 -0.5722
  189POPC  C31021829   2.966   0.839   9.475  0.6564 -0.2020  0.2768
  189POPC  H10X21830   2.955   0.729   9.475  0.4235 -0.1811  0.0829
  189POPC  H10Y21831   3.073   0.860   9.456  0.6441 -1.0335 -0.8422
  189POPC  C31121832   2.888   0.893   9.350 -0.3486  0.6135 -0.0076
  189POPC  H11X21833   2.920   0.999   9.343 -1.1137  0.8471 -0.0508
  189POPC  H11Y21834   2.784   0.881   9.388  0.0156 -0.2839  0.7649
  189POPC  C31221835   2.932   0.799   9.243  0.3657  0.3507  0.9288
  189POPC  H12X21836   2.902   0.696   9.272  0.8828  0.0673  0.4748
  189POPC  H12Y21837   3.043   0.794   9.248  0.5434 -1.2753 -2.2994
  189POPC  C31321838   2.896   0.843   9.099 -0.1543 -0.1206  0.0008
  189POPC  H13X21839   2.959   0.934   9.089  2.3490 -1.6977  0.4638
  189POPC  H13Y21840   2.788   0.860   9.081  0.3179  1.0406 -2.0462
  189POPC  C31421841   2.937   0.749   8.986  0.8376 -0.3352  0.0900
  189POPC  H14X21842   2.872   0.659   8.985  0.3636  0.0013 -0.0197
  189POPC  H14Y21843   3.040   0.717   9.013  0.7800 -0.3741  0.2638
  189POPC  C31521844   2.935   0.825   8.849  0.3352 -0.0960 -0.1764
  189POPC  H15X21845   2.976   0.764   8.766 -2.5367  1.0665 -2.6270
  189POPC  H15Y21846   2.988   0.921   8.864  2.2375 -1.3528  1.9216
  189POPC  C31621847   2.795   0.850   8.796  0.0129  0.6713  0.3189
  189POPC  H16X21848   2.734   0.758   8.787  0.1503  0.6467 -0.4445
  189POPC  H16Y21849   2.793   0.890   8.693  2.1701 -0.5070 -0.2477
  189POPC  H16Z21850   2.731   0.906   8.868  0.5776 -0.2081  1.5608
  190POPC     N21851   6.511   4.735  11.396 -0.1883 -0.2197  0.2808
  190POPC   C1221852   6.373   4.790  11.367  0.7091 -0.6618 -0.3336
  190POPC  H12A21853   6.376   4.876  11.302  1.4150  1.3578  2.2632
  190POPC  H12B21854   6.321   4.815  11.458 -0.2530 -3.2833 -0.0519
  190POPC   C1321855   6.600   4.851  11.447  0.0413 -0.4551 -0.4278
  190POPC  H13A21856   6.569   4.940  11.394 -0.3301  0.0566  0.6303
  190POPC  H13B21857   6.604   4.852  11.555  3.9275 -3.1186 -0.3303
  190POPC  H13C21858   6.704   4.827  11.430  1.0121  2.0428  1.3714
  190POPC   C1421859   6.501   4.619  11.495 -0.1022  0.0048  0.0835
  190POPC  H14A21860   6.484   4.655  11.595 -0.3986 -1.4434  0.5746
  190POPC  H14B21861   6.425   4.548  11.466 -2.0066  2.4603 -1.3745
  190POPC  H14C21862   6.599   4.572  11.494 -0.2257 -0.4805 -3.7827
  190POPC   C1521863   6.580   4.690  11.274  0.2189  0.4241  0.2324
  190POPC  H15A21864   6.687   4.705  11.274  0.5511 -1.7323 -0.1953
  190POPC  H15B21865   6.544   4.747  11.190  0.9585  1.9145  0.8684
  190POPC  H15C21866   6.569   4.584  11.259  1.6952  0.3292 -0.3747
  190POPC   C1121867   6.286   4.689  11.291 -0.6713  0.6217  0.6757
  190POPC  H11A21868   6.189   4.655  11.334 -1.4341  0.3972 -1.1412
  190POPC  H11B21869   6.337   4.591  11.282  0.2565  1.1550  0.0593
  190POPC     P21870   6.168   4.869  11.150  0.1350  0.2344 -0.1840
  190POPC   O1321871   6.244   4.993  11.178 -0.2192  0.4457  0.2089
  190POPC   O1421872   6.035   4.848  11.216  0.0751 -0.1176 -0.1303
  190POPC   O1221873   6.259   4.744  11.167  0.1635 -0.2117  0.1492
  190POPC   O1121874   6.136   4.862  10.994 -0.5277 -0.1576 -0.2762
  190POPC    C121875   6.225   4.815  10.899  0.0181 -0.7303  0.7260
  190POPC    HA21876   6.165   4.783  10.811  2.4131 -1.6710 -0.6445
  190POPC    HB21877   6.266   4.717  10.929  0.4551 -0.9224 -0.4390
  190POPC    C221878   6.329   4.921  10.852  1.1614 -0.1186  0.3501
  190POPC    HS21879   6.380   4.961  10.942  0.9422  0.1837  0.3410
  190POPC   O2121880   6.259   5.019  10.782  0.3664  0.1139 -0.3407
  190POPC   C2121881   6.315   5.140  10.784 -0.2998  0.2859 -0.0115
  190POPC   O2221882   6.413   5.172  10.849  0.5142  0.0681  0.6477
  190POPC   C2221883   6.247   5.232  10.687 -0.4616  0.9195  0.0266
  190POPC   H2R21884   6.191   5.317  10.732 -0.9570 -0.2302  1.7142
  190POPC   H2S21885   6.165   5.173  10.639  0.2320 -1.0460  1.1437
  190POPC    C321886   6.436   4.854  10.766 -0.3154  0.7428 -0.1926
  190POPC    HX21887   6.474   4.761  10.812  0.1581  0.3752 -1.3049
  190POPC    HY21888   6.520   4.924  10.746 -0.5190  1.3137  0.8936
  190POPC   O3121889   6.385   4.808  10.637 -0.0321 -0.0914  0.2715
  190POPC   C3121890   6.465   4.727  10.563  0.0814 -0.0514  0.0900
  190POPC   O3221891   6.586   4.701  10.585 -0.1490 -0.1643 -0.0561
  190POPC   C3221892   6.387   4.659  10.453  0.2777 -0.8003 -0.6062
  190POPC   H2X21893   6.409   4.716  10.360 -0.3716 -1.4005 -1.1479
  190POPC   H2Y21894   6.282   4.673  10.485  0.8773 -0.1071  1.1404
  190POPC   C2321895   6.347   5.272  10.578 -0.4238  0.6307  0.1472
  190POPC   H3R21896   6.424   5.342  10.614  3.1922 -3.5970  1.5688
  190POPC   H3S21897   6.292   5.331  10.502 -0.2154  0.0872 -0.4355
  190POPC   C2421898   6.414   5.150  10.506 -0.0595 -0.3880 -0.4910
  190POPC   H4R21899   6.334   5.074  10.492 -1.4426  0.6121  1.4457
  190POPC   H4S21900   6.490   5.095  10.565  0.0023  0.0397 -0.1654
  190POPC   C2521901   6.462   5.185  10.370  0.5742 -0.4111 -0.3360
  190POPC   H5R21902   6.531   5.273  10.371  0.0911  0.0630 -2.7361
  190POPC   H5S21903   6.385   5.220  10.299  0.7381  0.5738 -0.0607
  190POPC   C2621904   6.552   5.068  10.321  0.5837 -0.1381  0.3060
  190POPC   H6R21905   6.591   5.010  10.407 -1.3192 -1.4761  0.3349
  190POPC   H6S21906   6.638   5.111  10.265 -0.1806  0.1123 -0.7175
  190POPC   C2721907   6.479   4.966  10.225  0.4188 -0.0437 -0.3182
  190POPC   H7R21908   6.441   5.027  10.140 -0.1041  0.6362  0.3779
  190POPC   H7S21909   6.390   4.917  10.271  2.0198 -2.4713  0.3432
  190POPC   C2821910   6.570   4.859  10.165 -0.1455  0.3930  0.3152
  190POPC   H8R21911   6.620   4.802  10.245 -0.6827  1.4699  1.4500
  190POPC   H8S21912   6.651   4.908  10.106  1.0921  0.5346  2.0762
  190POPC   C2921913   6.494   4.753  10.083 -0.7294 -0.2201  0.1915
  190POPC   H9121914   6.390   4.733  10.114 -1.8237  2.1734 -1.5572
  190POPC  C21021915   6.531   4.710   9.965  0.3762  0.8201 -0.0084
  190POPC  H10121916   6.481   4.632   9.906  1.3507  1.0348 -1.1501
  190POPC  C21121917   6.644   4.772   9.877  0.2037 -0.4455 -0.3082
  190POPC  H11R21918   6.736   4.719   9.911 -0.1558 -0.3008  0.9445
  190POPC  H11S21919   6.647   4.880   9.902  0.0410 -0.3041 -0.8860
  190POPC  C21221920   6.632   4.743   9.734 -0.3423  0.5347  0.1748
  190POPC  H12R21921   6.586   4.644   9.713 -1.3183  0.4677  2.3142
  190POPC  H12S21922   6.734   4.741   9.691 -0.4942 -1.1396 -0.1670
  190POPC  C21321923   6.544   4.845   9.665  0.0723 -0.1133  0.8580
  190POPC  H13R21924   6.562   4.943   9.714  0.1103  0.0366  0.5460
  190POPC  H13S21925   6.438   4.818   9.686 -0.8182  2.4308 -0.0880
  190POPC  C21421926   6.562   4.866   9.509  0.4174  0.4898 -0.3529
  190POPC  H14R21927   6.528   4.776   9.454 -1.4149  1.4023 -0.7790
  190POPC  H14S21928   6.669   4.861   9.481 -0.2855  0.4067 -3.2806
  190POPC  C21521929   6.470   4.978   9.458  1.3483  0.6988 -0.4971
  190POPC  H15R21930   6.496   5.066   9.521 -2.2936 -0.5297  3.1713
  190POPC  H15S21931   6.362   4.956   9.476  1.7606 -2.2672 -1.2171
  190POPC  C21621932   6.476   5.018   9.316  0.2011 -0.0231  0.1976
  190POPC  H16R21933   6.405   5.103   9.301 -1.3998 -1.2478  0.5316
  190POPC  H16S21934   6.457   4.941   9.238 -2.6634  0.3848  0.3597
  190POPC  C21721935   6.610   5.086   9.293 -0.0769 -0.3059  0.3961
  190POPC  H17R21936   6.692   5.032   9.344 -0.1397  1.9877  3.2208
  190POPC  H17S21937   6.600   5.187   9.340 -3.5202 -1.1327  1.7013
  190POPC  C21821938   6.638   5.104   9.144 -0.2552  0.4230  0.9804
  190POPC  H18R21939   6.746   5.123   9.128 -0.3398  0.4706  0.4568
  190POPC  H18S21940   6.582   5.187   9.096 -0.6681  0.0119  0.7473
  190POPC  H18T21941   6.596   5.024   9.080  0.1613 -1.2323  2.6920
  190POPC   C3321942   6.415   4.504  10.437  0.0651  0.8074 -0.6787
  190POPC   H3X21943   6.435   4.453  10.534  4.0717  1.0639 -1.2231
  190POPC   H3Y21944   6.509   4.486  10.380  0.5471 -1.0566  0.6122
  190POPC   C3421945   6.298   4.440  10.360 -0.3684  0.3239  0.7047
  190POPC   H4X21946   6.205   4.440  10.421 -1.5936 -1.0650 -1.0284
  190POPC   H4Y21947   6.325   4.333  10.343 -3.0990 -0.3122 -0.1705
  190POPC   C3521948   6.263   4.510  10.232  1.0712 -0.5908  1.2046
  190POPC   H5X21949   6.344   4.547  10.165  0.3011 -2.4710 -0.8529
  190POPC   H5Y21950   6.196   4.593  10.262  0.4739 -0.9888  0.9823
  190POPC   C3621951   6.172   4.426  10.149 -0.4648  0.4654  0.1775
  190POPC   H6X21952   6.102   4.481  10.083 -0.6589  0.0535  0.0393
  190POPC   H6Y21953   6.107   4.360  10.210 -1.7217  1.2362 -0.2861
  190POPC   C3721954   6.242   4.331  10.055  0.3228  0.5013  0.0808
  190POPC   H7X21955   6.152   4.281  10.012  0.2055  0.3218  0.5303
  190POPC   H7Y21956   6.305   4.251  10.099  0.2997  1.0447  1.1305
  190POPC   C3821957   6.312   4.395   9.941 -0.7300 -0.2669 -0.1667
  190POPC   H8X21958   6.411   4.349   9.918  1.3678  3.6810  0.2193
  190POPC   H8Y21959   6.321   4.504   9.958 -2.5651 -0.2209  0.7667
  190POPC   C3921960   6.225   4.371   9.817  0.5597  0.5974  0.1730
  190POPC   H9X21961   6.121   4.408   9.834 -1.2808 -2.9435 -2.1452
  190POPC   H9Y21962   6.210   4.262   9.806 -0.0521  0.8578 -2.2485
  190POPC  C31021963   6.283   4.438   9.689  0.1413 -0.0487  0.9561
  190POPC  H10X21964   6.372   4.387   9.647 -1.7892 -2.3740 -0.6019
  190POPC  H10Y21965   6.308   4.543   9.714  1.0172  0.0615 -0.2680
  190POPC  C31121966   6.178   4.447   9.567 -0.2226 -0.2342 -0.3041
  190POPC  H11X21967   6.084   4.492   9.606  0.7731  0.9506  0.8384
  190POPC  H11Y21968   6.147   4.343   9.542 -1.1834  0.2991 -1.3973
  190POPC  C31221969   6.231   4.501   9.439 -0.7891 -0.4426  0.6762
  190POPC  H12X21970   6.338   4.476   9.422 -0.8323  0.3780 -0.9181
  190POPC  H12Y21971   6.233   4.611   9.453 -0.3874 -0.0879 -1.8029
  190POPC  C31321972   6.151   4.468   9.311 -0.2030  0.0287  0.3853
  190POPC  H13X21973   6.050   4.514   9.314  0.6707  2.8962 -4.0119
  190POPC  H13Y21974   6.142   4.358   9.302  3.5212 -0.4304  0.5418
  190POPC  C31421975   6.222   4.520   9.183  0.4536 -0.4343 -0.3676
  190POPC  H14X21976   6.313   4.457   9.170  1.1832  0.3798  0.5823
  190POPC  H14Y21977   6.240   4.629   9.196 -1.5423 -0.3141  2.0928
  190POPC  C31521978   6.124   4.517   9.055 -0.0369 -0.2862  0.0004
  190POPC  H15X21979   6.037   4.579   9.085 -0.1977  0.3966 -1.7172
  190POPC  H15Y21980   6.096   4.410   9.047  0.2428 -0.3187 -0.5900
  190POPC  C31621981   6.185   4.561   8.928 -0.4558  0.0764  0.2776
  190POPC  H16X21982   6.201   4.670   8.939 -1.9759  0.2931  0.4914
  190POPC  H16Y21983   6.132   4.541   8.832 -0.7962  1.2736  0.2028
  190POPC  H16Z21984   6.289   4.523   8.920 -0.7023 -0.6674  0.5239
  191POPC     N21985   6.466   5.402   6.437 -0.3030  0.5242  0.2611
  191POPC   C1221986   6.368   5.352   6.328  0.6243 -0.3895 -0.1046
  191POPC  H12A21987   6.297   5.286   6.374  0.3020 -1.5042 -2.0852
  191POPC  H12B21988   6.418   5.283   6.262  1.7366 -0.3926  0.7109
  191POPC   C1321989   6.401   5.495   6.531 -0.5535  0.3185 -0.2204
  191POPC  H13A21990   6.341   5.557   6.466 -2.5858 -1.3013 -0.0183
  191POPC  H13B21991   6.340   5.452   6.609 -1.0420 -1.3903 -1.4616
  191POPC  H13C21992   6.477   5.558   6.573 -0.1849 -0.7668  0.7933
  191POPC   C1421993   6.527   5.282   6.506  0.1796  0.3611 -0.8108
  191POPC  H14A21994   6.450   5.225   6.558 -0.8379  0.8152 -1.7740
  191POPC  H14B21995   6.590   5.218   6.447 -1.6565 -3.3814  0.8801
  191POPC  H14C21996   6.591   5.312   6.587  0.0770 -0.9522 -0.2132
  191POPC   C1521997   6.583   5.477   6.377  0.2511 -0.5308  0.3994
  191POPC  H15A21998   6.556   5.570   6.328  1.5769  0.4565  1.4548
  191POPC  H15B21999   6.634   5.413   6.306  2.5874 -1.0700  2.4475
  191POPC  H15C22000   6.649   5.496   6.460 -0.1249 -0.1654  0.6199
  191POPC   C1122001   6.306   5.462   6.244  0.2227  0.4056 -0.2496
  191POPC  H11A22002   6.263   5.414   6.153  2.8074  0.5898 -1.6528
  191POPC  H11B22003   6.383   5.532   6.206  0.1824  0.4883 -0.1775
  191POPC     P22004   6.188   5.690   6.300 -0.1628 -0.2545  0.2103
  191POPC   O1322005   6.097   5.713   6.186 -0.5872 -0.2874  0.2407
  191POPC   O1422006   6.317   5.762   6.301  0.2389  0.4249 -0.2047
  191POPC   O1222007   6.206   5.535   6.312  0.0335 -0.1506  0.1235
  191POPC   O1122008   6.118   5.727   6.436  0.0977  0.1821 -0.0244
  191POPC    C122009   6.012   5.652   6.496  0.6854 -0.0653  0.4249
  191POPC    HA22010   6.039   5.619   6.598 -1.5458  2.1353  1.8739
  191POPC    HB22011   5.982   5.564   6.436 -0.8360 -0.0928  1.1681
  191POPC    C222012   5.878   5.741   6.491 -0.0643 -0.4732 -0.7231
  191POPC    HS22013   5.890   5.794   6.393  2.8328  1.5566  0.5858
  191POPC   O2122014   5.888   5.840   6.593  0.3778  0.1818 -0.8929
  191POPC   C2122015   5.838   5.955   6.559 -0.1651 -0.3950 -0.2256
  191POPC   O2222016   5.821   6.001   6.447  0.4315  0.4948  0.5650
  191POPC   C2222017   5.796   6.033   6.683  0.0981 -0.5137 -0.8564
  191POPC   H2R22018   5.722   6.104   6.638  0.2182 -0.3673 -0.8235
  191POPC   H2S22019   5.881   6.088   6.727 -0.4245  0.2100 -0.7299
  191POPC    C322020   5.746   5.658   6.508  0.1800  0.6619  0.2842
  191POPC    HX22021   5.732   5.620   6.404 -0.9268  0.0693  0.6405
  191POPC    HY22022   5.665   5.724   6.543  0.2589  1.1194 -0.3636
  191POPC   O3122023   5.763   5.559   6.612 -0.2960 -0.3745  0.2156
  191POPC   C3122024   5.663   5.476   6.620  0.0623  0.4957  0.1132
  191POPC   O3222025   5.557   5.488   6.563  0.1525 -0.5097 -0.2549
  191POPC   C3222026   5.683   5.358   6.716 -0.2344 -0.1025 -0.1098
  191POPC   H2X22027   5.789   5.328   6.725  0.1757  0.9371 -1.1579
  191POPC   H2Y22028   5.629   5.272   6.672 -0.1021 -1.2539  1.8748
  191POPC   C2322029   5.732   5.952   6.800 -0.2024 -0.6256 -0.0621
  191POPC   H3R22030   5.814   5.899   6.853 -1.7580 -0.5949  2.5447
  191POPC   H3S22031   5.657   5.874   6.777  0.0651 -1.4799  1.7586
  191POPC   C2422032   5.662   6.041   6.903 -0.1749 -0.1575 -0.0351
  191POPC   H4R22033   5.580   6.098   6.855  0.6328  0.9931 -0.0755
  191POPC   H4S22034   5.744   6.112   6.929 -0.7489 -0.1552  1.9478
  191POPC   C2522035   5.615   5.970   7.028 -0.1098  0.6356  0.3649
  191POPC   H5R22036   5.702   5.947   7.093  0.0716 -0.8840 -0.3696
  191POPC   H5S22037   5.564   5.876   6.998 -1.2687  0.8857  1.4563
  191POPC   C2622038   5.509   6.057   7.111  0.0590  0.2077 -0.0455
  191POPC   H6R22039   5.424   6.095   7.051 -1.3338 -0.3750  1.4776
  191POPC   H6S22040   5.569   6.147   7.136 -0.4617  0.4896  0.2074
  191POPC   C2722041   5.442   5.986   7.226 -0.2842  0.0364  0.2514
  191POPC   H7R22042   5.412   5.882   7.202  0.8496 -0.1799 -0.3174
  191POPC   H7S22043   5.357   6.050   7.258 -0.6709 -0.4526  0.2057
  191POPC   C2822044   5.536   5.964   7.338  0.3405  0.8325 -0.1938
  191POPC   H8R22045   5.620   5.897   7.312  0.0419 -0.9111  2.8004
  191POPC   H8S22046   5.484   5.907   7.419 -2.7013  0.2566 -2.3461
  191POPC   C2922047   5.596   6.088   7.398  0.6140 -0.6575  0.3744
  191POPC   H9122048   5.676   6.133   7.337  0.1241  2.5654  1.8504
  191POPC  C21022049   5.551   6.152   7.502  0.3721  0.5301 -0.2731
  191POPC  H10122050   5.605   6.241   7.540  0.4516 -0.5607  2.3767
  191POPC  C21122051   5.427   6.113   7.584  0.2085  0.2827  0.2815
  191POPC  H11R22052   5.397   6.007   7.566  2.0753 -0.3801  0.8286
  191POPC  H11S22053   5.343   6.175   7.545 -2.1173 -1.7198  1.7604
  191POPC  C21222054   5.446   6.152   7.728  0.0582  1.1303  0.2217
  191POPC  H12R22055   5.477   6.258   7.742  1.1517  0.6711  1.5340
  191POPC  H12S22056   5.526   6.087   7.770 -2.6166 -1.5441  1.5556
  191POPC  C21322057   5.320   6.133   7.815 -0.6184  0.2358  0.3480
  191POPC  H13R22058   5.305   6.023   7.815 -1.3517  0.3263 -0.4046
  191POPC  H13S22059   5.222   6.173   7.784  0.0060  2.9479  1.5673
  191POPC  C21422060   5.353   6.200   7.950  0.1733  0.4585  0.4524
  191POPC  H14R22061   5.463   6.194   7.965  0.2111 -1.4010 -0.2954
  191POPC  H14S22062   5.322   6.130   8.031 -1.1522 -0.1990 -0.5844
  191POPC  C21522063   5.308   6.334   7.977  0.5054 -0.1380  0.2605
  191POPC  H15R22064   5.199   6.351   7.973  0.5774  0.2752 -0.0254
  191POPC  H15S22065   5.341   6.393   7.888 -0.2946 -1.5777 -1.0379
  191POPC  C21622066   5.355   6.398   8.106  0.1519 -0.0880 -0.6069
  191POPC  H16R22067   5.342   6.509   8.100  1.2302  0.0837  0.0501
  191POPC  H16S22068   5.463   6.388   8.127 -0.2968 -1.2731  1.3311
  191POPC  C21722069   5.280   6.353   8.229 -0.0680 -0.8252 -0.0780
  191POPC  H17R22070   5.321   6.404   8.318  2.6587 -2.5567 -0.2285
  191POPC  H17S22071   5.313   6.247   8.229  1.2116 -0.5271 -2.9110
  191POPC  C21822072   5.126   6.359   8.220 -0.6455 -0.1486 -0.4909
  191POPC  H18R22073   5.077   6.271   8.173  0.6925 -0.9978 -0.3678
  191POPC  H18S22074   5.102   6.452   8.164 -0.9250  0.0103 -0.1070
  191POPC  H18T22075   5.073   6.376   8.316 -1.5495  0.9137 -1.1592
  191POPC   C3322076   5.625   5.397   6.861  0.3888 -0.5673 -0.1823
  191POPC   H3X22077   5.634   5.301   6.917  1.9175 -0.5816 -0.4030
  191POPC   H3Y22078   5.519   5.428   6.852 -0.5412 -2.8283  1.8451
  191POPC   C3422079   5.710   5.510   6.932  0.5237 -0.1926 -0.1074
  191POPC   H4X22080   5.751   5.577   6.853  0.6302 -0.8543 -0.6162
  191POPC   H4Y22081   5.798   5.485   6.995  0.0662  1.6696  1.4008
  191POPC   C3522082   5.613   5.600   7.027 -0.3868  0.1800 -0.5934
  191POPC   H5X22083   5.515   5.608   6.976  0.1328 -0.4229 -1.7509
  191POPC   H5Y22084   5.661   5.699   7.036 -0.4550  0.2289 -0.7519
  191POPC   C3622085   5.570   5.546   7.162  0.7598  0.7069  0.1822
  191POPC   H6X22086   5.529   5.444   7.154  1.3380  0.5529 -1.0242
  191POPC   H6Y22087   5.482   5.611   7.183 -0.8994 -1.4460  0.2580
  191POPC   C3722088   5.681   5.535   7.268  0.3236 -0.3040 -0.9263
  191POPC   H7X22089   5.733   5.633   7.276 -2.3304  1.0657  1.5530
  191POPC   H7Y22090   5.754   5.456   7.238  0.8718 -1.7975  3.6135
  191POPC   C3822091   5.616   5.504   7.404  0.0834  0.7306  0.7722
  191POPC   H8X22092   5.696   5.478   7.476 -0.3343 -1.2890  0.5601
  191POPC   H8Y22093   5.545   5.419   7.399 -0.6594  1.4212 -2.2476
  191POPC   C3922094   5.554   5.620   7.468  0.2267 -0.2333  0.2091
  191POPC   H9X22095   5.462   5.651   7.414  1.0088  1.7932 -0.0547
  191POPC   H9Y22096   5.631   5.700   7.468  0.6288 -0.6196  0.2518
  191POPC  C31022097   5.518   5.594   7.618  0.1129  0.0282 -0.3575
  191POPC  H10X22098   5.603   5.574   7.686  1.2512  0.7733 -1.4999
  191POPC  H10Y22099   5.453   5.505   7.624  1.2801 -0.8876 -0.8578
  191POPC  C31122100   5.452   5.720   7.676  0.1752 -0.1182  0.5363
  191POPC  H11X22101   5.366   5.747   7.611 -0.5676  1.6524  2.1886
  191POPC  H11Y22102   5.519   5.807   7.660 -0.9632  0.6352 -0.3021
  191POPC  C31222103   5.421   5.716   7.820  0.5664 -0.1823 -0.0536
  191POPC  H12X22104   5.341   5.639   7.828 -2.1188  2.3343 -0.7569
  191POPC  H12Y22105   5.360   5.804   7.852 -0.4907 -1.0112  0.2820
  191POPC  C31322106   5.536   5.703   7.917 -0.3108  0.3044 -0.0866
  191POPC  H13X22107   5.609   5.783   7.896  0.5983 -0.7905 -1.2009
  191POPC  H13Y22108   5.579   5.601   7.907 -1.8996 -0.1870 -2.6805
  191POPC  C31422109   5.499   5.715   8.063  0.7480 -0.6343 -0.4493
  191POPC  H14X22110   5.410   5.651   8.078  1.7203 -2.1553 -0.9592
  191POPC  H14Y22111   5.447   5.813   8.068 -3.6513 -2.5726 -2.2853
  191POPC  C31522112   5.605   5.699   8.167 -0.3290 -0.3490 -0.6853
  191POPC  H15X22113   5.685   5.775   8.150 -0.5496  0.4770  1.6533
  191POPC  H15Y22114   5.653   5.600   8.149 -0.9454 -0.2365 -3.4366
  191POPC  C31622115   5.545   5.727   8.310  0.7171  0.5390  0.2161
  191POPC  H16X22116   5.626   5.729   8.386 -0.7640 -0.0791  1.8994
  191POPC  H16Y22117   5.476   5.644   8.338  1.4360 -0.3151 -0.4983
  191POPC  H16Z22118   5.486   5.821   8.308  0.6862  0.5308  0.5388
  192POPC     N22119   5.824   2.648   6.608 -0.0197  0.1435  0.4100
  192POPC   C1222120   5.814   2.721   6.477  0.5144  0.6138  0.3030
  192POPC  H12A22121   5.805   2.828   6.489 -1.0880  0.5137  0.1457
  192POPC  H12B22122   5.717   2.696   6.439 -0.4157  1.2973  2.0937
  192POPC   C1322123   5.796   2.503   6.586  1.0048  0.6568  0.4829
  192POPC  H13A22124   5.694   2.495   6.551  1.1206  2.0807 -0.2622
  192POPC  H13B22125   5.857   2.468   6.503 -2.6493 -0.4108 -1.9948
  192POPC  H13C22126   5.810   2.451   6.679 -0.5305 -1.0072 -0.1640
  192POPC   C1422127   5.957   2.667   6.667 -0.4010  0.1840 -0.5231
  192POPC  H14A22128   6.034   2.666   6.592  0.7548  1.3565  0.5987
  192POPC  H14B22129   5.971   2.760   6.720 -0.9760  0.1775 -0.3524
  192POPC  H14C22130   5.976   2.587   6.737  1.1811 -0.2780 -1.4368
  192POPC   C1522131   5.729   2.708   6.706 -0.4041 -0.3284 -0.2768
  192POPC  H15A22132   5.632   2.696   6.660  0.2462 -1.7542 -1.3715
  192POPC  H15B22133   5.743   2.810   6.736 -1.3160 -0.3926  0.4128
  192POPC  H15C22134   5.738   2.658   6.802 -0.4071  1.6830  0.8297
  192POPC   C1122135   5.920   2.695   6.368 -0.1755 -0.1606  0.1904
  192POPC  H11A22136   5.904   2.755   6.276 -0.2990 -0.6892 -0.1310
  192POPC  H11B22137   5.911   2.587   6.345 -1.1786  0.0394 -0.4109
  192POPC     P22138   6.143   2.841   6.391 -0.1811 -0.1406 -0.0326
  192POPC   O1322139   6.074   2.944   6.315  0.0934  0.3070  0.0425
  192POPC   O1422140   6.277   2.798   6.347  0.1988  0.5566 -0.0534
  192POPC   O1222141   6.057   2.707   6.420  0.1558 -0.9293  0.2944
  192POPC   O1122142   6.159   2.897   6.536  0.0577  0.6366 -0.0562
  192POPC    C122143   6.280   2.907   6.606  0.5028 -0.1790 -0.7006
  192POPC    HA22144   6.342   2.994   6.574  0.5704 -0.4395 -1.2849
  192POPC    HB22145   6.349   2.823   6.586 -1.0451 -1.4526 -0.9309
  192POPC    C222146   6.259   2.922   6.755  0.1602 -0.6890 -0.1264
  192POPC    HS22147   6.355   2.951   6.803  1.4821 -1.7215 -2.0078
  192POPC   O2122148   6.225   2.799   6.826 -0.6630  0.1215 -0.7790
  192POPC   C2122149   6.311   2.698   6.812  0.0832 -0.2505 -0.2561
  192POPC   O2222150   6.428   2.710   6.782 -0.1082 -0.1089 -0.0265
  192POPC   C2222151   6.241   2.565   6.845  0.0361 -0.9853 -0.5886
  192POPC   H2R22152   6.172   2.543   6.761  0.1588  1.7974 -1.5252
  192POPC   H2S22153   6.183   2.591   6.935  1.9673 -0.9071  0.6961
  192POPC    C322154   6.137   3.016   6.790  0.2420 -0.8061 -0.5720
  192POPC    HX22155   6.051   2.974   6.735 -0.7033 -1.5021  1.3217
  192POPC    HY22156   6.153   3.120   6.756 -0.6015 -1.3121 -2.6234
  192POPC   O3122157   6.114   3.015   6.937  0.2553  0.2282 -0.5578
  192POPC   C3122158   6.003   2.949   6.975  1.1141 -0.0514 -0.3781
  192POPC   O3222159   5.924   2.897   6.898 -0.1522 -0.2308 -0.2441
  192POPC   C3222160   6.011   2.935   7.129  0.3848  0.8305 -0.6425
  192POPC   H2X22161   6.028   3.038   7.166  1.1636 -0.3851  2.7556
  192POPC   H2Y22162   6.099   2.873   7.156 -1.7786 -2.2613 -0.1481
  192POPC   C2322163   6.330   2.441   6.874 -0.0563 -0.2017 -0.0424
  192POPC   H3R22164   6.399   2.415   6.791  0.0024 -4.9317  1.1673
  192POPC   H3S22165   6.269   2.352   6.903  0.9301 -0.8397  0.1235
  192POPC   C2422166   6.433   2.468   6.996 -0.5088 -0.0202  0.2492
  192POPC   H4R22167   6.495   2.557   6.974  0.0236  0.6691  3.8927
  192POPC   H4S22168   6.504   2.383   6.990 -2.2266 -1.4293 -1.0544
  192POPC   C2522169   6.374   2.482   7.142 -0.0742 -0.0601 -0.6648
  192POPC   H5R22170   6.317   2.387   7.152  0.3800 -0.1631  1.6627
  192POPC   H5S22171   6.308   2.572   7.142  0.6916  0.5156 -0.8393
  192POPC   C2622172   6.490   2.484   7.247  0.3848 -0.0574 -0.1622
  192POPC   H6R22173   6.559   2.570   7.238 -0.6057  0.6394 -1.5846
  192POPC   H6S22174   6.547   2.389   7.236  3.2306  1.4068  0.9266
  192POPC   C2722175   6.445   2.479   7.398 -0.6763 -0.9172  0.6884
  192POPC   H7R22176   6.383   2.387   7.405 -0.1614 -1.3470 -0.1972
  192POPC   H7S22177   6.376   2.565   7.407  1.3070  0.6557  1.7638
  192POPC   C2822178   6.547   2.511   7.509  1.3030  0.3718 -0.5404
  192POPC   H8R22179   6.491   2.510   7.605 -0.8009  2.8153 -1.6032
  192POPC   H8S22180   6.583   2.614   7.490 -0.2963  0.9073 -0.8059
  192POPC   C2922181   6.654   2.410   7.512 -0.9101  0.3629 -0.2472
  192POPC   H9122182   6.745   2.420   7.451 -0.1576  0.5932  0.8881
  192POPC  C21022183   6.654   2.304   7.599 -0.0705 -0.2463  0.4364
  192POPC  H10122184   6.737   2.232   7.602 -3.0138 -4.0050 -0.5908
  192POPC  C21122185   6.546   2.258   7.688  0.8710  0.4033  0.2128
  192POPC  H11R22186   6.503   2.167   7.642  2.9870 -0.5979  0.0885
  192POPC  H11S22187   6.459   2.326   7.690 -0.0861 -0.7991  0.3926
  192POPC  C21222188   6.585   2.214   7.827  0.1912  0.4035 -0.1339
  192POPC  H12R22189   6.637   2.300   7.874 -0.4218 -0.0821  1.5006
  192POPC  H12S22190   6.645   2.120   7.833 -1.8685 -0.8961  1.0325
  192POPC  C21322191   6.465   2.170   7.912  0.8933  0.2874  0.5585
  192POPC  H13R22192   6.432   2.068   7.882  1.8926  0.3612 -0.8823
  192POPC  H13S22193   6.392   2.253   7.912 -0.9051 -1.2139  0.0023
  192POPC  C21422194   6.513   2.145   8.054 -0.1389 -0.0543 -0.4782
  192POPC  H14R22195   6.532   2.246   8.096 -0.8832 -0.3585  0.6453
  192POPC  H14S22196   6.614   2.099   8.049  1.3322  2.7453  0.9793
  192POPC  C21522197   6.418   2.063   8.140 -0.0976  0.8745  0.6449
  192POPC  H15R22198   6.431   1.956   8.116  1.4779  1.4458 -1.3087
  192POPC  H15S22199   6.314   2.103   8.136 -0.6494 -0.4949  0.9340
  192POPC  C21622200   6.471   2.078   8.283  0.1943 -0.1463 -0.7086
  192POPC  H16R22201   6.454   2.181   8.321  2.5514  0.5686 -1.4182
  192POPC  H16S22202   6.581   2.064   8.291  0.2890  1.3862  1.2869
  192POPC  C21722203   6.397   1.985   8.383 -0.2750  0.0929 -0.1967
  192POPC  H17R22204   6.408   1.879   8.353  4.1867  0.5412 -0.7160
  192POPC  H17S22205   6.288   2.006   8.391 -0.1402  0.4301  1.1338
  192POPC  C21822206   6.468   1.991   8.524  0.2452  0.6921  0.1687
  192POPC  H18R22207   6.486   2.095   8.557 -1.9397  1.6118 -1.3005
  192POPC  H18S22208   6.572   1.954   8.509  1.0325  1.4849  2.9902
  192POPC  H18T22209   6.417   1.929   8.602 -0.5565  0.4021 -0.5800
  192POPC   C3322210   5.886   2.876   7.199 -0.2564 -0.6129 -0.0276
  192POPC   H3X22211   5.877   2.771   7.164  0.8798 -0.7002 -0.0919
  192POPC   H3Y22212   5.791   2.925   7.170 -0.4115 -0.3496  0.8779
  192POPC   C3422213   5.897   2.876   7.356 -0.3671  0.2007 -0.3420
  192POPC   H4X22214   5.795   2.851   7.395 -0.1453  2.4225  1.9327
  192POPC   H4Y22215   5.905   2.982   7.387  2.7635 -0.3090  1.0378
  192POPC   C3522216   6.006   2.791   7.412 -0.1919 -0.5031 -0.0977
  192POPC   H5X22217   6.102   2.812   7.361 -0.2613 -0.3258 -0.1541
  192POPC   H5Y22218   5.981   2.683   7.397 -0.4556 -0.5139  0.3987
  192POPC   C3622219   6.023   2.805   7.561  0.2771 -0.7130 -0.4988
  192POPC   H6X22220   5.928   2.776   7.610  0.4200 -1.0622 -0.4247
  192POPC   H6Y22221   6.023   2.915   7.577  1.3376 -0.6229 -1.0375
  192POPC   C3722222   6.149   2.726   7.612  0.6358 -0.0989  0.2755
  192POPC   H7X22223   6.239   2.783   7.582  0.7399 -0.2191  0.3547
  192POPC   H7Y22224   6.144   2.629   7.559 -0.4429 -0.4941  1.0604
  192POPC   C3822225   6.148   2.703   7.770 -0.6190  0.1706  0.7826
  192POPC   H8X22226   6.069   2.634   7.805 -0.6088 -0.7332 -0.8613
  192POPC   H8Y22227   6.129   2.800   7.821  0.2777  2.5974 -3.0706
  192POPC   C3922228   6.281   2.634   7.808  0.4160  0.0370 -0.0852
  192POPC   H9X22229   6.373   2.670   7.756 -1.3369 -0.4624 -3.7927
  192POPC   H9Y22230   6.277   2.532   7.766 -0.3849  0.7368 -1.7676
  192POPC  C31022231   6.308   2.616   7.951 -0.3367  0.0265  0.2073
  192POPC  H10X22232   6.246   2.532   7.989 -1.2033  0.7698  0.4895
  192POPC  H10Y22233   6.271   2.702   8.011 -1.4239  0.0442 -0.4558
  192POPC  C31122234   6.453   2.580   7.990 -0.4881 -0.1398 -0.1618
  192POPC  H11X22235   6.525   2.663   7.973 -0.6291  0.1927  0.7769
  192POPC  H11Y22236   6.498   2.498   7.930  0.4710 -1.0754  1.7523
  192POPC  C31222237   6.446   2.554   8.141  0.2228  0.2965  0.8406
  192POPC  H12X22238   6.533   2.493   8.171  0.1249  0.5242  1.5963
  192POPC  H12Y22239   6.362   2.486   8.165  0.1738  0.4230  1.0305
  192POPC  C31322240   6.438   2.684   8.223  0.1630 -0.3131  0.5520
  192POPC  H13X22241   6.353   2.754   8.207 -0.4165 -0.9808  0.7128
  192POPC  H13Y22242   6.536   2.734   8.205 -0.7678  1.6406  0.6415
  192POPC  C31422243   6.420   2.653   8.369  1.0611  0.1811  0.3341
  192POPC  H14X22244   6.363   2.560   8.388 -0.4844  0.4343 -2.4754
  192POPC  H14Y22245   6.355   2.734   8.410 -1.1375 -1.5412  0.4247
  192POPC  C31522246   6.554   2.639   8.440  0.4600 -0.1103 -0.0110
  192POPC  H15X22247   6.595   2.737   8.472 -1.0869  0.1349  1.3728
  192POPC  H15Y22248   6.628   2.589   8.373  0.2980  0.9674 -1.0130
  192POPC  C31622249   6.540   2.547   8.559  0.3201 -0.3573 -0.3092
  192POPC  H16X22250   6.482   2.597   8.640  3.0315  1.5391  0.5802
  192POPC  H16Y22251   6.639   2.531   8.606 -0.0901  1.0169  1.1095
  192POPC  H16Z22252   6.495   2.452   8.522  0.4401 -0.3824 -0.3897
  193SOD    SOD22253   0.157   1.908   6.280 -0.7022 -0.0872  0.0312
  194SOD    SOD22254   1.789   3.650   6.069  0.3275 -0.0169  0.0239
  195SOD    SOD22255   4.434   4.054   6.092 -0.0526  0.2392  0.0204
  196SOD    SOD22256   1.952   5.423   3.423 -0.5446 -0.3166  0.2454
  197SOD    SOD22257   2.505   1.930  11.093  0.0524  0.6603  0.0839
  198SOD    SOD22258   4.408   4.448   6.515  0.7111 -0.0082  0.2687
  199SOD    SOD22259   4.588   0.244  12.518 -0.1469 -0.0424  0.0399
  200SOD    SOD22260   0.445   6.200   5.293  0.2347  0.1060  0.0881
  201SOD    SOD22261   1.735   1.543   0.041  0.0587  0.5040 -0.1300
  202SOD    SOD22262   5.218   0.525  14.979  0.0800 -0.1022 -0.1228
  203SOD    SOD22263   5.198   1.740  16.048 -0.0048 -0.2094  0.3643
  204SOD    SOD22264   4.456   1.635  11.247  0.3017 -0.3591 -0.2740
  205SOD    SOD22265   5.359   6.669  14.715  0.0815 -0.2201  0.2078
  206SOD    SOD22266   2.385   3.677   4.270  0.1425  0.2511  0.1504
  207SOD    SOD22267   1.913   5.324  16.475  0.4917  0.0923  0.1734
  208SOD    SOD22268   0.246   4.284   0.046  0.0706 -0.0015  0.0678
  209SOD    SOD22269   4.641   0.094   1.660  0.3622  0.1931 -0.5608
  210SOD    SOD22270   0.140   2.853   0.009  0.5880  0.0043 -0.4508
  211SOD    SOD22271   2.763   5.530  17.128 -0.4308 -0.0569 -0.2878
  212SOD    SOD22272   6.749   4.441   4.870 -0.2379 -0.1285  0.2538
  213SOD    SOD22273   5.395   2.428  11.090 -0.0465  0.1742 -0.3823
  214SOD    SOD22274   0.702   5.733   5.611  0.3074  0.2479  0.3390
  215SOD    SOD22275   1.812   5.605  15.416  0.2513  0.3179 -0.6941
  216SOD    SOD22276   0.823   1.713  14.532 -0.0197  0.0891 -0.1274
  217SOD    SOD22277   4.822   4.283  11.600  0.5564 -0.2446 -0.0882
  218SOD    SOD22278   0.717   3.508   2.697  0.4328 -0.0554 -0.5269
  219SOD    SOD22279   2.105   6.495   4.485 -0.0898 -0.5933 -0.3990
  220SOD    SOD22280   5.089   4.148   3.654 -0.4217 -0.3138  0.1604
  221SOD    SOD22281   5.698   2.140  12.380 -0.2992 -0.1721  0.1931
  222SOD    SOD22282   6.148   0.271   5.410  0.2135 -0.1773 -0.1290
  223SOD    SOD22283   4.456   4.443  16.258  0.1342  0.3812  0.2795
  224SOD    SOD22284   5.669   1.613  15.920  0.0737 -0.4876  0.2106
  225SOD    SOD22285   3.846   2.383   4.269 -0.1546 -0.3758  0.0027
  226SOD    SOD22286   0.232   0.533   4.477  0.3352 -0.6619 -0.2555
  227SOD    SOD22287   6.051   4.730  13.160 -0.0378  0.1299 -0.1429
  228SOD    SOD22288   4.153   3.236  16.257 -0.5881 -0.6001  0.1058
  229SOD    SOD22289   1.158   1.587  15.843  0.1723  0.2624 -0.2307
  230SOD    SOD22290   2.675   1.573   5.100 -0.0763 -0.1139 -0.2441
  231SOD    SOD22291   5.817   0.554  14.121  0.2670  1.0451 -0.2121
  232SOD    SOD22292   1.822   2.171  11.612  0.2806  0.2845  0.6443
  233SOD    SOD22293   0.588   4.964  16.674 -0.2088  0.0521 -0.2244
  234SOD    SOD22294   5.820   0.967  17.146  0.4722  0.2691 -0.0680
  235SOD    SOD22295   2.092   1.044   2.457 -0.1019 -0.0051 -0.0194
  236SOD    SOD22296   5.656   2.924  15.708 -0.2792  0.1975 -0.0510
  237SOD    SOD22297   0.341   3.407  14.673  0.2880  0.2105  0.0645
  238SOD    SOD22298   2.736   5.676  11.667 -0.5399  0.0830  0.1229
  239SOD    SOD22299   2.430   1.515   0.554 -0.0577 -0.0616 -0.1606
  240SOD    SOD22300   4.366   5.432  13.717  0.5230  0.0530  0.2078
  241SOD    SOD22301   5.099   6.102  12.024  0.3604 -0.0923  0.0301
  242SOD    SOD22302   2.707   0.789   1.309  0.0168  0.2965  0.3558
  243SOD    SOD22303   0.721   3.967   5.885 -0.1227 -0.6116  0.0938
  244SOD    SOD22304   6.665   1.104  14.891 -0.0024 -0.3184  0.4516
  245SOD    SOD22305   5.722   1.046   6.333  0.9502 -0.6757  0.2920
  246SOD    SOD22306   2.806   4.164  10.754  0.1387  0.7262  0.2798
  247SOD    SOD22307   6.496   1.808  13.051 -0.2265 -0.2164 -0.8541
  248SOD    SOD22308   2.675   4.846   5.241 -0.3960  0.2770  0.1127
  249SOD    SOD22309   1.020   5.679  16.971  0.3377  0.1812 -0.7729
  250SOD    SOD22310   1.138   0.446  14.298 -0.1638 -0.1119  0.7723
  251SOD    SOD22311   6.554   0.360   0.499 -0.2984 -0.0956  0.2833
  252SOD    SOD22312   3.571   4.058  13.555  0.7862 -0.1018 -0.0518
  253SOD    SOD22313   1.716   0.610   4.966  0.2268 -0.0103  0.0558
  254SOD    SOD22314   3.468   2.921   3.154  0.0672 -0.0806 -0.0649
  255SOD    SOD22315   3.046   5.338  16.144  0.4783  0.3059 -0.0586
  256SOD    SOD22316   5.054   4.650   5.318  0.4272 -0.0113 -0.3694
  257SOD    SOD22317   5.037   0.967   5.152  0.5989  0.2899 -0.3080
  258SOD    SOD22318   6.140   0.074  10.966 -0.2180 -0.5232 -0.4130
  259SOD    SOD22319   3.904   4.407   0.301 -0.5245 -0.3600  0.2884
  260SOD    SOD22320   2.347   5.668  11.158 -0.2391 -0.2734  0.0079
  261SOD    SOD22321   4.412   5.887  11.158  0.0356 -0.5854 -0.5629
  262SOD    SOD22322   3.513   6.759  12.538 -0.3094 -0.4009  0.3071
  263SOD    SOD22323   0.100   0.025  15.337  0.3589 -0.0521 -0.5647
  264SOD    SOD22324   4.946   3.007  10.868  0.1707  0.0105 -0.0935
  265SOD    SOD22325   3.370   5.008   3.678  0.1179  0.0130 -0.3048
  266SOD    SOD22326   2.152   4.556   4.977 -0.2141 -0.4401  0.2255
  267SOD    SOD22327   0.755   2.522  13.422  0.0395  0.0731  0.2990
  268SOD    SOD22328   1.241   6.423   0.954  0.0090 -0.4055 -0.6635
  269SOD    SOD22329   2.048   0.061   6.660 -0.0230 -0.0831  0.1624
  270CLA    CLA22330   0.383   4.115  15.335 -0.0780  0.1117  0.1442
  271CLA    CLA22331   5.565   4.913  16.131 -0.2749  0.3668  0.2358
  272CLA    CLA22332   4.903   1.935   2.130  0.3091  0.0412  0.3216
  273CLA    CLA22333   3.330   3.134  12.948  0.5260  0.0820 -0.1096
  274CLA    CLA22334   0.837   6.501  15.544  0.2148  0.1499 -0.0645
  275CLA    CLA22335   2.297   0.435   4.351 -0.3683  0.0043 -0.2629
  276CLA    CLA22336   0.898   0.734  16.968 -0.0561 -0.2877  0.1774
  277CLA    CLA22337   6.624   1.485   5.139 -0.2498  0.1095  0.2759
  278CLA    CLA22338   5.148   1.481   0.292  0.0083 -0.2010  0.3508
  279CLA    CLA22339   5.067   5.099  14.092 -0.2147 -0.1091  0.4582
  280CLA    CLA22340   1.596   2.781  14.305 -0.1114 -0.1381  0.3812
  281CLA    CLA22341   6.691   0.164   0.075  0.0889  0.1937  0.1936
  282CLA    CLA22342   5.758   2.539  12.598  0.3142 -0.4672  0.0503
  283CLA    CLA22343   6.680   3.829   1.116  0.2154  0.0847 -0.6138
  284CLA    CLA22344   3.868   0.073  13.971 -0.1107 -0.0425  0.0699
  285CLA    CLA22345   5.657   1.407  12.402 -0.1361 -0.2876  0.3296
  286CLA    CLA22346   6.109   2.012   4.006 -0.5213  0.1052  0.0194
  287CLA    CLA22347   6.324   1.899  12.301  0.0230 -0.2012  0.0899
  288CLA    CLA22348   5.450   1.749  15.966  0.0889  0.0065  0.2576
  289CLA    CLA22349   1.543   0.605  14.696 -0.4547 -0.3053  0.3596
  290CLA    CLA22350   6.494   4.664  12.857  0.2207 -0.0867 -0.3179
  291CLA    CLA22351   0.964   1.584  15.657 -0.3385  0.3964  0.2165
  292CLA    CLA22352   3.290   1.895   5.078  0.1996 -0.2065 -0.0344
  293CLA    CLA22353   4.696   1.440  14.044  0.0299 -0.4921  0.1127
  294CLA    CLA22354   1.034   5.902  16.089  0.0043  0.2721  0.4054
  295CLA    CLA22355   1.273   4.548   5.773 -0.4723  0.2483  0.0444
  296CLA    CLA22356   4.036   5.561  11.683  0.2048  0.1382  0.3379
  297CLA    CLA22357   2.495   5.325   1.804 -0.5241  0.4039  0.1281
  298CLA    CLA22358   4.292   0.682  17.045 -0.2517  0.0633 -0.3079
  299CLA    CLA22359   5.189   6.469   1.206 -0.2672 -0.1628 -0.0858
  300CLA    CLA22360   5.973   0.387  12.034 -0.2010  0.3626 -0.1132
  301CLA    CLA22361   3.775   3.636   2.641  0.2562 -0.2469  0.0946
  302CLA    CLA22362   4.942   1.615  16.137 -0.0808  0.3451 -0.0625
  303CLA    CLA22363   0.857   2.998  16.846 -0.4395  0.2819 -0.1242
  304CLA    CLA22364   0.794   3.083  16.405  0.2979  0.0646 -0.2310
  305CLA    CLA22365   2.334   4.911   1.515  0.2710 -0.3366  0.4684
  306CLA    CLA22366   5.646   0.373  14.926  0.5360 -0.4197  0.2592
  307CLA    CLA22367   2.080   4.973   5.100  0.3064  0.4213 -0.2368
  308CLA    CLA22368   3.239   5.200  13.359  0.3689  0.2235  0.5554
  309CLA    CLA22369   3.620   4.696  16.249 -0.1680 -0.3118 -0.3411
  310CLA    CLA22370   5.398   0.855   2.162 -0.0176 -0.1194  0.0761
  311CLA    CLA22371   6.648   0.029   2.365 -0.2336  0.3302 -0.0439
  312CLA    CLA22372   5.190   1.319   5.388  0.0418  0.6313  0.2119
  313CLA    CLA22373   3.727   4.464   0.091  0.1127  0.2936 -0.1713
  314CLA    CLA22374   1.759   1.583   1.171  0.1475  0.3091  0.3396
  315CLA    CLA22375   4.867   4.335   4.255 -0.6313 -0.0801 -0.1472
  316CLA    CLA22376   3.115   5.554   0.407 -0.3330  0.0996  0.1694
  317CLA    CLA22377   1.025   6.406   4.149 -0.1832 -0.2241  0.5959
  318CLA    CLA22378   2.072   2.131   3.895  0.6406 -0.3766  0.2157
  319CLA    CLA22379   0.048   6.296  15.465 -0.4152  0.4105 -0.3891
  320CLA    CLA22380   2.723   2.142  17.096  0.0376 -0.0754 -0.3173
  321CLA    CLA22381   6.415   0.770  14.337  0.1001  0.0982 -0.4498
  322CLA    CLA22382   2.707   4.042  15.763 -0.2866 -0.0593 -0.3475
  323TIP3   OH222383   3.314   5.065  12.700  0.4839  0.5143 -0.6458
  323TIP3    H122384   3.321   5.126  12.774  0.8900  0.0821 -0.3207
  323TIP3    H222385   3.400   5.069  12.658  0.8680 -0.6284  0.0134
  324TIP3   OH222386   3.766   3.856  11.167  0.5018  0.0234 -0.0169
  324TIP3    H122387   3.777   3.903  11.249 -0.8045 -1.0736  0.8323
  324TIP3    H222388   3.715   3.915  11.111 -0.5178 -0.0730  0.7840
  325TIP3   OH222389   6.564   6.723  12.430 -0.1904 -0.7876 -0.1950
  325TIP3    H122390   6.529   6.667  12.361  2.4172 -1.0503 -1.4366
  325TIP3    H222391   6.541   6.812  12.403 -0.3406 -0.9724 -0.6854
  326TIP3   OH222392   4.009   5.126  15.393 -0.7579  0.0249 -0.0174
  326TIP3    H122393   4.047   5.090  15.312 -0.0454  0.8657 -0.0726
  326TIP3    H222394   4.085   5.143  15.449 -0.9368  2.3535 -0.3770
  327TIP3   OH222395   0.685   1.492  10.398  0.0244 -0.1063  0.2569
  327TIP3    H122396   0.733   1.410  10.385 -1.1444 -0.8395  0.3423
  327TIP3    H222397   0.642   1.481  10.483 -0.4766  0.4237  0.0792
  328TIP3   OH222398   6.445   4.279  13.040 -0.2697 -0.0405 -0.1690
  328TIP3    H122399   6.352   4.260  13.027 -1.3301  3.7847  0.7406
  328TIP3    H222400   6.468   4.231  13.120 -1.3885 -1.1646 -0.4897
  329TIP3   OH222401   2.419   0.974  16.915 -0.3153  0.3313  0.4996
  329TIP3    H122402   2.447   0.892  16.875  1.7101  0.1744  2.0881
  329TIP3    H222403   2.455   1.042  16.859 -0.1786  0.1208  0.3336
  330TIP3   OH222404   0.486   3.263  17.172 -0.8053  0.1114 -0.1983
  330TIP3    H122405   0.560   3.286  17.228 -0.4327 -1.0901 -0.1770
  330TIP3    H222406   0.525   3.222  17.095 -1.3936  0.5657 -0.7595
  331TIP3   OH222407   4.454   1.374   0.707 -0.0898 -0.1663  0.3723
  331TIP3    H122408   4.382   1.346   0.652  0.2763 -0.9457  0.2797
  331TIP3    H222409   4.502   1.438   0.653  0.4861 -1.2028 -0.3853
  332TIP3   OH222410   0.020   2.371   4.083  0.0863  0.5251 -0.0091
  332TIP3    H122411   0.022   2.379   4.179 -0.4893  1.2048 -0.0477
  332TIP3    H222412  -0.038   2.296   4.067 -0.6447  1.0516  0.1466
  333TIP3   OH222413   0.923   5.842  13.627  0.2930 -0.2946  0.1534
  333TIP3    H122414   0.830   5.827  13.606  0.0264 -0.9768  1.7159
  333TIP3    H222415   0.944   5.774  13.691  1.1547  1.4255  1.7875
  334TIP3   OH222416   3.233   1.242   3.551  0.2006  0.2293  0.2359
  334TIP3    H122417   3.304   1.306   3.551 -1.3913  2.1011  0.7321
  334TIP3    H222418   3.170   1.276   3.487 -0.1617 -1.5271 -0.4035
  335TIP3   OH222419   1.939   0.527  14.810  0.4797 -0.3877  0.2438
  335TIP3    H122420   2.026   0.545  14.843  0.9202 -1.5131 -0.2509
  335TIP3    H222421   1.904   0.460  14.868  0.2580 -0.5169 -0.0328
  336TIP3   OH222422   4.993   0.198  14.771  0.2172  0.3288 -0.3363
  336TIP3    H122423   5.024   0.155  14.691 -0.3149 -1.3729  0.3131
  336TIP3    H222424   4.901   0.173  14.777  0.5551 -0.6750  1.4443
  337TIP3   OH222425   2.848   3.717  13.617  0.1570 -0.2517  0.3976
  337TIP3    H122426   2.808   3.691  13.534 -1.4190 -0.9961  1.3650
  337TIP3    H222427   2.812   3.657  13.682 -1.1707  2.3218  2.1896
  338TIP3   OH222428   4.459   4.989  16.112  0.2110 -0.7515  0.1409
  338TIP3    H122429   4.482   4.992  16.019 -0.3482 -1.0442 -0.0136
  338TIP3    H222430   4.455   5.081  16.139  0.2292 -0.6614 -0.1601
  339TIP3   OH222431   0.445   1.887   1.973 -0.1977 -0.2050 -0.2863
  339TIP3    H122432   0.502   1.939   1.917 -1.9013  0.6773 -1.3031
  339TIP3    H222433   0.359   1.891   1.931 -1.1218 -1.1617  1.3568
  340TIP3   OH222434   6.032   0.325  11.358  0.6619 -0.5407 -0.7762
  340TIP3    H122435   5.948   0.288  11.332 -0.5037  1.2315  0.2516
  340TIP3    H222436   6.048   0.396  11.296  1.0253 -0.4061 -0.5358
  341TIP3   OH222437   2.430   6.214  10.830 -0.1394 -0.5377  0.1872
  341TIP3    H122438   2.460   6.283  10.890  1.0107  1.3281 -2.3763
  341TIP3    H222439   2.497   6.146  10.837 -0.3079 -0.6160  1.3481
  342TIP3   OH222440   5.200   5.964  10.742 -0.1939 -0.1174 -0.1933
  342TIP3    H122441   5.175   5.998  10.657  1.0029 -0.3228 -0.6441
  342TIP3    H222442   5.255   6.032  10.780 -0.5326 -0.1241  0.3277
  343TIP3   OH222443   5.206   0.945   0.853 -0.0861  0.4078 -0.4087
  343TIP3    H122444   5.213   0.922   0.761 -1.2429 -0.6469 -0.2671
  343TIP3    H222445   5.197   0.861   0.898 -1.6401  0.9751  0.4223
  344TIP3   OH222446   2.505   2.668  15.354 -0.2580  0.6202 -0.0013
  344TIP3    H122447   2.477   2.636  15.440  0.3155  1.1064  0.3699
  344TIP3    H222448   2.447   2.623  15.292  1.3339 -2.1518  0.3654
  345TIP3   OH222449   3.772   0.789   2.747  0.1404 -0.1276 -0.3185
  345TIP3    H122450   3.749   0.748   2.664 -1.1474 -2.6731  1.1852
  345TIP3    H222451   3.809   0.719   2.800 -0.6072  0.9917  1.8431
  346TIP3   OH222452   5.996   6.141   1.975 -0.1904 -0.2208  0.0492
  346TIP3    H122453   6.062   6.145   2.044 -0.3786  1.8633  0.1782
  346TIP3    H222454   5.960   6.053   1.981 -0.8775  0.1643  3.2547
  347TIP3   OH222455   1.266   3.938  16.499 -0.0449 -0.5077  0.3563
  347TIP3    H122456   1.257   3.850  16.464  2.0596 -1.5913  2.2819
  347TIP3    H222457   1.276   3.926  16.593 -0.7459  1.8954  0.8056
  348TIP3   OH222458   1.633   0.206  12.341  0.1506  0.5279 -0.5286
  348TIP3    H122459   1.644   0.290  12.385 -1.7811  0.2013  0.6681
  348TIP3    H222460   1.588   0.227  12.260 -1.6140  0.5497  0.4163
  349TIP3   OH222461   4.938   6.450   3.243 -0.2945 -0.1197 -0.2357
  349TIP3    H122462   5.023   6.493   3.257 -0.3666  0.0847 -0.4119
  349TIP3    H222463   4.946   6.409   3.156  0.7964 -2.9088  1.0652
  350TIP3   OH222464   1.603   5.943   1.355  0.6111 -0.6850  0.1839
  350TIP3    H122465   1.647   5.944   1.440  0.1673 -1.9953  0.4569
  350TIP3    H222466   1.616   5.854   1.322  0.2082 -0.3914 -0.8296
  351TIP3   OH222467   4.486   6.597  13.419  0.0156  0.5597 -0.1210
  351TIP3    H122468   4.522   6.511  13.396 -2.1847  0.0250 -1.8519
  351TIP3    H222469   4.415   6.578  13.481  0.1256  1.2390  0.2274
  352TIP3   OH222470   2.771   4.126   2.707 -0.0182 -0.2084 -0.0844
  352TIP3    H122471   2.794   4.154   2.619 -0.4170 -1.2509 -0.5330
  352TIP3    H222472   2.710   4.054   2.695 -0.3716 -0.1273  1.0510
  353TIP3   OH222473   4.538   4.238  14.291 -0.1216 -0.5331 -0.1215
  353TIP3    H122474   4.538   4.321  14.339  0.3141 -1.0500  0.7951
  353TIP3    H222475   4.476   4.252  14.219  0.2565  0.7211 -0.2260
  354TIP3   OH222476   2.768   5.259   0.489  0.6432 -0.5858 -0.1406
  354TIP3    H122477   2.674   5.267   0.508  0.5232  0.2320 -1.0163
  354TIP3    H222478   2.773   5.198   0.416  0.9442 -2.0238  1.0455
  355TIP3   OH222479   4.684   2.197   4.804  0.6635  0.4056  0.2381
  355TIP3    H122480   4.751   2.179   4.739  0.2913 -0.1146 -0.0067
  355TIP3    H222481   4.604   2.159   4.768  0.5558 -0.3418  1.2209
  356TIP3   OH222482   0.708   3.688   2.549 -0.0734 -0.4413  0.1539
  356TIP3    H122483   0.711   3.699   2.454 -0.2934  0.6498  0.2596
  356TIP3    H222484   0.741   3.771   2.584 -0.7220 -0.5453  1.0381
  357TIP3   OH222485   3.234   3.922  15.569  0.0950  0.3423  0.0160
  357TIP3    H122486   3.149   3.903  15.610 -0.1119  0.8597 -0.1513
  357TIP3    H222487   3.246   3.852  15.505  0.0995 -0.0924  0.4852
  358TIP3   OH222488   5.837   1.023   1.622  0.7339  0.2445  0.2972
  358TIP3    H122489   5.913   1.030   1.681  1.0276  0.2294 -0.0790
  358TIP3    H222490   5.826   0.929   1.608  1.0631  0.2793 -0.1901
  359TIP3   OH222491   3.338   6.352  12.599  0.2286 -0.7348 -0.1731
  359TIP3    H122492   3.259   6.352  12.544 -0.9702 -0.0240  1.4568
  359TIP3    H222493   3.370   6.442  12.593  0.7632 -0.9459 -0.5853
  360TIP3   OH222494   6.147   5.244   2.802 -0.0061 -0.1826  0.2091
  360TIP3    H122495   6.187   5.260   2.888 -2.9603  0.5772  1.5795
  360TIP3    H222496   6.056   5.224   2.822 -1.1062  1.2098 -2.8194
  361TIP3   OH222497   5.596   4.784   2.557  0.0599 -0.2324  0.2080
  361TIP3    H122498   5.647   4.846   2.609  0.1903 -0.1048 -0.0660
  361TIP3    H222499   5.574   4.713   2.617 -1.6211  0.9069  1.0555
  362TIP3   OH222500   2.242   1.794  15.599  0.0549 -0.5860  0.0629
  362TIP3    H122501   2.169   1.831  15.648  0.1011  1.7486 -1.4892
  362TIP3    H222502   2.315   1.795  15.660 -0.8465 -1.6434  1.1992
  363TIP3   OH222503   1.938   2.269   0.115 -0.0138 -0.0634 -0.3729
  363TIP3    H122504   2.030   2.252   0.095 -0.2315 -2.1443  0.1799
  363TIP3    H222505   1.940   2.339   0.180  0.9921  1.9811 -2.4571
  364TIP3   OH222506   5.125   6.451  11.412 -0.0776  0.1068 -0.4646
  364TIP3    H122507   5.108   6.393  11.338 -3.2342  0.5275 -0.2386
  364TIP3    H222508   5.150   6.534  11.371  1.2043 -0.4602 -0.8935
  365TIP3   OH222509   3.970   5.552   2.670 -0.4928  0.1378 -0.2499
  365TIP3    H122510   4.009   5.631   2.632  0.7676 -0.1553  0.3991
  365TIP3    H222511   3.989   5.483   2.607 -0.3279  0.0774 -0.1351
  366TIP3   OH222512   0.621   2.120  17.327 -0.7806 -0.4123  0.0540
  366TIP3    H122513   0.595   2.057  17.394 -0.4267 -0.8721 -0.2294
  366TIP3    H222514   0.710   2.146  17.351 -1.0327  0.2018  0.3300
  367TIP3   OH222515   1.586   2.319   1.674  0.5200  0.2061 -0.3558
  367TIP3    H122516   1.616   2.375   1.746  3.3695  0.0539 -1.2769
  367TIP3    H222517   1.634   2.237   1.686  1.9511  0.5416 -2.9135
  368TIP3   OH222518   3.639   4.844  13.387 -0.1941  0.3882 -0.0158
  368TIP3    H122519   3.706   4.902  13.424 -0.9420  1.9645 -0.9893
  368TIP3    H222520   3.673   4.821  13.300  0.4071 -1.2396  0.6187
  369TIP3   OH222521   1.543   3.937   5.823 -0.6385  0.1491  0.9971
  369TIP3    H122522   1.556   4.016   5.771 -0.7434  0.0567  0.8277
  369TIP3    H222523   1.467   3.895   5.782 -0.3143 -0.2603  0.8203
  370TIP3   OH222524   5.845   4.442  16.925  0.1136 -0.7098  0.3316
  370TIP3    H122525   5.911   4.448  16.995  0.2751 -0.3426  0.1463
  370TIP3    H222526   5.869   4.511  16.863 -0.3655 -0.6655  0.1937
  371TIP3   OH222527   6.399   2.740   2.430  0.3748 -0.5067 -0.1678
  371TIP3    H122528   6.462   2.806   2.400 -0.0104  0.4670  1.0591
  371TIP3    H222529   6.346   2.786   2.496  0.2428 -2.1065  0.9000
  372TIP3   OH222530   4.976   5.250  17.335 -0.5038  0.4425  0.1767
  372TIP3    H122531   5.032   5.324  17.359  1.3753 -0.7454 -0.3038
  372TIP3    H222532   5.033   5.192  17.285 -2.2688 -0.7373 -0.5904
  373TIP3   OH222533   0.374   2.939   3.176 -0.2542 -0.4801  0.0172
  373TIP3    H122534   0.421   2.906   3.253 -0.2432 -0.1765  0.1388
  373TIP3    H222535   0.427   3.012   3.144 -0.9177  0.2190  0.4747
  374TIP3   OH222536   5.286   4.684   5.462  0.3953 -0.9686 -0.4358
  374TIP3    H122537   5.376   4.707   5.439  0.5049 -0.0637  0.7851
  374TIP3    H222538   5.274   4.720   5.550 -1.2986 -0.6956 -0.7475
  375TIP3   OH222539   2.324   1.644  13.319  0.6070  0.4744  0.5279
  375TIP3    H122540   2.281   1.729  13.312  2.0281  1.1069 -1.3345
  375TIP3    H222541   2.415   1.660  13.293  0.8875 -1.6383 -0.0453
  376TIP3   OH222542   0.014   4.201  11.286 -0.4385  0.7020  0.3810
  376TIP3    H122543   0.050   4.289  11.302  0.2664  0.4107  0.4612
  376TIP3    H222544   0.051   4.147  11.355 -1.0396  0.3808  0.4559
  377TIP3   OH222545   1.216   5.315  12.650  0.0379  0.0009 -0.0763
  377TIP3    H122546   1.153   5.377  12.687 -0.2076 -0.2295 -0.1048
  377TIP3    H222547   1.292   5.321  12.707  0.3301  0.9186 -0.5379
  378TIP3   OH222548   3.350   3.328  13.335 -0.0189 -0.0499  0.1430
  378TIP3    H122549   3.310   3.330  13.248 -0.9621 -0.6284  0.5517
  378TIP3    H222550   3.398   3.411  13.341  1.8397 -0.8930 -1.7444
  379TIP3   OH222551   0.400   1.901   5.832  0.0048 -0.2725 -0.0031
  379TIP3    H122552   0.333   1.890   5.764 -1.7675  0.5238  1.5361
  379TIP3    H222553   0.449   1.819   5.831 -1.0573 -0.9313 -1.1080
  380TIP3   OH222554   3.065   4.756   6.305 -0.5518 -0.6125 -0.2349
  380TIP3    H122555   3.106   4.781   6.388  0.5545 -2.2390 -0.2489
  380TIP3    H222556   2.971   4.761   6.323 -0.3867  1.2419  0.4049
  381TIP3   OH222557   1.633   6.458  10.623 -0.2146 -0.0885 -0.1903
  381TIP3    H122558   1.596   6.522  10.563  1.1210  1.4091  0.4925
  381TIP3    H222559   1.716   6.498  10.651  0.3591 -1.8534  0.7444
  382TIP3   OH222560   1.407   2.739   6.325 -0.3555 -0.3674 -0.6808
  382TIP3    H122561   1.328   2.708   6.280 -0.1703 -1.5257 -0.2562
  382TIP3    H222562   1.373   2.783   6.403 -0.6043 -0.6649 -0.6143
  383TIP3   OH222563   4.380   4.246  16.159 -0.2105  0.5066  0.1708
  383TIP3    H122564   4.431   4.185  16.105  0.7110  0.8895  0.5837
  383TIP3    H222565   4.293   4.246  16.120  0.4204  0.7410 -1.3000
  384TIP3   OH222566   5.522   6.725   5.736  0.2046 -0.5064 -0.2299
  384TIP3    H122567   5.572   6.668   5.677  3.2104  0.9849  0.6912
  384TIP3    H222568   5.491   6.796   5.680  0.1654 -0.8061 -0.5927
  385TIP3   OH222569   3.170   6.305  17.108 -0.4044  0.6535 -0.6768
  385TIP3    H122570   3.131   6.244  17.171  1.6538 -1.0405 -0.9342
  385TIP3    H222571   3.143   6.270  17.023 -1.5903  1.8307 -0.8150
  386TIP3   OH222572   0.852   6.455   5.040  0.4268  0.4688  0.1755
  386TIP3    H122573   0.914   6.403   5.090  0.3846  1.6094  1.4957
  386TIP3    H222574   0.905   6.504   4.977  0.4340 -1.3209 -1.2701
  387TIP3   OH222575   5.164   4.825   5.223 -0.3318  0.1628 -0.0836
  387TIP3    H122576   5.242   4.862   5.182 -1.2796  1.9368 -0.3681
  387TIP3    H222577   5.128   4.897   5.276 -0.8994 -1.1065  1.3341
  388TIP3   OH222578   6.018   2.844  13.791 -0.2326  0.1705  0.1264
  388TIP3    H122579   5.932   2.845  13.750 -0.2316 -1.1684  0.0296
  388TIP3    H222580   6.004   2.804  13.877  0.1011  1.0861  0.6201
  389TIP3   OH222581   5.768   4.276  10.836 -0.3788  0.2572  0.5578
  389TIP3    H122582   5.830   4.250  10.904  0.0674  0.5303  0.2590
  389TIP3    H222583   5.822   4.318  10.770 -1.0079  1.4279  0.7689
  390TIP3   OH222584   3.638   4.920   5.733 -0.1170 -0.7208 -0.1383
  390TIP3    H122585   3.544   4.936   5.726 -0.4054 -2.4077 -0.7084
  390TIP3    H222586   3.679   5.005   5.720 -1.5501 -0.0489 -0.3688
  391TIP3   OH222587   4.267   2.674   1.125 -0.2683 -0.4988  0.7093
  391TIP3    H122588   4.262   2.579   1.142 -0.5942 -0.1926  2.5984
  391TIP3    H222589   4.241   2.714   1.208 -3.4792  1.2957 -0.9714
  392TIP3   OH222590   6.343   1.855  13.541  0.0367  0.4117 -0.1471
  392TIP3    H122591   6.382   1.935  13.575 -1.5790  0.9106  0.6436
  392TIP3    H222592   6.269   1.837  13.599 -0.2765 -1.0671 -0.9369
  393TIP3   OH222593   3.889   4.022  11.865  0.1612 -0.5123 -0.2750
  393TIP3    H122594   3.924   4.051  11.781  2.1507 -0.9003  0.3700
  393TIP3    H222595   3.966   4.009  11.920 -1.1167  1.8078  2.3335
  394TIP3   OH222596   2.065   1.620   1.290 -0.2429 -0.7860  0.7919
  394TIP3    H122597   1.970   1.617   1.296 -0.6703  0.2262 -2.7945
  394TIP3    H222598   2.088   1.554   1.225  1.0906  0.9899 -0.6909
  395TIP3   OH222599   4.664   0.381   0.048  0.5868 -0.3429  0.3491
  395TIP3    H122600   4.590   0.385  -0.012  1.1603 -0.7494 -0.4191
  395TIP3    H222601   4.738   0.412  -0.004  1.1719 -1.0723  0.7254
  396TIP3   OH222602   2.348   2.745   1.509 -0.1217  0.3749 -0.3603
  396TIP3    H122603   2.353   2.764   1.603  0.6103  0.1580 -0.3475
  396TIP3    H222604   2.379   2.655   1.502 -1.9783 -0.2865 -0.6064
  397TIP3   OH222605   1.521   5.603   3.830  0.1810 -0.1975  0.2559
  397TIP3    H122606   1.587   5.653   3.784  1.1593 -1.5356  0.1363
  397TIP3    H222607   1.527   5.515   3.792 -0.7301 -0.6831  1.1873
  398TIP3   OH222608   1.292   3.115   5.720  0.1596  0.0202  0.1877
  398TIP3    H122609   1.307   3.111   5.626  0.1956 -1.2621  0.2288
  398TIP3    H222610   1.368   3.072   5.759 -1.3395 -2.4552  0.6051
  399TIP3   OH222611   6.702   5.345  17.159 -0.2620 -0.3801 -0.1521
  399TIP3    H122612   6.722   5.433  17.191 -2.2148 -0.2122  0.7754
  399TIP3    H222613   6.785   5.313  17.123  0.7677  1.4019  0.4954
  400TIP3   OH222614   0.496   2.036  14.986 -0.5677 -0.3075  0.3736
  400TIP3    H122615   0.583   2.000  14.969 -0.1631  1.1589 -0.7723
  400TIP3    H222616   0.458   1.975  15.050  1.7018 -0.3603  1.7843
  401TIP3   OH222617   4.914   1.476   2.397 -0.2543 -0.4463 -0.3920
  401TIP3    H122618   4.825   1.450   2.377 -0.6853  0.1503  0.6425
  401TIP3    H222619   4.925   1.454   2.490  0.1654  0.7932 -0.1290
  402TIP3   OH222620   3.364   1.716   5.923 -0.4411  0.2904 -0.1412
  402TIP3    H122621   3.304   1.655   5.880  0.4949 -0.9284  0.2407
  402TIP3    H222622   3.379   1.678   6.010  1.6931 -0.0143 -0.6037
  403TIP3   OH222623   0.555   5.374  14.884 -0.1942 -0.2602  0.4987
  403TIP3    H122624   0.541   5.347  14.793 -2.1702 -1.2438  1.0206
  403TIP3    H222625   0.468   5.364  14.924  0.4669  0.9101  2.3004
  404TIP3   OH222626   3.844   4.571  13.915  0.3875 -0.4221 -0.4694
  404TIP3    H122627   3.805   4.621  13.843  1.3912 -0.7947 -1.3053
  404TIP3    H222628   3.915   4.521  13.874  1.7858  0.2729  0.9757
  405TIP3   OH222629   3.654   3.896  11.574 -0.6253  0.0034 -0.0488
  405TIP3    H122630   3.659   3.801  11.569 -0.6550  0.0042 -0.0944
  405TIP3    H222631   3.566   3.917  11.543 -0.1605  0.1371 -1.3555
  406TIP3   OH222632   1.812   1.339  17.122 -0.5212  0.0043  0.1273
  406TIP3    H122633   1.830   1.430  17.099  1.0268 -0.2900  0.0712
  406TIP3    H222634   1.800   1.295  17.038 -1.1751  0.1260  0.1513
  407TIP3   OH222635   2.466   1.603   1.602  0.1102  0.7255 -0.3215
  407TIP3    H122636   2.465   1.666   1.530 -0.6329 -1.4981 -2.3954
  407TIP3    H222637   2.376   1.602   1.635 -0.0366  0.3272 -0.7199
  408TIP3   OH222638   2.135   0.173  16.391  0.5892  0.1163 -0.7232
  408TIP3    H122639   2.128   0.124  16.473  0.9968 -1.2448 -1.4660
  408TIP3    H222640   2.045   0.193  16.367  0.4941  1.0050  0.3220
  409TIP3   OH222641   4.824   3.623   4.417 -0.4549 -0.1246  0.5410
  409TIP3    H122642   4.911   3.621   4.376 -0.6685 -0.1354  0.0823
  409TIP3    H222643   4.825   3.703   4.470 -0.2752  0.0510  0.2804
  410TIP3   OH222644   2.384   5.352   3.594  0.4524 -0.1536  0.2408
  410TIP3    H122645   2.343   5.358   3.507 -0.6006 -1.5994  0.5920
  410TIP3    H222646   2.477   5.340   3.575  0.1108 -1.5022 -0.7575
  411TIP3   OH222647   3.956   0.461   5.294 -0.1942  0.4019  0.1810
  411TIP3    H122648   3.972   0.460   5.389  2.6394  1.3007 -0.1793
  411TIP3    H222649   3.899   0.536   5.280 -0.1293  0.6383  1.1294
  412TIP3   OH222650   0.342   1.257  11.740  0.0282  0.2819 -0.0046
  412TIP3    H122651   0.258   1.297  11.761  1.3022  2.6021  0.9354
  412TIP3    H222652   0.407   1.326  11.752  1.9170 -0.8034 -2.6789
  413TIP3   OH222653   4.716   0.975  13.728 -0.2505 -0.3473 -0.3357
  413TIP3    H122654   4.765   0.911  13.779 -0.4405 -0.8687 -0.7989
  413TIP3    H222655   4.755   1.059  13.752  0.7697 -0.7277 -0.5627
  414TIP3   OH222656   1.851   5.826  12.388  0.0199 -0.6588 -0.2520
  414TIP3    H122657   1.758   5.825  12.412 -0.1682  0.2499 -0.9102
  414TIP3    H222658   1.886   5.903  12.433  0.1403 -0.1909 -1.1440
  415TIP3   OH222659   5.022   1.998  13.251  0.2468  0.6555  0.2247
  415TIP3    H122660   5.080   2.032  13.183  0.1059  0.7446  0.1499
  415TIP3    H222661   5.064   1.917  13.280 -0.7044 -0.4639 -1.3790
  416TIP3   OH222662   5.654   6.341   4.786 -0.0315  0.2223 -0.3388
  416TIP3    H122663   5.567   6.303   4.801  0.1799 -0.0570  0.2507
  416TIP3    H222664   5.642   6.435   4.799  0.6270 -0.1268  4.6392
  417TIP3   OH222665   5.551   0.900  13.918 -0.0047  0.9692 -0.5555
  417TIP3    H122666   5.480   0.906  13.855  2.3541 -1.1176 -3.7337
  417TIP3    H222667   5.610   0.972  13.894 -0.3899  2.0018  1.3386
  418TIP3   OH222668   0.158   1.629  15.186  0.0267  0.2163  0.9321
  418TIP3    H122669   0.224   1.561  15.170  0.6870  0.8479  0.9162
  418TIP3    H222670   0.122   1.608  15.272  1.0403  0.4965  1.4381
  419TIP3   OH222671   4.433   3.889   5.562 -0.2703 -0.2837  0.4413
  419TIP3    H122672   4.488   3.884   5.484  0.9856  0.8672  1.2144
  419TIP3    H222673   4.379   3.810   5.558  1.9325 -1.8824 -0.0025
  420TIP3   OH222674   6.571   0.800  11.393  0.2449  0.2737  0.1007
  420TIP3    H122675   6.611   0.765  11.313 -0.4214  0.3765 -0.2809
  420TIP3    H222676   6.610   0.748  11.463  3.0703  2.0677  0.0258
  421TIP3   OH222677   1.995   0.990   2.651  0.1341  0.1863  0.1670
  421TIP3    H122678   1.972   0.897   2.663  0.3445  0.1396  0.2077
  421TIP3    H222679   1.927   1.037   2.700 -0.3999  0.0839 -0.4631
  422TIP3   OH222680   3.611   3.275   5.081 -0.1874 -0.7470  0.6249
  422TIP3    H122681   3.665   3.227   5.143  0.5625 -1.4053 -0.4874
  422TIP3    H222682   3.639   3.366   5.090  1.1213 -1.0686  0.0958
  423TIP3   OH222683   3.809   6.060  15.092 -0.0648 -0.8096  0.4468
  423TIP3    H122684   3.885   6.021  15.137  0.8337  0.0083 -0.3385
  423TIP3    H222685   3.828   6.154  15.090 -0.1128 -0.7988 -1.5333
  424TIP3   OH222686   2.022   6.658  11.376 -0.0075 -0.0568  0.0616
  424TIP3    H122687   2.027   6.697  11.289 -0.4672 -0.8144 -0.3193
  424TIP3    H222688   2.038   6.730  11.436  0.9188  0.3596 -0.6635
  425TIP3   OH222689   1.484   4.227   4.199  0.3204 -0.3047 -0.7326
  425TIP3    H122690   1.440   4.147   4.172  0.1054 -0.7062  0.7523
  425TIP3    H222691   1.576   4.203   4.204  0.3688 -0.2138 -1.1079
  426TIP3   OH222692   2.004   0.668  11.258  0.1656 -0.1432 -0.1881
  426TIP3    H122693   1.939   0.737  11.244 -1.8501 -1.6586  1.0464
  426TIP3    H222694   2.028   0.638  11.170 -3.2943 -1.6364 -0.7855
  427TIP3   OH222695   4.206   2.243   3.145  0.2874  0.6215 -0.5091
  427TIP3    H122696   4.134   2.298   3.175  0.2694  0.5948 -0.5024
  427TIP3    H222697   4.283   2.300   3.145  0.0172  1.0253 -1.8098
  428TIP3   OH222698   3.058   0.062   2.834 -0.3771 -0.0489  0.2501
  428TIP3    H122699   3.069  -0.033   2.841 -0.6467 -0.2564 -1.6959
  428TIP3    H222700   3.121   0.089   2.767 -1.3636  0.9211 -0.3213
  429TIP3   OH222701   5.651   6.002  13.116 -0.1307 -0.4444 -0.3500
  429TIP3    H122702   5.691   5.963  13.039  1.9155  0.4863  0.1696
  429TIP3    H222703   5.646   5.930  13.180  1.8310 -0.3999 -0.0572
  430TIP3   OH222704   2.364   4.176  12.239 -0.1023  0.0283  0.1648
  430TIP3    H122705   2.441   4.148  12.190 -0.5561 -0.1029 -0.4883
  430TIP3    H222706   2.328   4.095  12.276  1.4711  0.3557  2.6001
  431TIP3   OH222707   4.903   5.110  14.522  0.0910  0.3773  0.2615
  431TIP3    H122708   4.812   5.130  14.500  0.3980 -0.1794 -1.6604
  431TIP3    H222709   4.951   5.191  14.505  0.3793 -0.1425 -1.5922
  432TIP3   OH222710   2.428   0.555   4.103  0.0318 -0.2448 -0.2258
  432TIP3    H122711   2.371   0.519   4.171 -0.4621  0.8286 -0.0448
  432TIP3    H222712   2.516   0.532   4.131 -0.2249 -0.6376  0.2794
  433TIP3   OH222713   2.588   5.686   4.802  0.2651 -0.1384  0.1808
  433TIP3    H122714   2.612   5.618   4.866 -1.2504  0.2131  1.1697
  433TIP3    H222715   2.541   5.638   4.734 -2.1179 -0.0137  1.5883
  434TIP3   OH222716   5.682   0.948   5.217  0.2874 -0.3799  0.3173
  434TIP3    H122717   5.674   1.020   5.154 -1.2179 -1.4551 -0.8032
  434TIP3    H222718   5.752   0.976   5.276 -0.5329  2.1946  0.2102
  435TIP3   OH222719   4.296   1.349  15.727 -0.6936 -0.8147  0.2367
  435TIP3    H122720   4.294   1.300  15.809 -0.5909 -1.2499 -0.0186
  435TIP3    H222721   4.321   1.438  15.752  2.5660 -1.6340  0.3347
  436TIP3   OH222722   4.642   4.350   4.454 -0.1382 -0.1603 -0.4998
  436TIP3    H122723   4.647   4.414   4.525 -1.1560 -0.1404 -0.4316
  436TIP3    H222724   4.729   4.352   4.413 -0.0676  1.0482 -0.3193
  437TIP3   OH222725   6.696   4.205  13.226  0.0157  0.1821 -0.4477
  437TIP3    H122726   6.713   4.269  13.157 -1.4134  2.4735  1.2201
  437TIP3    H222727   6.760   4.226  13.294 -0.6803  0.0361  0.2538
  438TIP3   OH222728   5.014   1.261  16.774 -0.3709 -0.4055 -0.1020
  438TIP3    H122729   4.990   1.346  16.737 -1.3251 -0.6901 -0.1780
  438TIP3    H222730   5.091   1.233  16.725  0.1755  0.5716  0.1662
  439TIP3   OH222731   3.088   5.914  16.831 -0.0573  0.8477 -0.0034
  439TIP3    H122732   3.146   5.896  16.905  0.1623  2.5660  0.3029
  439TIP3    H222733   3.012   5.858  16.845  0.8345 -0.2863  0.4429
  440TIP3   OH222734   2.292   6.534  11.320 -0.0947  0.0814  0.1244
  440TIP3    H122735   2.209   6.580  11.326 -0.4849 -0.8226  2.8067
  440TIP3    H222736   2.269   6.441  11.316  0.7608 -0.0991 -1.2383
  441TIP3   OH222737   1.815   2.925   3.531 -0.1118  0.4108 -0.6673
  441TIP3    H122738   1.773   2.853   3.577 -1.6830  1.1718 -0.8424
  441TIP3    H222739   1.888   2.951   3.588 -0.1235 -0.6768 -0.1401
  442TIP3   OH222740   4.745   4.954  11.403  0.0327  0.0690  0.5553
  442TIP3    H122741   4.699   4.981  11.324  0.1618 -2.4862 -0.4780
  442TIP3    H222742   4.822   5.011  11.406  0.8093 -0.7096 -2.0211
  443TIP3   OH222743   1.126   4.683  11.104  0.4418 -0.1237  0.1938
  443TIP3    H122744   1.062   4.616  11.081  0.8166 -0.2987 -0.3546
  443TIP3    H222745   1.132   4.739  11.026 -0.2313  0.8467  0.8186
  444TIP3   OH222746   3.204   0.877   1.670 -0.0449 -0.2302 -0.1384
  444TIP3    H122747   3.179   0.851   1.758 -2.0443  0.1793 -0.5272
  444TIP3    H222748   3.296   0.851   1.662  0.1586 -0.3374  2.0113
  445TIP3   OH222749   4.605   0.914  12.283 -0.6096  0.8235 -0.4135
  445TIP3    H122750   4.650   0.831  12.297  1.6685  2.0417  0.0718
  445TIP3    H222751   4.671   0.980  12.305 -2.1376  2.7603 -1.3795
  446TIP3   OH222752   2.635   3.787   4.890  0.0240  0.3669 -0.9004
  446TIP3    H122753   2.560   3.741   4.854  1.1132 -1.3105 -1.1806
  446TIP3    H222754   2.711   3.740   4.854  1.1797  0.0303  1.7369
  447TIP3   OH222755   6.039   1.657   3.208 -0.2727 -0.1476  0.1358
  447TIP3    H122756   6.096   1.675   3.134  0.5784 -0.4960  0.6976
  447TIP3    H222757   6.090   1.600   3.266 -1.2493 -0.6261  0.5635
  448TIP3   OH222758   2.938   0.658   4.995  0.3630 -0.0643 -0.2504
  448TIP3    H122759   2.938   0.584   4.935 -0.9941 -1.3949  1.2890
  448TIP3    H222760   2.846   0.680   5.007  0.5316 -0.2716  1.7845
  449TIP3   OH222761   1.233   2.174   1.550  0.2270  0.7604 -0.5279
  449TIP3    H122762   1.303   2.110   1.566 -1.0976 -0.5972  0.0058
  449TIP3    H222763   1.217   2.213   1.636  1.1048  1.9438 -0.8707
  450TIP3   OH222764   6.482   3.471  13.653 -0.5880 -0.0340 -0.3807
  450TIP3    H122765   6.530   3.406  13.704  0.3144 -1.1199 -2.4901
  450TIP3    H222766   6.394   3.470  13.691 -0.0849 -1.0753  0.8607
  451TIP3   OH222767   1.328   2.920  15.077  0.1072  0.4189 -0.5737
  451TIP3    H122768   1.284   2.896  14.995 -0.4535  1.3891 -0.5768
  451TIP3    H222769   1.339   3.015  15.071 -0.8213  0.6542  0.8792
  452TIP3   OH222770   5.779   4.964  15.455 -0.0518  0.0037 -0.4140
  452TIP3    H122771   5.838   4.995  15.525 -2.7042  1.8794  1.1995
  452TIP3    H222772   5.792   5.027  15.384  0.7917 -0.3774 -0.6137
  453TIP3   OH222773   4.803   0.127  15.985  0.5208  0.2849  0.2646
  453TIP3    H122774   4.735   0.186  15.952 -0.8935 -2.1947 -1.6143
  453TIP3    H222775   4.867   0.121  15.914  1.2142  0.3587  0.8689
  454TIP3   OH222776   4.754   1.372  11.056  0.3161  0.3546 -0.0500
  454TIP3    H122777   4.693   1.445  11.062  0.4935  0.6347 -1.2926
  454TIP3    H222778   4.839   1.414  11.036  0.2518 -0.2102 -1.6461
  455TIP3   OH222779   2.035   0.722  14.445  0.2078 -0.1925 -0.1890
  455TIP3    H122780   1.967   0.657  14.428 -0.9768  1.4887 -2.3953
  455TIP3    H222781   2.000   0.774  14.517  0.2580 -0.7470  0.2474
  456TIP3   OH222782   5.835   1.784  14.264 -0.4789 -0.1494  0.2771
  456TIP3    H122783   5.825   1.799  14.170  0.5568 -1.4629 -0.0855
  456TIP3    H222784   5.777   1.848  14.306 -0.6022  0.7664 -1.2339
  457TIP3   OH222785   6.535   0.223  14.236 -0.1142 -0.3099  0.0110
  457TIP3    H122786   6.604   0.289  14.236 -0.6265  0.2453  0.6237
  457TIP3    H222787   6.494   0.232  14.322  0.4398 -2.1126  0.4953
  458TIP3   OH222788   5.847   5.434  12.713 -0.4037 -0.2519 -0.5029
  458TIP3    H122789   5.922   5.493  12.723 -0.2398 -0.0432 -2.5514
  458TIP3    H222790   5.885   5.352  12.682 -0.8112 -0.9296  0.7113
  459TIP3   OH222791   2.289   1.906   3.992  0.0346  0.1683 -1.0494
  459TIP3    H122792   2.241   1.960   3.929 -0.6479  0.0080 -0.6673
  459TIP3    H222793   2.326   1.970   4.054  0.7812  0.3345 -1.6393
  460TIP3   OH222794   3.189   0.658   4.072  0.0838 -0.7082 -0.1606
  460TIP3    H122795   3.198   0.678   3.978  0.9634  2.1743  0.4602
  460TIP3    H222796   3.276   0.625   4.097  1.1737  2.2632  0.3626
  461TIP3   OH222797   3.090   1.281   2.084  0.8430  0.1085 -0.0717
  461TIP3    H122798   3.076   1.223   2.159  1.2498  0.5998  0.3902
  461TIP3    H222799   3.009   1.275   2.034  0.8657 -0.8256 -0.0097
  462TIP3   OH222800   3.433   2.297   3.641  0.1338  0.1922 -0.1931
  462TIP3    H122801   3.408   2.381   3.603  0.2274 -0.6771 -2.3026
  462TIP3    H222802   3.519   2.313   3.681  0.5365  0.9307 -1.3019
  463TIP3   OH222803   6.113   5.446  14.453  0.2080  0.5453  0.7948
  463TIP3    H122804   6.101   5.499  14.374  1.3632 -2.3581 -1.5030
  463TIP3    H222805   6.038   5.386  14.452  0.8261 -0.2468  1.2470
  464TIP3   OH222806   1.080   2.418   4.218  0.1161  0.5376  0.3114
  464TIP3    H122807   1.174   2.422   4.236  0.5922  1.5461 -1.9635
  464TIP3    H222808   1.064   2.327   4.193  0.8015  0.6746 -0.6569
  465TIP3   OH222809   2.128   5.703   4.412 -0.5027 -0.2473 -0.3480
  465TIP3    H122810   2.042   5.693   4.454 -0.3187  0.0599  0.1176
  465TIP3    H222811   2.184   5.642   4.460 -0.5308 -0.6852 -0.8655
  466TIP3   OH222812   5.402   4.837  15.714  0.5110 -0.2855  0.2155
  466TIP3    H122813   5.309   4.828  15.734  0.1454  1.4079 -0.5694
  466TIP3    H222814   5.430   4.915  15.761  1.7168 -1.1131  0.9361
  467TIP3   OH222815   2.326   2.427  13.601  0.2009 -0.0974 -0.6136
  467TIP3    H122816   2.324   2.350  13.544  1.7177 -1.2402  0.7856
  467TIP3    H222817   2.235   2.439  13.628 -0.3818 -0.1583 -2.3916
  468TIP3   OH222818   4.577   1.645   4.957 -0.1193  0.1388  0.0846
  468TIP3    H122819   4.614   1.565   4.994  0.1726 -0.0011 -0.4914
  468TIP3    H222820   4.539   1.691   5.032 -2.7399 -1.7980  0.1188
  469TIP3   OH222821   1.987   5.270  15.197  0.2895 -0.4626  0.3091
  469TIP3    H122822   1.920   5.336  15.217  1.8108  0.3214  3.3992
  469TIP3    H222823   2.061   5.321  15.164  0.7442 -0.8687  0.7063
  470TIP3   OH222824   5.168   1.410  16.454 -1.0868  0.0114  0.1715
  470TIP3    H122825   5.130   1.380  16.372 -1.0864  0.8584 -0.1440
  470TIP3    H222826   5.099   1.463  16.495 -0.7078  0.4861  0.2028
  471TIP3   OH222827   1.752   3.428  11.817  0.7380 -0.3699  0.4725
  471TIP3    H122828   1.799   3.371  11.756  0.5066 -0.5785  0.4916
  471TIP3    H222829   1.728   3.504  11.764  1.1347 -0.2397  0.4716
  472TIP3   OH222830   1.119   5.509  16.834 -0.1993 -0.2210  0.0649
  472TIP3    H122831   1.196   5.494  16.780  0.7246 -1.5083  1.6477
  472TIP3    H222832   1.066   5.430  16.824 -0.5947  0.0250  0.1633
  473TIP3   OH222833   0.791   4.658   3.183  0.3747  0.0854  0.4961
  473TIP3    H122834   0.849   4.731   3.201  0.1950  0.0869  1.1056
  473TIP3    H222835   0.703   4.692   3.201  0.2217 -0.0566  0.0455
  474TIP3   OH222836   4.898   1.563  12.506  0.3316  0.2943 -0.4858
  474TIP3    H122837   4.918   1.633  12.568  0.6192  0.2204 -0.4935
  474TIP3    H222838   4.960   1.576  12.435  0.1221  0.2703 -0.6757
  475TIP3   OH222839   3.778   3.496   5.111  0.3072 -0.2065  0.3354
  475TIP3    H122840   3.833   3.524   5.184  1.5143  0.4200 -0.7891
  475TIP3    H222841   3.839   3.472   5.042 -0.8107 -0.8185 -0.4838
  476TIP3   OH222842   3.155   6.129  15.777  0.1617  0.2781 -0.6315
  476TIP3    H122843   3.195   6.216  15.775 -0.6763  0.6636 -0.9897
  476TIP3    H222844   3.223   6.072  15.813  0.8235  1.0252 -0.6804
  477TIP3   OH222845   1.351   4.875  16.496  0.3657 -0.0253  0.5030
  477TIP3    H122846   1.418   4.892  16.563  1.0208  0.1421 -0.1861
  477TIP3    H222847   1.362   4.946  16.433 -0.0044 -0.3920  0.0269
  478TIP3   OH222848   6.079   4.531   0.344  0.1556 -0.5116 -0.3640
  478TIP3    H122849   6.023   4.607   0.358  0.2292 -0.5665  0.2498
  478TIP3    H222850   6.026   4.472   0.290  0.0424 -0.0933 -0.7156
  479TIP3   OH222851   1.006   0.693  14.557 -0.1546 -1.0360  0.0064
  479TIP3    H122852   1.019   0.635  14.633  2.1339  1.2547  1.5075
  479TIP3    H222853   1.047   0.646  14.484  0.0570 -2.0759  0.7635
  480TIP3   OH222854   5.432   2.090   1.134 -0.3596 -0.3399 -0.3017
  480TIP3    H122855   5.344   2.095   1.171  0.0229 -0.6545  0.6802
  480TIP3    H222856   5.443   1.998   1.111 -0.1136 -0.3865  0.0058
  481TIP3   OH222857   3.080   4.548  12.671 -0.1463 -0.0595 -0.0755
  481TIP3    H122858   3.012   4.502  12.720 -3.0329  2.3082 -1.5653
  481TIP3    H222859   3.128   4.599  12.737 -1.8650  0.5866  0.7196
  482TIP3   OH222860   4.051   3.715  15.228  0.5413 -0.5256 -0.1099
  482TIP3    H122861   4.104   3.785  15.268 -0.3809 -0.3187  0.8025
  482TIP3    H222862   4.109   3.638  15.230  2.1908  0.5184 -2.6541
  483TIP3   OH222863   5.034   1.139  13.981  0.3160 -0.2701 -0.5473
  483TIP3    H122864   5.031   1.043  13.989  0.8504 -0.2420  0.0746
  483TIP3    H222865   5.111   1.155  13.926  0.4394 -0.1855 -0.3508
  484TIP3   OH222866   3.934   1.052   3.685 -0.1255 -0.1010  0.2736
  484TIP3    H122867   3.843   1.064   3.714 -0.7877 -2.4735 -0.5974
  484TIP3    H222868   3.962   0.971   3.728  0.8540 -0.5001 -1.0758
  485TIP3   OH222869   4.103   4.480   2.030  0.3341  0.3805 -0.6325
  485TIP3    H122870   4.177   4.432   2.066 -0.3713 -1.1458 -1.1243
  485TIP3    H222871   4.108   4.465   1.936 -1.4895 -1.1540 -0.5481
  486TIP3   OH222872   2.399   4.898   1.813 -0.4421 -0.4236  0.1587
  486TIP3    H122873   2.330   4.915   1.878 -0.0461 -0.4306  0.5855
  486TIP3    H222874   2.353   4.896   1.729 -1.1764 -1.7773  0.5614
  487TIP3   OH222875   0.825   0.376   4.795 -0.1654 -0.5677  0.2545
  487TIP3    H122876   0.848   0.293   4.754  0.7987 -1.6468  2.7507
  487TIP3    H222877   0.820   0.355   4.889 -1.1925  1.9307  0.8334
  488TIP3   OH222878   5.909   5.590  13.320  0.5570 -0.1377  0.1607
  488TIP3    H122879   5.852   5.585  13.396 -0.5431  0.3724 -0.6085
  488TIP3    H222880   5.922   5.684  13.306  0.2144 -0.2007 -0.6535
  489TIP3   OH222881   6.239   0.012  14.293  0.2366  0.7715  0.6813
  489TIP3    H122882   6.258  -0.047  14.366 -0.2222 -0.1230  0.0801
  489TIP3    H222883   6.218  -0.045  14.220 -0.3600  1.6773  0.1284
  490TIP3   OH222884   2.650   4.095   0.588  0.4115  0.1010  0.3710
  490TIP3    H122885   2.605   4.179   0.574  1.3289  0.3537 -1.4407
  490TIP3    H222886   2.743   4.118   0.590  0.7261 -0.9047 -0.9131
  491TIP3   OH222887   3.815   2.859   2.322  0.0276  0.1555  0.0572
  491TIP3    H122888   3.855   2.861   2.408  0.7492  1.3800 -0.2839
  491TIP3    H222889   3.884   2.829   2.263 -0.2261  0.0955 -0.2151
  492TIP3   OH222890   6.427   4.154  13.313  0.0982 -0.1180  0.2808
  492TIP3    H122891   6.393   4.076  13.356  0.2874 -0.7146 -0.6142
  492TIP3    H222892   6.521   4.138  13.304  0.2437  0.4907  0.6398
  493TIP3   OH222893   6.306   0.693   5.190 -0.4926  0.0794 -0.2082
  493TIP3    H122894   6.215   0.675   5.167 -0.7066 -1.7538  1.8150
  493TIP3    H222895   6.357   0.657   5.118 -1.2836 -1.9011  0.1519
  494TIP3   OH222896   4.939   1.223   3.125 -0.0991  0.4969 -0.4803
  494TIP3    H122897   4.986   1.140   3.128 -1.4851 -0.3356 -0.7812
  494TIP3    H222898   4.998   1.286   3.165  1.3113 -0.4681 -0.9768
  495TIP3   OH222899   0.297   6.160  12.154 -0.8492 -0.1430 -0.1255
  495TIP3    H122900   0.212   6.202  12.145 -0.1246  2.0347  2.1192
  495TIP3    H222901   0.345   6.187  12.075 -0.7963  2.4610  0.7099
  496TIP3   OH222902   4.116   2.785  15.625 -0.6844 -0.6282  0.0198
  496TIP3    H122903   4.146   2.695  15.636  1.2156 -0.1151 -0.4926
  496TIP3    H222904   4.066   2.785  15.544  1.7189 -0.7376 -1.5573
  497TIP3   OH222905   4.628   0.340  10.985 -0.5884  0.0278  0.1556
  497TIP3    H122906   4.550   0.284  10.981 -0.8605  0.3795  0.4337
  497TIP3    H222907   4.691   0.297  10.928 -1.2856  0.2042 -0.7874
  498TIP3   OH222908   2.912   2.869   2.143  0.0418 -0.1140 -0.1581
  498TIP3    H122909   2.986   2.866   2.083  0.3021 -2.8534  0.1597
  498TIP3    H222910   2.951   2.880   2.230 -0.1787  1.5549 -0.2459
  499TIP3   OH222911   2.204   3.676  16.571 -0.3051  0.0206  0.3136
  499TIP3    H122912   2.141   3.723  16.516 -0.5824  0.3364  0.8849
  499TIP3    H222913   2.288   3.685  16.525 -1.0038 -2.2684 -1.6075
  500TIP3   OH222914   3.251   1.326   5.544  0.4160  0.0069  0.2408
  500TIP3    H122915   3.302   1.350   5.467 -0.1868 -0.5882 -0.3629
  500TIP3    H222916   3.198   1.252   5.515 -1.7739  1.4095  0.4320
  501TIP3   OH222917   4.907   3.946  15.348 -0.4054  0.0743  0.2175
  501TIP3    H122918   4.854   3.916  15.421 -0.8009  0.9587  0.3031
  501TIP3    H222919   4.922   4.039  15.365 -0.7891  0.3784 -0.9825
  502TIP3   OH222920   6.554   2.427  10.671 -0.1867  0.2475 -0.1430
  502TIP3    H122921   6.567   2.474  10.753 -0.3624  0.3183 -0.1558
  502TIP3    H222922   6.551   2.495  10.604  3.6596  0.0774 -0.7391
  503TIP3   OH222923   2.136   2.937  16.022 -0.0039 -0.2983 -0.7178
  503TIP3    H122924   2.041   2.949  16.029  0.2061  1.0849  0.1586
  503TIP3    H222925   2.157   2.963  15.933 -0.3688  0.0216 -0.7107
  504TIP3   OH222926   5.838   1.108   0.017  0.4404 -0.6533 -0.3473
  504TIP3    H122927   5.921   1.077   0.052 -0.2731 -0.0220  2.1040
  504TIP3    H222928   5.838   1.202   0.034  0.2470 -0.1782 -2.6500
  505TIP3   OH222929   3.726   6.754   2.996 -0.2016 -0.1271  0.2693
  505TIP3    H122930   3.726   6.671   2.948 -0.9639 -0.0003  0.0339
  505TIP3    H222931   3.788   6.809   2.948  0.0182 -0.4322  0.1991
  506TIP3   OH222932   2.381   1.484   4.483  0.7212  0.2884  0.2183
  506TIP3    H122933   2.380   1.543   4.559  0.6932 -0.0596  0.4914
  506TIP3    H222934   2.456   1.513   4.431  1.4203 -0.1672  0.9399
  507TIP3   OH222935   3.193   4.063  11.588  0.5105  0.0009 -0.2001
  507TIP3    H122936   3.126   4.113  11.541 -0.1094  0.2380  0.8956
  507TIP3    H222937   3.181   3.973  11.558  0.8986  0.3135 -1.3510
  508TIP3   OH222938   4.120   1.175   2.225 -0.2676  0.2324  0.3384
  508TIP3    H122939   4.114   1.093   2.176  1.2566  0.2629  0.0428
  508TIP3    H222940   4.140   1.241   2.158 -0.2863  0.6332  0.7270
  509TIP3   OH222941   5.977   6.129  13.139  0.4242 -0.1012  0.1921
  509TIP3    H122942   5.921   6.058  13.170 -0.1807  0.6940  0.9626
  509TIP3    H222943   5.919   6.204  13.133  1.3792  0.7284  0.9591
  510TIP3   OH222944   4.652   3.798   1.353  0.4535  0.4826 -0.0385
  510TIP3    H122945   4.595   3.846   1.414  1.8301 -0.4315  2.0979
  510TIP3    H222946   4.621   3.823   1.266 -0.9163  2.7307  1.0079
  511TIP3   OH222947   1.937   4.421   4.977  0.1683 -0.3441 -0.8940
  511TIP3    H122948   1.892   4.401   5.060  1.7108 -0.8001 -0.1316
  511TIP3    H222949   1.888   4.495   4.941  0.2385  0.7614  1.1168
  512TIP3   OH222950   0.606   3.382   2.845 -0.7353 -0.2600  0.0477
  512TIP3    H122951   0.585   3.413   2.933  0.1175 -0.8912  0.4768
  512TIP3    H222952   0.653   3.301   2.858 -2.3154 -1.4264 -1.0410
  513TIP3   OH222953   0.824   1.950   6.666 -0.4767  0.4062  0.6074
  513TIP3    H122954   0.773   1.879   6.627  0.2752 -0.1939  0.6815
  513TIP3    H222955   0.787   2.029   6.629 -0.5231 -0.0942 -0.4654
  514TIP3   OH222956   3.719   4.290  14.361 -0.1598 -0.2249 -0.3581
  514TIP3    H122957   3.758   4.203  14.349 -0.6969 -0.7964  1.5690
  514TIP3    H222958   3.723   4.330  14.275  1.1443 -1.7279 -1.0594
  515TIP3   OH222959   6.289   6.459  16.405  0.8664  0.1989 -0.3028
  515TIP3    H122960   6.249   6.373  16.417  0.7982  0.0817 -1.3226
  515TIP3    H222961   6.236   6.518  16.460 -0.3226 -0.0679 -1.1373
  516TIP3   OH222962   2.357   3.796  12.006  0.2403 -0.5295 -0.5700
  516TIP3    H122963   2.357   3.735  12.080  3.0793  0.3403  0.2691
  516TIP3    H222964   2.436   3.774  11.958 -0.3149  0.5127 -2.0091
  517TIP3   OH222965   5.264   0.073   4.884 -0.2195 -0.0947 -0.2914
  517TIP3    H122966   5.178   0.112   4.868  0.2358  0.9944 -0.1950
  517TIP3    H222967   5.304   0.067   4.797 -0.2235 -0.1871 -0.2867
  518TIP3   OH222968   5.156   2.816   4.461 -0.1738 -0.2593 -0.3525
  518TIP3    H122969   5.140   2.723   4.476  1.5173 -0.4720  0.3867
  518TIP3    H222970   5.133   2.830   4.370 -0.7711 -1.3314 -0.3822
  519TIP3   OH222971   4.439   6.117  10.974  0.3705 -0.1562 -0.3337
  519TIP3    H122972   4.412   6.063  10.900 -3.4499  2.1249 -0.9070
  519TIP3    H222973   4.449   6.205  10.937  0.0495  0.7258  1.5514
  520TIP3   OH222974   2.135   2.008  15.822 -0.1625 -0.0682  0.4146
  520TIP3    H122975   2.113   2.055  15.902  2.9669  1.9271  0.2835
  520TIP3    H222976   2.169   2.076  15.763  0.6971 -1.9401 -1.3832
  521TIP3   OH222977   5.456   4.666   4.890  0.1223 -0.1558 -0.1184
  521TIP3    H122978   5.371   4.699   4.863  0.7581  2.6643  1.0065
  521TIP3    H222979   5.514   4.742   4.886  1.9375 -1.3280  1.8782
  522TIP3   OH222980   6.097   3.084   3.967  0.0488 -0.2487 -0.4041
  522TIP3    H122981   6.130   3.043   3.887  2.7661  1.1782 -0.1477
  522TIP3    H222982   6.003   3.066   3.966  0.7502 -5.3551 -0.8788
  523TIP3   OH222983   0.907   0.427  15.455 -0.0587 -0.8207  0.1945
  523TIP3    H122984   0.943   0.342  15.427  1.9264  0.0276  0.0366
  523TIP3    H222985   0.955   0.492  15.405  0.8165  0.5709  2.6542
  524TIP3   OH222986   5.294   1.826  12.299  0.1598  0.4124 -0.5365
  524TIP3    H122987   5.372   1.776  12.276  0.1647 -1.2832  2.5531
  524TIP3    H222988   5.326   1.896  12.356 -0.5249 -0.6452  1.2371
  525TIP3   OH222989   2.621   5.646  15.527  0.0179  0.0769 -0.2040
  525TIP3    H122990   2.536   5.660  15.485 -0.2124 -0.5401  0.0530
  525TIP3    H222991   2.609   5.676  15.617  0.0523 -0.0815 -0.1470
  526TIP3   OH222992   4.477   1.542  14.787 -0.2257  0.1369  0.0901
  526TIP3    H122993   4.450   1.468  14.733  2.7829 -0.0823 -1.3149
  526TIP3    H222994   4.435   1.618  14.746 -0.7172 -0.4250 -0.4614
  527TIP3   OH222995   5.935   3.536  17.032 -0.3507 -0.0170 -0.3553
  527TIP3    H122996   5.993   3.489  17.092  0.6729  0.7298 -0.7547
  527TIP3    H222997   5.889   3.467  16.985 -1.4692 -0.6469  1.5171
  528TIP3   OH222998   5.099   6.212  16.076 -0.0308  0.9717  0.3495
  528TIP3    H122999   5.028   6.148  16.072  1.6869 -1.0808  1.1738
  528TIP3    H223000   5.170   6.167  16.121  1.3972  3.3736  0.6839
  529TIP3   OH223001   0.885   1.087   5.497  0.0001 -0.6003 -0.0512
  529TIP3    H123002   0.961   1.083   5.554 -0.5332 -2.9644  0.6306
  529TIP3    H223003   0.814   1.051   5.550 -1.8505  2.2179 -0.3845
  530TIP3   OH223004   2.407   5.205  12.240  0.5268 -0.5016 -0.5196
  530TIP3    H123005   2.356   5.188  12.160  0.3768  1.5520 -0.9189
  530TIP3    H223006   2.448   5.121  12.260 -1.3370 -1.7097 -1.3795
  531TIP3   OH223007   2.220   0.018   5.206  0.3263 -0.2947  0.8253
  531TIP3    H123008   2.250   0.108   5.191  1.1075 -0.7823 -0.8017
  531TIP3    H223009   2.298  -0.035   5.194 -0.1587 -1.2118  1.6384
  532TIP3   OH223010   3.687   3.739  15.738  0.2254  0.1059 -0.1535
  532TIP3    H123011   3.732   3.820  15.714 -1.5217  1.2449  0.1953
  532TIP3    H223012   3.669   3.696  15.654 -0.1428  0.8387 -0.4570
  533TIP3   OH223013   3.548   6.042  15.129 -0.1083 -0.3848 -0.3635
  533TIP3    H123014   3.637   6.071  15.112 -1.0245  2.2702 -1.0489
  533TIP3    H223015   3.535   5.968  15.069  1.2990 -0.1818 -0.9435
  534TIP3   OH223016   0.999   6.166   2.382 -0.8216 -0.0492  0.1973
  534TIP3    H123017   0.964   6.254   2.366 -0.6504  0.0887  0.5716
  534TIP3    H223018   0.963   6.141   2.466 -0.7410 -0.2737  0.1652
  535TIP3   OH223019   0.141   4.141   3.387  0.5980 -0.1876 -0.0207
  535TIP3    H123020   0.121   4.052   3.415  0.0977  0.5472  2.1409
  535TIP3    H223021   0.064   4.168   3.337  0.5026 -0.7571 -0.1893
  536TIP3   OH223022   4.740   6.617   5.107  0.4726  0.3405  0.2818
  536TIP3    H123023   4.679   6.628   5.180 -0.8277 -0.3948 -0.6478
  536TIP3    H223024   4.731   6.525   5.082  0.5089  0.6878 -1.0965
  537TIP3   OH223025   1.643   3.343  13.066 -0.7406 -0.4639  0.2143
  537TIP3    H123026   1.727   3.381  13.091 -0.2260 -2.1813  1.2514
  537TIP3    H223027   1.600   3.322  13.149 -2.5470  1.0322 -0.2850
  538TIP3   OH223028   0.764   3.151  14.373 -0.4534  0.3902  0.1139
  538TIP3    H123029   0.773   3.071  14.320 -1.0222  1.0345 -0.9822
  538TIP3    H223030   0.770   3.222  14.310 -1.0827  1.1853  0.9357
  539TIP3   OH223031   2.872   4.273  14.622  0.0588 -0.0855 -0.3909
  539TIP3    H123032   2.840   4.219  14.694 -0.1925 -0.5908 -0.8743
  539TIP3    H223033   2.808   4.345  14.616 -0.1215 -0.2409 -0.3478
  540TIP3   OH223034   1.823   0.429  11.662  0.1593  0.5130  0.0157
  540TIP3    H123035   1.862   0.503  11.616  0.8192  0.8781  1.1459
  540TIP3    H223036   1.898   0.378  11.694 -0.2869 -0.5121 -0.5327
  541TIP3   OH223037   1.165   0.598  15.035 -0.3674 -0.4232 -0.1286
  541TIP3    H123038   1.236   0.662  15.044  0.4267 -1.0311 -1.6935
  541TIP3    H223039   1.095   0.632  15.090  0.3978  1.2687 -0.1353
  542TIP3   OH223040   5.510   5.725  16.163  0.1315 -0.0570  0.0424
  542TIP3    H123041   5.507   5.696  16.072  1.1817  1.0993 -0.3939
  542TIP3    H223042   5.571   5.664  16.206  0.6330  0.1706 -0.3401
  543TIP3   OH223043   3.228   2.661  17.312 -0.0363 -0.1586 -0.5536
  543TIP3    H123044   3.285   2.622  17.246 -1.6440 -3.4040 -0.1915
  543TIP3    H223045   3.253   2.618  17.394 -2.1538 -0.7847 -0.1896
  544TIP3   OH223046   1.217   4.483  16.022 -0.1119 -1.0265 -0.1041
  544TIP3    H123047   1.151   4.496  15.954  1.0042 -1.1037 -1.2403
  544TIP3    H223048   1.208   4.390  16.047 -0.3812 -1.0531 -0.2975
  545TIP3   OH223049   2.361   4.449  11.541 -0.4357 -0.4671 -0.1706
  545TIP3    H123050   2.315   4.525  11.578 -0.3125 -0.5002  0.0497
  545TIP3    H223051   2.303   4.375  11.559 -0.0730 -0.5873  0.5508
  546TIP3   OH223052   2.214   5.559   1.840  0.2660  0.0837 -0.0759
  546TIP3    H123053   2.213   5.491   1.772 -0.6754 -1.6611  1.5779
  546TIP3    H223054   2.289   5.538   1.895 -0.9439 -0.6311  1.3647
  547TIP3   OH223055   1.531   1.882  16.570 -0.5244 -0.8012 -0.1989
  547TIP3    H123056   1.618   1.891  16.611  0.1467  1.2037 -1.8699
  547TIP3    H223057   1.471   1.871  16.644  1.1346 -2.4273  0.9993
  548TIP3   OH223058   5.455   1.217  14.591 -0.0297  0.2227 -0.2018
  548TIP3    H123059   5.454   1.159  14.667  1.3849 -0.4028 -0.6307
  548TIP3    H223060   5.406   1.294  14.620 -0.2585 -0.3568  1.0517
  549TIP3   OH223061   0.058   5.364  12.927 -0.0863 -0.0914 -0.3094
  549TIP3    H123062  -0.022   5.344  12.878  0.3217 -0.2936 -0.9129
  549TIP3    H223063   0.114   5.288  12.912  1.8432  1.7291 -3.3884
  550TIP3   OH223064   0.020   2.930   0.944  0.2147 -0.9146  0.1084
  550TIP3    H123065   0.035   2.930   0.850  1.1958  1.0472  0.2143
  550TIP3    H223066  -0.034   3.007   0.960  0.4341 -0.9683  1.2054
  551TIP3   OH223067   3.180   2.151  12.012 -0.2003  0.1040  0.3563
  551TIP3    H123068   3.167   2.182  11.923  0.2295 -0.4116  0.1110
  551TIP3    H223069   3.103   2.097  12.031  0.2410 -0.7147 -0.1168
  552TIP3   OH223070   1.662   3.653  16.340  0.3485 -0.1980 -0.0711
  552TIP3    H123071   1.605   3.717  16.299  0.2707 -0.1457  0.1164
  552TIP3    H223072   1.639   3.656  16.433  2.0922  1.3279  0.3613
  553TIP3   OH223073   1.950   1.806  15.839  0.0983 -0.4861  0.1302
  553TIP3    H123074   1.993   1.733  15.883 -1.4052 -0.5269  1.6337
  553TIP3    H223075   1.998   1.883  15.868  2.0044 -0.8128 -1.8407
  554TIP3   OH223076   2.293   2.414  14.981  0.3507  0.0694 -0.0193
  554TIP3    H123077   2.240   2.354  15.033  0.7365 -1.8245 -1.7175
  554TIP3    H223078   2.271   2.394  14.890  1.5955  1.5016 -0.6866
  555TIP3   OH223079   1.527   6.358  14.274 -0.0352 -0.1333  0.1114
  555TIP3    H123080   1.503   6.286  14.215  1.8380  0.0589 -0.9673
  555TIP3    H223081   1.622   6.365  14.265 -0.2759  3.4672 -0.9766
  556TIP3   OH223082   3.380   0.050  11.856 -0.3292  0.2268  0.6618
  556TIP3    H123083   3.475   0.043  11.867 -0.0097  1.3127 -1.0869
  556TIP3    H223084   3.362   0.143  11.859 -1.5886 -0.0255  2.4778
  557TIP3   OH223085   2.779   1.645  14.704 -0.3657 -0.0171  0.2958
  557TIP3    H123086   2.705   1.627  14.762 -0.3804 -0.1562  0.2333
  557TIP3    H223087   2.822   1.720  14.744 -0.2000 -0.2976  0.6593
  558TIP3   OH223088   5.106   5.260  16.073  0.2403  0.6219  0.6010
  558TIP3    H123089   5.180   5.200  16.087 -0.0173 -0.3226 -1.6008
  558TIP3    H223090   5.029   5.210  16.101  0.1063  0.2055 -0.4736
  559TIP3   OH223091   0.017   4.668   2.721  0.0013  0.0402 -0.2113
  559TIP3    H123092   0.007   4.577   2.750 -0.5574  0.1891  0.0753
  559TIP3    H223093   0.096   4.667   2.666  0.1317 -0.5696 -0.0227
  560TIP3   OH223094   1.114   4.253   0.584  0.0079 -0.3967 -0.0456
  560TIP3    H123095   1.178   4.320   0.559 -0.7665  0.6004  0.5811
  560TIP3    H223096   1.167   4.179   0.614  0.8873  0.9792  1.9699
  561TIP3   OH223097   0.006   1.911  14.650  0.2459 -0.2342  0.0491
  561TIP3    H123098  -0.065   1.920  14.714  0.4257 -0.6645  0.3158
  561TIP3    H223099   0.025   2.000  14.622 -0.3068 -0.1048  0.0824
  562TIP3   OH223100   3.912   6.471   0.441 -0.5048 -0.0514  0.0939
  562TIP3    H123101   3.988   6.520   0.472 -0.8202  0.8187 -0.4637
  562TIP3    H223102   3.948   6.390   0.406  0.1164  0.1543  0.2397
  563TIP3   OH223103   5.835   2.587   0.356 -0.0168  0.3662 -0.6328
  563TIP3    H123104   5.881   2.651   0.301 -1.3747  0.9337 -1.1706
  563TIP3    H223105   5.812   2.636   0.435  1.3284 -0.2569  0.1728
  564TIP3   OH223106   2.085   3.219   5.824  0.7284 -0.0929 -1.0415
  564TIP3    H123107   2.161   3.232   5.881  0.0690  1.8107 -0.5407
  564TIP3    H223108   2.083   3.124   5.809  0.1919 -0.9925  3.2111
  565TIP3   OH223109   3.260   2.990  11.820  0.1874 -0.0125 -0.1130
  565TIP3    H123110   3.215   2.943  11.891  1.8078 -1.5696 -0.0445
  565TIP3    H223111   3.256   3.082  11.847 -0.4273 -0.4157  1.3103
  566TIP3   OH223112   3.141   6.553   0.323  0.2117 -0.5072  0.1842
  566TIP3    H123113   3.197   6.537   0.247 -0.2134  1.9971 -0.7757
  566TIP3    H223114   3.202   6.567   0.395  0.8406  0.9149 -0.5722
  567TIP3   OH223115   0.816   4.796  13.387 -0.2006 -0.6346  0.1259
  567TIP3    H123116   0.758   4.866  13.359 -1.6776 -1.6636  0.4516
  567TIP3    H223117   0.825   4.808  13.482 -1.1730 -1.3706  0.3223
  568TIP3   OH223118   2.533   0.237   5.229 -0.6857 -0.7897 -0.6332
  568TIP3    H123119   2.596   0.299   5.192 -0.0819 -1.0225 -0.0283
  568TIP3    H223120   2.542   0.247   5.324 -2.6577  0.2484 -0.5053
  569TIP3   OH223121   1.887   2.612  13.068 -0.0826  0.2595 -0.0370
  569TIP3    H123122   1.793   2.598  13.084  0.1938 -1.6926  0.1037
  569TIP3    H223123   1.900   2.706  13.082 -1.9374  0.4954  0.3464
  570TIP3   OH223124   5.559   4.600  13.495  0.4235  0.1379  0.1079
  570TIP3    H123125   5.547   4.513  13.534 -2.7328  1.2548  1.9666
  570TIP3    H223126   5.516   4.595  13.410  1.4079 -0.4503 -0.3675
  571TIP3   OH223127   2.990   3.369  14.342 -0.4579 -0.5142 -0.2343
  571TIP3    H123128   3.043   3.291  14.325 -0.2686 -0.3515 -0.3935
  571TIP3    H223129   2.907   3.350  14.298 -0.3876 -0.5987 -0.3341
  572TIP3   OH223130   0.243   0.342  11.899 -0.5166  0.7072  0.2329
  572TIP3    H123131   0.155   0.311  11.918 -0.7174  1.6225  0.8476
  572TIP3    H223132   0.232   0.434  11.875  0.3692  1.1314  1.3704
  573TIP3   OH223133   6.237   4.637   4.042 -0.6280 -0.5310 -0.0160
  573TIP3    H123134   6.231   4.543   4.061  0.2768 -0.6929 -0.5099
  573TIP3    H223135   6.310   4.646   3.982 -0.3159  0.5648  0.4874
  574TIP3   OH223136   0.810   1.842  14.341 -0.5685 -0.2082  0.1250
  574TIP3    H123137   0.778   1.932  14.334  0.6655  0.1675 -1.0694
  574TIP3    H223138   0.895   1.844  14.297 -0.8962 -2.1367 -0.6715
  575TIP3   OH223139   2.231   5.839   6.246 -0.2785  0.5773  0.0224
  575TIP3    H123140   2.169   5.868   6.178 -1.4441  1.3596  1.3621
  575TIP3    H223141   2.262   5.920   6.285 -0.9321  0.1181  1.5473
  576TIP3   OH223142   3.085   1.253   3.784  0.0110 -0.1593  0.6046
  576TIP3    H123143   2.992   1.256   3.761  0.1611  1.8645  0.0417
  576TIP3    H223144   3.130   1.257   3.700  0.6390 -1.7237  0.8408
  577TIP3   OH223145   0.540   1.362  13.297  0.2730  0.3067  0.4133
  577TIP3    H123146   0.533   1.358  13.392 -0.0024 -0.2453  0.3695
  577TIP3    H223147   0.547   1.456  13.278  0.6916  0.4009  0.9982
  578TIP3   OH223148   2.767   5.534   0.050 -0.1188 -0.3959  0.4997
  578TIP3    H123149   2.827   5.484   0.106 -1.2977 -2.5412 -0.0396
  578TIP3    H223150   2.683   5.489   0.059 -0.5370 -0.3240 -2.3109
  579TIP3   OH223151   5.804   3.040  14.296 -0.2801 -0.4329 -0.7824
  579TIP3    H123152   5.772   3.017  14.384 -0.6515 -2.3687 -1.3717
  579TIP3    H223153   5.895   3.012  14.296 -0.2082 -0.1967 -0.9312
  580TIP3   OH223154   5.998   1.891   0.571  0.5639 -1.0613 -0.1036
  580TIP3    H123155   6.043   1.873   0.653  2.6048 -0.6018 -1.0510
  580TIP3    H223156   6.011   1.985   0.557  1.2204 -1.3319 -1.4665
  581TIP3   OH223157   3.842   5.336  14.779  0.3238 -0.4680 -0.3149
  581TIP3    H123158   3.900   5.264  14.804 -0.5993 -0.8511  0.7899
  581TIP3    H223159   3.756   5.311  14.811 -0.8583 -0.6627 -3.3529
  582TIP3   OH223160   0.171   0.875  15.822 -0.0894 -0.4538  0.5986
  582TIP3    H123161   0.183   0.970  15.828  1.9320 -0.6546  0.3005
  582TIP3    H223162   0.139   0.860  15.733 -1.6169  0.0015  1.0222
  583TIP3   OH223163   2.312   0.501  14.172 -0.6012  0.0139 -0.0399
  583TIP3    H123164   2.392   0.548  14.193  1.1890 -2.3875 -0.9901
  583TIP3    H223165   2.280   0.468  14.256 -0.2379  0.4358  0.2683
  584TIP3   OH223166   0.413   4.904   4.707 -0.1232 -0.2636  0.1178
  584TIP3    H123167   0.328   4.939   4.733 -0.3725 -1.3843  0.8706
  584TIP3    H223168   0.399   4.868   4.620  0.1655  1.5429 -0.7217
  585TIP3   OH223169   2.798   0.402  11.896 -0.0132  0.0660  0.1630
  585TIP3    H123170   2.837   0.486  11.871 -1.2512  0.2512 -1.2982
  585TIP3    H223171   2.863   0.361  11.953  1.5727  1.0537 -0.8656
  586TIP3   OH223172   0.372   3.512  16.884 -0.0986 -0.2635 -0.8313
  586TIP3    H123173   0.357   3.596  16.841  0.3620  0.5024  0.4623
  586TIP3    H223174   0.419   3.460  16.819  0.3348  0.7534 -1.3513
  587TIP3   OH223175   0.213   5.409  15.360 -0.3714 -0.0584  0.4240
  587TIP3    H123176   0.172   5.445  15.282  0.3602  0.5390  0.3043
  587TIP3    H223177   0.150   5.424  15.430 -0.6137  0.2984  0.1272
  588TIP3   OH223178   5.814   3.959   3.606  0.2657  0.0495  0.0210
  588TIP3    H123179   5.797   4.011   3.685  0.1071 -1.3867  0.9754
  588TIP3    H223180   5.839   3.873   3.640 -0.0791 -0.6729 -1.5132
  589TIP3   OH223181   2.665   2.785   2.397  0.5599  0.7056  0.5088
  589TIP3    H123182   2.706   2.831   2.471  0.1891  2.0883 -0.1199
  589TIP3    H223183   2.574   2.817   2.397  0.8012  1.4593 -1.1039
  590TIP3   OH223184   4.403   3.738  15.845  0.4898  0.1668 -0.7971
  590TIP3    H123185   4.492   3.751  15.877  0.2275  0.7719 -0.3083
  590TIP3    H223186   4.413   3.683  15.767  1.4185  1.5434 -1.6657
  591TIP3   OH223187   2.949   5.814  16.147 -0.1871  0.0342 -0.5344
  591TIP3    H123188   2.994   5.872  16.209 -0.4548  0.2449 -0.5331
  591TIP3    H223189   3.000   5.822  16.066 -0.7144  0.9508 -0.7962
  592TIP3   OH223190   3.910   4.361   3.372  0.2872 -0.1180  0.1628
  592TIP3    H123191   3.872   4.380   3.287  0.3720 -0.6012  0.0151
  592TIP3    H223192   4.004   4.352   3.355  0.5979  1.7622  0.6301
  593TIP3   OH223193   5.821   5.815  17.167 -0.8463  0.2528  0.0524
  593TIP3    H123194   5.837   5.896  17.119 -0.4511  0.8268  1.0940
  593TIP3    H223195   5.730   5.793  17.150 -0.8017  0.6234 -0.6706
  594TIP3   OH223196   4.230   5.945  13.335 -0.2718 -0.5017  0.6273
  594TIP3    H123197   4.313   5.909  13.304 -1.3337 -0.5278 -2.5856
  594TIP3    H223198   4.175   5.869  13.350 -0.4788 -0.4257  0.2702
  595TIP3   OH223199   1.263   0.378   0.371 -0.6392  0.0498  0.8384
  595TIP3    H123200   1.205   0.436   0.420 -1.0031  1.0750 -0.6995
  595TIP3    H223201   1.204   0.331   0.311 -0.0831 -0.1968  0.4799
  596TIP3   OH223202   5.576   0.286   3.266  0.1102 -0.5267 -0.7745
  596TIP3    H123203   5.627   0.349   3.317 -0.0953 -1.0968  0.1784
  596TIP3    H223204   5.638   0.248   3.205  0.1009  1.0307 -1.8089
  597TIP3   OH223205   2.746   0.948  14.515  0.1376 -0.7056 -0.2831
  597TIP3    H123206   2.724   0.985  14.600 -0.0167  1.1827 -1.0874
  597TIP3    H223207   2.706   1.008  14.451 -0.2394 -2.3792 -1.6924
  598TIP3   OH223208   6.521   5.017  17.049  0.3926  0.2679  0.4262
  598TIP3    H123209   6.487   5.043  16.963  0.1198  0.2701  0.5331
  598TIP3    H223210   6.607   4.980  17.030 -0.0581 -0.6024  0.0405
  599TIP3   OH223211   5.131   1.552   2.944  0.2500 -0.5716 -0.7201
  599TIP3    H123212   5.122   1.633   2.893 -0.2454 -1.6764 -2.4926
  599TIP3    H223213   5.224   1.532   2.941  0.3919 -0.0126 -0.1745
  600TIP3   OH223214   2.482   2.964  14.420 -0.4510  0.1212  0.5080
  600TIP3    H123215   2.394   2.972  14.384 -1.2621 -0.8962  2.1457
  600TIP3    H223216   2.469   2.928  14.508  1.6504 -0.7981  0.5013
  601TIP3   OH223217   1.518   5.091  12.654 -0.1197  0.1207  0.7244
  601TIP3    H123218   1.517   5.012  12.600  1.1180  0.4531  0.1651
  601TIP3    H223219   1.445   5.144  12.621  1.4240  0.9445 -1.6808
  602TIP3   OH223220   5.452   2.844  15.677  0.3523 -0.4540  0.2744
  602TIP3    H123221   5.415   2.757  15.662  0.5588 -0.2256 -2.0469
  602TIP3    H223222   5.376   2.903  15.681  0.2717 -0.5676  0.4090
  603TIP3   OH223223   5.441   0.990  11.379 -0.1386 -0.1258 -0.0873
  603TIP3    H123224   5.501   1.057  11.412 -1.4588  1.3545 -0.5632
  603TIP3    H223225   5.452   0.994  11.284  0.0900 -0.9157 -0.1000
  604TIP3   OH223226   6.202   6.394   5.463  0.6385 -0.4023 -0.2361
  604TIP3    H123227   6.123   6.434   5.426  0.8359  0.6788  0.4506
  604TIP3    H223228   6.227   6.326   5.401  0.5830  0.9122 -1.7483
  605TIP3   OH223229   0.051   0.164  16.543  0.0868 -0.0069  0.3241
  605TIP3    H123230   0.041   0.089  16.484  0.8793  1.0292 -1.1846
  605TIP3    H223231   0.023   0.130  16.628 -1.3992 -1.4760 -0.6648
  606TIP3   OH223232   5.331   2.787   0.243  0.0261 -0.5600 -0.2614
  606TIP3    H123233   5.301   2.791   0.333  1.4166 -1.8049  0.3005
  606TIP3    H223234   5.261   2.829   0.192  1.1225  4.3513  1.7373
  607TIP3   OH223235   6.518   2.352  15.733  0.3870 -0.1655  0.2158
  607TIP3    H123236   6.516   2.270  15.782 -1.7909 -0.6652 -0.6082
  607TIP3    H223237   6.456   2.409  15.778 -0.7426 -0.2161 -1.2055
  608TIP3   OH223238   3.310   6.063   1.980  0.1901  0.6554 -0.2609
  608TIP3    H123239   3.326   6.027   2.068 -1.2232  1.4280  0.3501
  608TIP3    H223240   3.228   6.112   1.989 -1.8045 -1.8847 -2.7835
  609TIP3   OH223241   0.346   4.628   5.185  0.3115 -0.0145  0.3632
  609TIP3    H123242   0.316   4.702   5.237 -0.3302  0.9883 -1.3352
  609TIP3    H223243   0.421   4.594   5.232  0.3496  1.4400  1.4255
  610TIP3   OH223244   3.223   3.577   2.744 -0.1561  0.2628  0.1383
  610TIP3    H123245   3.189   3.632   2.815 -2.1703  0.2228 -0.7338
  610TIP3    H223246   3.316   3.601   2.738 -1.1848  4.8670 -1.2653
  611TIP3   OH223247   6.273   4.243   0.220  0.1946  0.0450 -0.2701
  611TIP3    H123248   6.205   4.204   0.275 -1.9782  0.0149 -2.7484
  611TIP3    H223249   6.335   4.281   0.281 -0.6422 -2.2187  2.1933
  612TIP3   OH223250   0.090   4.600   5.046  0.1454 -0.8119 -0.4185
  612TIP3    H123251   0.159   4.608   5.111  1.2593  3.5294 -1.7837
  612TIP3    H223252   0.009   4.612   5.095  0.9676  2.5555  0.3829
  613TIP3   OH223253   5.295   2.862   0.822  0.0535  0.0165  0.5468
  613TIP3    H123254   5.330   2.819   0.901  1.1831  0.0533  0.0905
  613TIP3    H223255   5.368   2.859   0.759 -1.1273 -0.8769 -0.8447
  614TIP3   OH223256   1.152   3.977   0.938 -0.0404  0.1280  0.2785
  614TIP3    H123257   1.087   3.998   0.870  0.8713  0.4652 -0.5053
  614TIP3    H223258   1.208   3.910   0.897  0.7355  0.5943  0.5630
  615TIP3   OH223259   5.933   0.077  12.004 -0.2170 -0.2360  0.1567
  615TIP3    H123260   6.004   0.071  11.939 -0.0329 -1.0977  0.4248
  615TIP3    H223261   5.950   0.159  12.050  1.4022 -1.0208  1.0851
  616TIP3   OH223262   5.855   6.707  17.321 -0.8370  0.2979 -0.0367
  616TIP3    H123263   5.821   6.784  17.275  0.2583  1.1095  0.4592
  616TIP3    H223264   5.938   6.687  17.277 -0.4905  0.1993  0.6428
  617TIP3   OH223265   3.793   1.805  13.579  0.0831 -0.3244 -0.1504
  617TIP3    H123266   3.798   1.893  13.618  2.9929 -0.1379 -0.7257
  617TIP3    H223267   3.798   1.821  13.485  3.4026 -1.0900 -0.2204
  618TIP3   OH223268   5.773   0.081   3.783  0.4815 -0.7012  0.2489
  618TIP3    H123269   5.804   0.170   3.800  1.2941 -1.1444  1.1996
  618TIP3    H223270   5.793   0.066   3.691  0.0750  0.2026  0.0055
  619TIP3   OH223271   0.094   3.146  15.568 -0.3628  0.1092 -0.2238
  619TIP3    H123272   0.006   3.111  15.575  0.0199 -1.1814 -1.4289
  619TIP3    H223273   0.127   3.147  15.658 -2.0208  1.8560  0.4310
  620TIP3   OH223274   2.901   0.530  16.820  0.2362  0.5597 -0.1821
  620TIP3    H123275   2.834   0.594  16.794 -0.4644 -0.4403 -0.8917
  620TIP3    H223276   2.874   0.501  16.907 -0.1319  0.3423 -0.3640
  621TIP3   OH223277   3.666   0.787  11.671  0.2472  0.0445 -0.2006
  621TIP3    H123278   3.718   0.832  11.605  0.2576 -1.1148 -1.0250
  621TIP3    H223279   3.690   0.829  11.754  3.1046 -0.9045 -0.4249
  622TIP3   OH223280   4.947   0.958  12.744  0.2254 -0.1024  0.4036
  622TIP3    H123281   4.893   1.030  12.775 -1.2521 -0.2992 -1.5006
  622TIP3    H223282   4.885   0.886  12.730  1.6890 -1.9119  2.5164
  623TIP3   OH223283   1.916   2.660  16.750  0.0106  0.5162 -0.2158
  623TIP3    H123284   1.897   2.695  16.837  1.1340 -0.4820  0.4615
  623TIP3    H223285   2.003   2.694  16.729  0.8656 -1.3139  0.2020
  624TIP3   OH223286   1.076   5.860  14.304 -0.0597  0.7289 -0.7141
  624TIP3    H123287   0.994   5.830  14.342  0.3923 -0.2539 -0.4934
  624TIP3    H223288   1.098   5.796  14.237  0.4597  1.0482 -0.8620
  625TIP3   OH223289   4.439   4.805  12.929 -0.1845 -0.2939  0.0965
  625TIP3    H123290   4.364   4.828  12.983  0.8050  0.3319  1.2611
  625TIP3    H223291   4.504   4.772  12.991  0.3896 -1.1431 -0.9223
  626TIP3   OH223292   0.142   6.670   0.999 -0.0468  1.1998 -0.3246
  626TIP3    H123293   0.174   6.632   0.917 -0.8879  3.2207 -1.6518
  626TIP3    H223294   0.047   6.661   0.994 -0.0258 -1.3448  1.8607
  627TIP3   OH223295   2.626   4.616  16.232 -0.3287  0.2500  0.0560
  627TIP3    H123296   2.550   4.592  16.179 -0.0710 -0.8222  0.1448
  627TIP3    H223297   2.697   4.562  16.196  0.2734  0.8745  0.2957
  628TIP3   OH223298   2.811   2.857  16.994 -0.6772 -0.7039  0.0716
  628TIP3    H123299   2.741   2.915  16.962 -0.8040 -0.0708  1.4423
  628TIP3    H223300   2.879   2.916  17.025  0.0395 -1.3219 -0.2910
  629TIP3   OH223301   2.441   1.520  11.656 -0.0377  0.3808 -0.3257
  629TIP3    H123302   2.359   1.520  11.707 -0.1907 -1.2559 -0.5153
  629TIP3    H223303   2.509   1.506  11.721 -0.2758 -2.2557 -0.5289
  630TIP3   OH223304   1.572   0.734  11.437 -0.2030  0.5568 -0.0993
  630TIP3    H123305   1.562   0.670  11.508 -2.8896  0.5013 -0.4522
  630TIP3    H223306   1.497   0.720  11.380 -0.2183  3.2161 -0.8656
  631TIP3   OH223307   1.465   3.202  15.939  0.1434  0.1019  0.8960
  631TIP3    H123308   1.446   3.108  15.946  1.2611 -0.3745 -1.4149
  631TIP3    H223309   1.390   3.238  15.893  1.0041 -0.2753 -0.9053
  632TIP3   OH223310   0.148   1.835   3.954  0.2472 -0.2263  0.4670
  632TIP3    H123311   0.148   1.908   4.016 -1.6014  0.4248 -0.2284
  632TIP3    H223312   0.125   1.758   4.007  0.1201  0.0679  0.8452
  633TIP3   OH223313   6.461   3.920   2.235 -0.2540 -0.1835  0.3795
  633TIP3    H123314   6.396   3.878   2.178 -1.5269 -0.5703  2.0316
  633TIP3    H223315   6.410   3.956   2.307  1.4711 -2.0329  2.6850
  634TIP3   OH223316   2.863   1.122  16.308  0.2478 -0.7326 -0.6479
  634TIP3    H123317   2.779   1.102  16.350  0.1175 -1.4447 -1.2141
  634TIP3    H223318   2.839   1.167  16.227  0.3974 -1.1240 -0.9123
  635TIP3   OH223319   2.167   4.625   0.087  0.3079 -0.2707  0.2760
  635TIP3    H123320   2.195   4.545   0.042 -0.1405  0.5548 -1.5921
  635TIP3    H223321   2.193   4.612   0.178 -0.8395 -3.0607  0.3111
  636TIP3   OH223322   2.431   4.750  15.996  0.7511 -0.5738 -0.2051
  636TIP3    H123323   2.484   4.722  15.921 -1.8115 -1.7144 -1.7252
  636TIP3    H223324   2.418   4.671  16.047  0.9273 -0.1941  0.4352
  637TIP3   OH223325   0.678   0.460   4.213 -0.0379  0.2591 -0.0649
  637TIP3    H123326   0.683   0.410   4.294  0.3296  0.3645 -0.0213
  637TIP3    H223327   0.769   0.484   4.194 -0.3867  3.4179  1.4754
  638TIP3   OH223328   1.740   6.109   2.763 -0.0516 -0.2505 -0.2823
  638TIP3    H123329   1.761   6.103   2.856  0.2516  1.7797 -0.1740
  638TIP3    H223330   1.825   6.106   2.719 -0.0667  0.3130 -0.3645
  639TIP3   OH223331   3.291   3.504   1.819  0.0339 -0.1102  0.2783
  639TIP3    H123332   3.219   3.551   1.778 -0.0580 -1.2956 -1.0208
  639TIP3    H223333   3.325   3.564   1.886 -1.2124  1.0358 -0.0793
  640TIP3   OH223334   1.084   4.834  16.384 -0.3611  0.4230  0.0338
  640TIP3    H123335   1.173   4.869  16.392 -0.2069  0.1493 -0.4515
  640TIP3    H223336   1.064   4.798  16.470 -0.2966  1.1694  0.3733
  641TIP3   OH223337   2.112   3.529  12.448 -0.2717  0.5236  0.2211
  641TIP3    H123338   2.034   3.472  12.451 -1.1506  1.5015 -2.0135
  641TIP3    H223339   2.082   3.609  12.405  2.0472  0.8324 -0.9683
  642TIP3   OH223340   4.546   1.340   2.886 -0.0832  0.2510  0.1518
  642TIP3    H123341   4.507   1.426   2.869  2.7738  1.5713 -0.3218
  642TIP3    H223342   4.639   1.358   2.901  0.5699 -2.7444  0.4096
  643TIP3   OH223343   4.843   4.731  15.279 -0.2318  0.8534 -0.3018
  643TIP3    H123344   4.828   4.766  15.191 -0.6342  1.0124 -0.1732
  643TIP3    H223345   4.884   4.803  15.327 -2.0880  1.5683  0.2871
  644TIP3   OH223346   1.875   4.767   2.328 -1.0793 -0.2707  0.0144
  644TIP3    H123347   1.940   4.818   2.280 -0.6063 -1.2841 -0.4463
  644TIP3    H223348   1.792   4.808   2.305 -0.6177  1.1515  0.7467
  645TIP3   OH223349   1.293   6.701  10.934  0.2512  0.0724 -0.4103
  645TIP3    H123350   1.354   6.769  10.964 -0.5502  0.4697  0.3537
  645TIP3    H223351   1.286   6.714  10.839  2.2396 -0.7137 -0.7140
  646TIP3   OH223352   6.047   0.915  15.126  0.6519  0.1669  0.3243
  646TIP3    H123353   6.132   0.939  15.163  1.5952 -0.9447 -1.0155
  646TIP3    H223354   6.064   0.834  15.077 -1.1544 -0.0135 -0.0817
  647TIP3   OH223355   1.888   5.645   6.105  0.1730  0.2101 -0.5339
  647TIP3    H123356   1.858   5.675   6.019  1.7070  1.5059 -0.6574
  647TIP3    H223357   1.807   5.625   6.152 -0.8531  2.1649 -1.3322
  648TIP3   OH223358   2.528   1.251  13.818 -0.0493 -0.1969 -0.0163
  648TIP3    H123359   2.533   1.346  13.814  1.7548 -0.2746 -0.2961
  648TIP3    H223360   2.468   1.228  13.747 -0.5419  0.7183  0.0817
  649TIP3   OH223361   2.561   1.761   2.937  0.4461 -0.4282 -0.1870
  649TIP3    H123362   2.520   1.824   2.878  1.0044 -0.3598 -0.5107
  649TIP3    H223363   2.592   1.814   3.010 -0.5397 -0.5578  0.3364
  650TIP3   OH223364   0.701   6.623  11.190 -0.4244 -0.2869 -0.0404
  650TIP3    H123365   0.761   6.549  11.181  0.5527  0.6026 -1.3634
  650TIP3    H223366   0.708   6.669  11.107 -2.1627  0.4634  0.1829
  651TIP3   OH223367   3.646   6.250  13.797  0.0695  0.4057  0.3215
  651TIP3    H123368   3.684   6.337  13.811  1.5897 -0.3433  1.0813
  651TIP3    H223369   3.563   6.252  13.844  0.2208  1.3397  0.5688
  652TIP3   OH223370   5.294   2.665   1.374  0.4855 -0.3033 -0.1487
  652TIP3    H123371   5.380   2.698   1.402 -0.1062  0.7655  0.4495
  652TIP3    H223372   5.314   2.609   1.299  1.6187  0.7163 -0.6403
  653TIP3   OH223373   1.679   0.338  11.111 -0.2543  0.2454  0.2682
  653TIP3    H123374   1.686   0.392  11.033  3.7322  1.5055  1.3052
  653TIP3    H223375   1.708   0.251  11.083 -0.4278  0.2655  0.0225
  654TIP3   OH223376   4.668   2.758  14.980  0.5122  0.2319 -0.0999
  654TIP3    H123377   4.596   2.741  15.040  0.8905  0.5827  0.4643
  654TIP3    H223378   4.740   2.789  15.036  1.0385  0.0749 -0.6676
  655TIP3   OH223379   6.710   0.251   1.037  0.7752  0.1758  0.5412
  655TIP3    H123380   6.804   0.263   1.024  0.9445 -0.8238  0.7114
  655TIP3    H223381   6.681   0.332   1.077  1.1970  1.2771 -1.2907
  656TIP3   OH223382   2.217   0.177   2.227 -0.1641 -0.9024 -0.4167
  656TIP3    H123383   2.193   0.253   2.278  1.1942  0.0493 -1.1461
  656TIP3    H223384   2.178   0.103   2.274 -0.9762  0.1603  0.6356
  657TIP3   OH223385   5.516   5.590   5.792 -0.5720  0.7017 -0.1439
  657TIP3    H123386   5.446   5.541   5.749 -0.9753  0.3250  0.9158
  657TIP3    H223387   5.497   5.583   5.885  1.8016 -0.8615  0.3089
  658TIP3   OH223388   1.411   4.190  15.587 -0.0877  1.0348  0.9001
  658TIP3    H123389   1.433   4.269  15.636 -0.4221  1.5139  0.2930
  658TIP3    H223390   1.487   4.176  15.530  0.4824  0.2413  1.8320
  659TIP3   OH223391   6.751   2.607   1.504 -0.4257 -0.3016 -0.2423
  659TIP3    H123392   6.846   2.613   1.496 -0.3215  1.1725  1.3169
  659TIP3    H223393   6.719   2.600   1.414  1.1364 -0.9206 -0.7885
  660TIP3   OH223394   0.041   6.590  11.895 -0.4941 -0.6210  0.5800
  660TIP3    H123395   0.085   6.675  11.888 -1.0751 -0.4578 -1.7927
  660TIP3    H223396   0.113   6.527  11.908  0.1551  0.0098  0.1243
  661TIP3   OH223397   1.524   0.113   0.792 -0.2933  0.2434 -0.2797
  661TIP3    H123398   1.569   0.148   0.715  0.4570  0.3526  0.2070
  661TIP3    H223399   1.432   0.110   0.765 -0.0284  0.1296 -1.2381
  662TIP3   OH223400   6.614   5.448   3.749 -0.2677 -0.3551 -0.3039
  662TIP3    H123401   6.700   5.412   3.772 -0.4976 -0.2356  0.8038
  662TIP3    H223402   6.633   5.526   3.697  0.2633 -0.9546 -1.0390
  663TIP3   OH223403   6.404   5.951   4.355 -0.1354 -0.0420  0.5982
  663TIP3    H123404   6.497   5.972   4.363 -0.0735  0.2286 -0.7255
  663TIP3    H223405   6.369   6.019   4.298 -0.6941 -1.3837 -0.7234
  664TIP3   OH223406   4.785   5.653   3.368  1.0363 -0.0696 -0.3650
  664TIP3    H123407   4.804   5.620   3.280  2.5872  2.0251 -0.9011
  664TIP3    H223408   4.868   5.643   3.416  0.5022 -0.2567  0.5460
  665TIP3   OH223409   5.162   0.139   0.336 -0.2451  0.0881  0.4424
  665TIP3    H123410   5.255   0.117   0.335 -0.1056  0.6887 -0.1843
  665TIP3    H223411   5.154   0.210   0.399 -0.3694 -0.3141  0.8891
  666TIP3   OH223412   1.913   0.344  12.107  0.2802 -0.0998  0.8927
  666TIP3    H123413   1.935   0.266  12.056 -1.0096 -0.2008  0.4293
  666TIP3    H223414   1.842   0.315  12.164 -0.8661  0.9368  0.0527
  667TIP3   OH223415   4.185   5.579  14.905  0.2105 -0.3422 -0.0322
  667TIP3    H123416   4.267   5.529  14.906 -0.3710 -1.2956  1.0673
  667TIP3    H223417   4.170   5.602  14.997  0.0995  1.2951 -0.4209
  668TIP3   OH223418   0.062   2.266  16.328  0.4420  0.4974  0.6084
  668TIP3    H123419   0.085   2.353  16.295  0.6543  0.3656  0.3977
  668TIP3    H223420   0.088   2.207  16.257  0.1041  0.2819  0.6664
  669TIP3   OH223421   6.291   1.983   2.909  0.7539  0.3676 -0.5372
  669TIP3    H123422   6.336   2.066   2.898  1.7382  0.1039  1.1775
  669TIP3    H223423   6.346   1.920   2.863 -0.0430  0.6527 -1.9193
  670TIP3   OH223424   2.825   1.358  15.830  0.1715 -0.1091 -0.2773
  670TIP3    H123425   2.863   1.442  15.803  0.6101 -0.7439 -1.7099
  670TIP3    H223426   2.732   1.376  15.843  0.7889  1.4050  2.9510
  671TIP3   OH223427   3.598   0.058   0.450 -0.0137  0.2596 -0.1487
  671TIP3    H123428   3.619  -0.002   0.521 -0.5133  0.1943 -0.0507
  671TIP3    H223429   3.679   0.064   0.399  0.5131  0.7436  0.7338
  672TIP3   OH223430   5.180   6.274   2.846  0.3207 -0.0944  0.6149
  672TIP3    H123431   5.175   6.284   2.751  1.0094  0.1007  0.5916
  672TIP3    H223432   5.171   6.180   2.860  3.0501 -0.5264  0.1082
  673TIP3   OH223433   2.633   0.092   2.328 -0.5638  0.1933  0.7973
  673TIP3    H123434   2.707   0.032   2.315 -0.0070  0.7814  1.1598
  673TIP3    H223435   2.664   0.176   2.294 -1.5845  0.1280 -0.3228
  674TIP3   OH223436   5.505   3.048  16.512 -0.3419 -0.2662  0.5768
  674TIP3    H123437   5.584   2.996  16.498  0.8612  1.1768  1.7076
  674TIP3    H223438   5.433   2.985  16.504  1.0092 -1.9526  1.1773
  675TIP3   OH223439   2.908   3.207  15.438  0.0122 -0.3694  0.4417
  675TIP3    H123440   2.819   3.183  15.462 -0.0723  0.9701  1.5820
  675TIP3    H223441   2.914   3.188  15.344 -1.1365 -1.3956  0.5497
  676TIP3   OH223442   5.807   1.316  14.309 -0.2687 -0.6335 -0.2116
  676TIP3    H123443   5.826   1.286  14.220 -1.7005  1.7890 -1.4558
  676TIP3    H223444   5.713   1.337  14.307  0.2505  2.1829  0.9428
  677TIP3   OH223445   0.604   0.531  16.593  0.1333 -0.6058 -0.4425
  677TIP3    H123446   0.519   0.524  16.636  0.4336  1.6654  0.7243
  677TIP3    H223447   0.590   0.500  16.504 -1.5967 -1.3957  0.0707
  678TIP3   OH223448   3.628   4.315   5.391  0.6412  0.5860  0.0593
  678TIP3    H123449   3.569   4.384   5.421  0.3633  0.1906  0.4347
  678TIP3    H223450   3.628   4.251   5.462 -0.7330 -0.8147 -1.1487
  679TIP3   OH223451   2.282   5.406   1.588 -0.7584  0.2151 -0.0447
  679TIP3    H123452   2.337   5.472   1.546 -0.9021  2.1861  2.6265
  679TIP3    H223453   2.345   5.346   1.630 -0.6579 -0.3083 -0.9091
  680TIP3   OH223454   2.191   6.086  11.093  0.2850  0.1591  0.3468
  680TIP3    H123455   2.163   6.096  11.002  1.1194  1.0044  0.1647
  680TIP3    H223456   2.116   6.118  11.144 -0.5843 -1.2514  0.0170
  681TIP3   OH223457   4.410   1.656   3.992 -0.6691  0.6301 -0.1583
  681TIP3    H123458   4.331   1.679   3.942 -1.5621 -0.9462  0.4411
  681TIP3    H223459   4.481   1.701   3.946 -1.5922  0.1250 -2.2140
  682TIP3   OH223460   1.914   2.418   3.316  0.1135  0.1907 -0.0664
  682TIP3    H123461   1.996   2.460   3.339 -0.9796  1.4378  1.8906
  682TIP3    H223462   1.917   2.333   3.362 -0.3771  0.9874  1.5164
  683TIP3   OH223463   6.519   5.779   6.544 -0.2863 -0.2221 -0.1656
  683TIP3    H123464   6.550   5.837   6.475 -0.3637  0.7718  0.6095
  683TIP3    H223465   6.427   5.804   6.557 -0.3367 -0.5542  0.1389
  684TIP3   OH223466   2.414   0.025  14.139  0.0158  0.7647  0.0960
  684TIP3    H123467   2.440  -0.060  14.103 -0.4931  0.7153 -0.1651
  684TIP3    H223468   2.487   0.050  14.196  1.0849  1.0908 -1.3578
  685TIP3   OH223469   2.026   3.696   2.666 -0.0493  0.1808 -0.5456
  685TIP3    H123470   2.000   3.682   2.575 -0.1192  0.4690 -0.5692
  685TIP3    H223471   2.004   3.613   2.709  0.1645 -0.0273 -0.8287
  686TIP3   OH223472   0.413   5.489   6.389 -0.4672 -0.1780 -0.3204
  686TIP3    H123473   0.404   5.575   6.348 -0.7620 -0.9748 -1.9948
  686TIP3    H223474   0.380   5.502   6.478 -0.6607  1.3928 -0.5828
  687TIP3   OH223475   5.940   6.022  16.953  0.5243 -0.4443  0.0727
  687TIP3    H123476   5.976   6.012  16.865  0.3952  0.0688 -0.0369
  687TIP3    H223477   5.890   6.103  16.950 -0.3183 -0.9465  0.3368
  688TIP3   OH223478   3.227   4.854   3.802  0.0323 -0.2040  0.2679
  688TIP3    H123479   3.161   4.892   3.860 -0.7887 -1.5252  0.2369
  688TIP3    H223480   3.179   4.832   3.722  0.1424 -2.4570  0.7487
  689TIP3   OH223481   6.171   0.570  14.491 -0.2534  0.2182 -0.3725
  689TIP3    H123482   6.112   0.629  14.538  1.7409  1.7948  0.2887
  689TIP3    H223483   6.237   0.628  14.454  1.3654 -1.5408 -0.3506
  690TIP3   OH223484   3.876   4.599  17.204  0.7753 -0.1711 -0.9103
  690TIP3    H123485   3.958   4.554  17.223  0.6059 -0.3945 -0.6995
  690TIP3    H223486   3.817   4.570  17.273  0.2734 -0.6519 -1.5377
  691TIP3   OH223487   4.930   4.426   5.852  0.8563  0.4279 -0.4269
  691TIP3    H123488   4.853   4.375   5.879 -0.0872  2.9590  2.2220
  691TIP3    H223489   4.933   4.416   5.757 -3.2521  0.7529 -0.7824
  692TIP3   OH223490   3.497   1.297  14.429  0.4333 -0.3042  0.2977
  692TIP3    H123491   3.535   1.211  14.411 -0.6036 -0.8524  0.6446
  692TIP3    H223492   3.488   1.299  14.524 -1.1911 -0.5665  0.1829
  693TIP3   OH223493   3.094   0.613  13.200  0.2011 -0.6365 -1.0690
  693TIP3    H123494   3.168   0.623  13.140  1.9294  1.6403  1.2079
  693TIP3    H223495   3.127   0.555  13.269 -0.0760  0.4610  0.0076
  694TIP3   OH223496   0.354   4.786  11.822  0.6594  0.0898 -0.1970
  694TIP3    H123497   0.361   4.880  11.808 -0.5358  0.3909  0.9191
  694TIP3    H223498   0.433   4.763  11.871  0.9366  0.5276 -0.4362
  695TIP3   OH223499   6.399   1.113   1.502  0.1613  0.2839  0.2843
  695TIP3    H123500   6.437   1.201   1.504  1.1340 -0.1350  0.6142
  695TIP3    H223501   6.473   1.055   1.487 -0.5087 -0.4703 -0.2036
  696TIP3   OH223502   0.398   2.002  12.728  0.1675 -0.0088 -0.0320
  696TIP3    H123503   0.460   1.972  12.662  1.1744  2.4159 -0.2839
  696TIP3    H223504   0.370   2.088  12.698 -0.0060  0.7975  2.2404
  697TIP3   OH223505   5.189   2.176   1.237  0.2997 -0.0330 -0.0516
  697TIP3    H123506   5.126   2.234   1.280 -0.0596 -0.3490 -0.1473
  697TIP3    H223507   5.139   2.131   1.170  1.0413  1.0784 -1.4005
  698TIP3   OH223508   5.014   0.232   2.949 -0.0606  0.0583 -0.8288
  698TIP3    H123509   4.927   0.192   2.954  0.4642 -1.4920 -2.7804
  698TIP3    H223510   5.004   0.317   2.992 -1.8785 -1.0987  1.2140
  699TIP3   OH223511   1.759   6.095   4.934  0.3271  0.4528 -0.0841
  699TIP3    H123512   1.726   6.005   4.925 -0.9579  0.8481  0.4353
  699TIP3    H223513   1.782   6.121   4.845  0.1101 -0.1728 -0.3299
  700TIP3   OH223514   3.733   5.409   0.048 -0.9539  0.7552 -0.3071
  700TIP3    H123515   3.641   5.432   0.039 -0.9686  0.0753 -2.3090
  700TIP3    H223516   3.768   5.411  -0.041  0.4242 -1.2089  0.1169
  701TIP3   OH223517   2.044   1.505   5.329  0.5303  0.4737 -0.2972
  701TIP3    H123518   2.096   1.439   5.282  0.9720  1.4461 -1.1963
  701TIP3    H223519   2.108   1.567   5.363  0.0599  0.9080 -0.1899
  702TIP3   OH223520   3.982   2.865  16.144 -0.3953  0.1438  0.1598
  702TIP3    H123521   4.009   2.784  16.101 -1.2112 -0.5023  0.8274
  702TIP3    H223522   3.920   2.905  16.083 -0.8397 -0.3053  0.3016
  703TIP3   OH223523   4.585   1.799   4.577 -0.4123 -0.5339  0.1596
  703TIP3    H123524   4.537   1.726   4.618 -0.4900 -0.5091  0.1128
  703TIP3    H223525   4.628   1.843   4.651 -1.7327  0.3973  0.4148
  704TIP3   OH223526   2.734   6.190  16.854 -0.1330  0.0287  0.3684
  704TIP3    H123527   2.652   6.145  16.834  0.8968 -0.9552 -2.0788
  704TIP3    H223528   2.708   6.279  16.879 -1.9359 -0.3143 -0.2023
  705TIP3   OH223529   4.339   5.024   4.035 -0.4177  0.1076 -0.2245
  705TIP3    H123530   4.389   5.049   4.112 -1.2336 -0.2685  0.4416
  705TIP3    H223531   4.279   5.097   4.020  0.4963  0.6850 -1.1912
  706TIP3   OH223532   4.898   3.916  13.501 -0.1768  0.0196 -0.3227
  706TIP3    H123533   4.867   4.006  13.504  0.2165  0.2004 -1.4152
  706TIP3    H223534   4.973   3.915  13.561  1.3595  1.0651 -2.1094
  707TIP3   OH223535   5.844   2.731  15.208  0.0285  0.2681  0.1476
  707TIP3    H123536   5.821   2.638  15.206 -0.0723  0.2785  0.7491
  707TIP3    H223537   5.765   2.775  15.240  0.3006  0.4902  0.5162
  708TIP3   OH223538   6.646   0.555   5.569  0.7031  0.7317 -0.1681
  708TIP3    H123539   6.586   0.581   5.500  2.1934 -0.5236 -2.0419
  708TIP3    H223540   6.598   0.490   5.619  0.2940  0.1469 -1.2919
  709TIP3   OH223541   5.849   0.990  15.344 -0.4503  0.2965 -0.2420
  709TIP3    H123542   5.909   0.956  15.278 -1.1062  1.2526 -1.3803
  709TIP3    H223543   5.853   0.927  15.415 -1.5492 -2.1578 -2.2037
  710TIP3   OH223544   0.300   0.172  12.233 -0.1435 -0.2248 -0.2903
  710TIP3    H123545   0.213   0.204  12.210 -0.7020 -1.8177 -0.5636
  710TIP3    H223546   0.360   0.240  12.203 -1.2524  0.5927 -0.7235
  711TIP3   OH223547   5.236   2.880  14.872  0.2633 -0.3639  0.0938
  711TIP3    H123548   5.294   2.851  14.943  0.4271 -0.7089 -0.1795
  711TIP3    H223549   5.196   2.800  14.840  0.2788 -0.2212 -0.2849
  712TIP3   OH223550   6.705   1.756  16.301 -0.1962 -0.1593 -0.1564
  712TIP3    H123551   6.703   1.696  16.375 -0.0841  0.5032  0.3884
  712TIP3    H223552   6.738   1.703  16.228 -1.2542 -1.0890  0.0086
  713TIP3   OH223553   0.724   1.210  13.153  0.1112  0.2218  0.2589
  713TIP3    H123554   0.663   1.156  13.102  1.3427 -0.7622 -0.2145
  713TIP3    H223555   0.668   1.277  13.193 -1.5620 -1.6091  1.1985
  714TIP3   OH223556   4.011   5.385   3.806  0.2148 -0.1972  0.2198
  714TIP3    H123557   3.994   5.311   3.747  1.5783  0.9296 -1.7246
  714TIP3    H223558   4.087   5.357   3.857  0.0861 -0.5339  0.2298
  715TIP3   OH223559   6.269   4.074  17.080  1.1359 -0.1077 -0.4811
  715TIP3    H123560   6.266   4.096  16.987  1.4260  0.5565 -0.3383
  715TIP3    H223561   6.339   4.129  17.115 -0.6384  1.5435  0.6244
  716TIP3   OH223562   6.163   1.861   4.433 -0.6017  0.2705  0.0797
  716TIP3    H123563   6.180   1.807   4.510  0.7985 -0.0069 -0.3927
  716TIP3    H223564   6.164   1.951   4.466  0.0806  0.1587  0.3774
  717TIP3   OH223565   2.301   4.529   5.460 -0.0628 -0.0219 -0.3245
  717TIP3    H123566   2.365   4.460   5.477 -0.9049 -0.8036 -0.2663
  717TIP3    H223567   2.234   4.487   5.407 -1.4493  0.2859  1.1261
  718TIP3   OH223568   4.859   1.899  11.367 -0.2066 -0.3290  0.7160
  718TIP3    H123569   4.809   1.830  11.412 -0.0141  0.3976  2.0955
  718TIP3    H223570   4.803   1.977  11.374 -0.1011 -0.1537 -0.2019
  719TIP3   OH223571   5.328   0.019   4.226 -0.0170  0.6285  0.3397
  719TIP3    H123572   5.350  -0.046   4.293 -0.5872  0.4025  0.3106
  719TIP3    H223573   5.411   0.064   4.209  0.4141 -0.1528  0.2979
  720TIP3   OH223574   0.177   0.844   5.553 -0.2822 -0.4551 -0.3740
  720TIP3    H123575   0.216   0.879   5.633 -1.4992 -0.6952  0.3462
  720TIP3    H223576   0.242   0.862   5.485  0.8566 -0.4004  0.6860
  721TIP3   OH223577   4.515   4.089  15.988  0.0324 -0.1899  0.4566
  721TIP3    H123578   4.543   4.062  15.901  1.8758  1.2588  0.5339
  721TIP3    H223579   4.568   4.036  16.048 -0.4488 -0.4110  0.6959
  722TIP3   OH223580   3.644   2.600   6.103 -0.7221 -0.0337 -0.3384
  722TIP3    H123581   3.681   2.623   6.189 -0.5624 -2.6206  0.3714
  722TIP3    H223582   3.703   2.641   6.040 -0.1115  0.8696  0.7868
  723TIP3   OH223583   6.331   5.700   0.151  0.0655  0.3337 -0.1945
  723TIP3    H123584   6.303   5.748   0.228 -0.1744 -0.2386  0.0816
  723TIP3    H223585   6.293   5.612   0.162 -1.6280  0.7838 -1.8945
  724TIP3   OH223586   4.485   3.514   0.580 -0.3826  0.7093 -0.0824
  724TIP3    H123587   4.515   3.593   0.625  2.1667 -0.5120  0.5470
  724TIP3    H223588   4.429   3.469   0.643  1.0464  0.3181  0.9749
  725TIP3   OH223589   1.562   0.159   3.560  0.1848 -0.4573 -0.3890
  725TIP3    H123590   1.626   0.095   3.532  0.1683 -0.5126 -0.2997
  725TIP3    H223591   1.543   0.210   3.481 -1.2660 -1.8123 -0.9791
  726TIP3   OH223592   1.408   4.698   4.245 -0.8251 -0.2852  0.2188
  726TIP3    H123593   1.330   4.752   4.236 -0.9144 -0.3479  0.6071
  726TIP3    H223594   1.387   4.617   4.198 -0.6803  0.0206 -0.3867
  727TIP3   OH223595   0.407   4.989  15.795 -0.1140  0.0894  0.5470
  727TIP3    H123596   0.434   4.961  15.883  0.2064 -1.9715 -0.1638
  727TIP3    H223597   0.312   4.979  15.795 -0.1912  0.7335  0.8433
  728TIP3   OH223598   5.152   6.363   2.520 -0.6377 -0.1663 -0.0963
  728TIP3    H123599   5.091   6.292   2.498 -0.4482 -0.6641  0.9236
  728TIP3    H223600   5.111   6.442   2.484 -0.7507 -0.8088 -1.4215
  729TIP3   OH223601   1.205   2.989   5.941 -0.0200 -0.1800  0.0497
  729TIP3    H123602   1.223   3.049   5.869 -0.2025  0.2144  0.3282
  729TIP3    H223603   1.261   3.019   6.013 -0.2694 -0.2090  0.2599
  730TIP3   OH223604   0.519   6.405  15.575  0.3326  0.5074  0.2644
  730TIP3    H123605   0.465   6.477  15.541  0.3749 -0.2725 -1.5386
  730TIP3    H223606   0.609   6.434  15.561  0.3502  0.0215 -0.7085
  731TIP3   OH223607   0.046   2.302   0.351 -0.7618 -0.4103 -0.0185
  731TIP3    H123608   0.076   2.392   0.358 -0.7943 -0.4511  0.6564
  731TIP3    H223609  -0.049   2.308   0.352 -0.8467 -0.2517 -2.4986
  732TIP3   OH223610   6.265   1.161  16.338  0.3325 -0.3196 -0.5869
  732TIP3    H123611   6.206   1.229  16.304  2.6433  1.7735 -0.7542
  732TIP3    H223612   6.331   1.150  16.269  2.0283 -0.0239  0.9062
  733TIP3   OH223613   3.206   3.476   0.486 -0.1436  0.3236 -1.0677
  733TIP3    H123614   3.200   3.384   0.459  0.9542 -0.4901  1.1937
  733TIP3    H223615   3.121   3.495   0.526  0.2728 -0.3950  0.2468
  734TIP3   OH223616   3.960   1.824   0.279 -0.2277  0.0762  0.2037
  734TIP3    H123617   3.889   1.873   0.236  0.6123  0.3823 -0.8852
  734TIP3    H223618   3.925   1.736   0.289 -0.3542 -0.0861 -1.4247
  735TIP3   OH223619   2.035   4.117   0.840 -0.4072 -0.2167  0.1115
  735TIP3    H123620   2.006   4.130   0.750  3.0200  1.4615 -0.9407
  735TIP3    H223621   2.011   4.197   0.886 -1.2211 -0.6330  0.4210
  736TIP3   OH223622   0.060   1.483  14.776 -0.4540 -0.2799 -0.3447
  736TIP3    H123623   0.033   1.512  14.689  2.2789 -0.3959 -1.3257
  736TIP3    H223624   0.088   1.562  14.820  0.3022 -0.5061 -0.4128
  737TIP3   OH223625   4.826   5.974  13.882  0.0969 -0.3503 -0.4310
  737TIP3    H123626   4.915   6.008  13.873  0.3514 -1.3004 -1.8328
  737TIP3    H223627   4.826   5.894  13.829 -2.1430  0.6709 -2.0823
  738TIP3   OH223628   5.499   6.280   0.784  0.4349  0.2451 -0.2298
  738TIP3    H123629   5.551   6.351   0.823  2.1988 -1.1867  0.1600
  738TIP3    H223630   5.471   6.227   0.858 -1.9374  1.1430 -0.4071
  739TIP3   OH223631   1.541   5.344  15.288 -0.3816 -0.5140 -0.6832
  739TIP3    H123632   1.464   5.367  15.235 -1.5351  1.7771  1.7799
  739TIP3    H223633   1.532   5.249  15.303 -2.4101 -0.4136 -0.9689
  740TIP3   OH223634   4.209   6.206   3.352  0.0475  0.0500 -0.2490
  740TIP3    H123635   4.299   6.173   3.351  0.6702  1.7042 -1.2318
  740TIP3    H223636   4.203   6.263   3.276 -1.4289  1.0289  0.5532
  741TIP3   OH223637   5.654   2.072  17.073  0.3287 -0.2043  0.2648
  741TIP3    H123638   5.634   2.163  17.092  0.9552 -0.1892  0.8791
  741TIP3    H223639   5.673   2.033  17.158  0.1200 -0.8984  0.0065
  742TIP3   OH223640   0.549   6.227  14.042  0.0494  0.0939  0.1751
  742TIP3    H123641   0.628   6.242  14.094 -1.8536  1.1794  3.0617
  742TIP3    H223642   0.572   6.156  13.983  2.7175 -0.6699  1.9342
  743TIP3   OH223643   1.520   3.124   5.176 -0.3436 -0.6044  0.7886
  743TIP3    H123644   1.592   3.183   5.152 -1.4575  0.8788  0.9841
  743TIP3    H223645   1.547   3.087   5.260  0.8606 -1.2572  0.1521
  744TIP3   OH223646   5.049   5.396   5.300 -0.4120 -0.3320  0.7162
  744TIP3    H123647   5.082   5.382   5.389  1.5523 -1.2682 -0.0915
  744TIP3    H223648   5.106   5.343   5.245 -2.2915 -0.6873 -1.0173
  745TIP3   OH223649   2.391   3.652   4.780  0.0277 -0.0818  0.1855
  745TIP3    H123650   2.435   3.572   4.808 -0.9269 -1.1852 -1.3436
  745TIP3    H223651   2.302   3.643   4.814 -0.3321 -0.0915 -0.7512
  746TIP3   OH223652   4.879   2.288   2.508 -0.0417 -0.3932 -0.5622
  746TIP3    H123653   4.888   2.367   2.562  0.2748  0.1153 -1.3441
  746TIP3    H223654   4.786   2.265   2.515  0.3658 -1.6687  1.9978
  747TIP3   OH223655   0.507   4.418   2.605  0.3425 -0.6277  0.5550
  747TIP3    H123656   0.433   4.476   2.620  0.4759 -0.2772 -0.1143
  747TIP3    H223657   0.490   4.378   2.520  1.7714  0.7864 -0.4390
  748TIP3   OH223658   1.466   1.318  12.450  0.4580 -0.2498  0.4339
  748TIP3    H123659   1.389   1.272  12.418  0.8156 -0.7440  0.2846
  748TIP3    H223660   1.478   1.390  12.388 -0.3232  0.2797  0.8829
  749TIP3   OH223661   6.452   1.665  12.831  0.1906 -0.0553 -0.1799
  749TIP3    H123662   6.419   1.685  12.744  1.0101  1.6039 -0.1465
  749TIP3    H223663   6.417   1.578  12.851 -2.2399  0.6612 -1.0445
  750TIP3   OH223664   2.878   5.995   3.876 -0.3184  0.2090 -0.5107
  750TIP3    H123665   2.900   5.918   3.823 -0.6389 -0.0619 -0.2588
  750TIP3    H223666   2.878   6.068   3.814  0.4959  0.0872 -0.6568
  751TIP3   OH223667   4.862   0.561  14.769  0.2666  0.2319  0.0707
  751TIP3    H123668   4.773   0.597  14.776  0.1905  0.1244 -0.3123
  751TIP3    H223669   4.879   0.557  14.675  0.2380 -0.8105  0.0910
  752TIP3   OH223670   4.493   2.018   4.402 -1.2835 -1.0962 -0.0735
  752TIP3    H123671   4.500   1.943   4.460  2.0862 -0.1845  0.8891
  752TIP3    H223672   4.428   2.075   4.445 -0.3344 -1.3430  1.7912
  753TIP3   OH223673   1.310   4.250   3.063  0.5932 -0.5244  0.0188
  753TIP3    H123674   1.331   4.159   3.040  0.0990 -0.6347 -0.0192
  753TIP3    H223675   1.216   4.257   3.045  0.4637 -0.2382  0.7837
  754TIP3   OH223676   1.791   5.042  12.469  0.2596  0.0591 -0.2189
  754TIP3    H123677   1.729   4.974  12.495 -0.4262  0.4073 -0.8726
  754TIP3    H223678   1.804   5.095  12.548 -0.1569 -0.1156 -0.0303
  755TIP3   OH223679   4.366   6.115  15.643  0.2165  0.1537 -0.1865
  755TIP3    H123680   4.360   6.034  15.694  0.1454 -0.4743 -1.1597
  755TIP3    H223681   4.393   6.181  15.706 -0.3895 -0.4851  0.7739
  756TIP3   OH223682   4.564   3.506  16.102  1.1280 -0.7378 -0.0553
  756TIP3    H123683   4.657   3.500  16.124  1.2768  0.3801 -0.2792
  756TIP3    H223684   4.554   3.455  16.022  2.1114  1.2464 -1.5173
  757TIP3   OH223685   5.051   5.000  13.791  0.3832 -0.2858  0.0059
  757TIP3    H123686   5.139   4.986  13.824 -0.5947 -2.6291  1.9671
  757TIP3    H223687   5.010   5.059  13.854  0.0566 -0.5599  0.0567
  758TIP3   OH223688   1.554   1.764   4.456  0.5262 -0.6039  0.3189
  758TIP3    H123689   1.611   1.831   4.421  0.3564 -0.7057 -0.1679
  758TIP3    H223690   1.526   1.797   4.542 -0.0215  0.2195 -0.1617
  759TIP3   OH223691   5.668   4.455  12.490 -0.1677 -0.1562  0.0130
  759TIP3    H123692   5.603   4.400  12.532  1.0501 -2.6849 -1.1785
  759TIP3    H223693   5.748   4.441  12.541 -0.1801  1.9104  0.7038
  760TIP3   OH223694   4.310   3.028  17.189  0.1665 -0.1790  0.3919
  760TIP3    H123695   4.230   3.079  17.172 -0.0110 -0.1614  1.2459
  760TIP3    H223696   4.279   2.950  17.236  0.5039 -0.8235 -0.4311
  761TIP3   OH223697   4.551   2.704   3.798 -0.1939 -0.2155 -0.6011
  761TIP3    H123698   4.582   2.776   3.743 -0.0318  0.0148 -0.2148
  761TIP3    H223699   4.621   2.693   3.863 -0.2726 -0.6441 -0.5871
  762TIP3   OH223700   0.646   2.794  12.729 -0.1472 -0.3914 -0.0095
  762TIP3    H123701   0.722   2.806  12.673 -0.9725  0.3951 -1.0058
  762TIP3    H223702   0.571   2.818  12.674 -0.9784  0.6359  1.4688
  763TIP3   OH223703   5.415   4.776  14.314 -0.0394 -0.8838  0.2666
  763TIP3    H123704   5.466   4.853  14.338 -0.5467 -0.1574 -0.9179
  763TIP3    H223705   5.417   4.721  14.393  1.6376 -0.3927  0.6165
  764TIP3   OH223706   5.003   3.894  12.560  0.0798  0.1935  0.4656
  764TIP3    H123707   4.941   3.857  12.623 -0.6801  0.9259  0.1723
  764TIP3    H223708   4.969   3.867  12.474 -0.1054  0.9678  0.2812
  765TIP3   OH223709   1.852   1.154  13.436 -0.1158 -0.0032  0.2306
  765TIP3    H123710   1.860   1.216  13.363 -1.6623 -0.6667 -0.5425
  765TIP3    H223711   1.872   1.069  13.398  0.0341 -0.2458  0.8329
  766TIP3   OH223712   5.772   1.884  15.237  0.3921  0.3383  1.2716
  766TIP3    H123713   5.762   1.814  15.171 -1.5382  1.3899  0.3803
  766TIP3    H223714   5.866   1.884  15.257  0.9948 -0.2963 -1.2020
  767TIP3   OH223715   5.641   3.200   3.515  0.4974 -0.3959 -0.2546
  767TIP3    H123716   5.711   3.161   3.567 -0.4898 -1.3002  0.4504
  767TIP3    H223717   5.562   3.185   3.567 -0.2894  0.1591 -1.2603
  768TIP3   OH223718   5.189   2.786  12.103  0.1723  0.6817  0.1948
  768TIP3    H123719   5.100   2.751  12.112  1.0384 -1.5910  0.5572
  768TIP3    H223720   5.219   2.801  12.192  0.2629  1.1627  0.0869
  769TIP3   OH223721   5.869   2.532  17.062  0.1053  0.6395 -0.1418
  769TIP3    H123722   5.824   2.500  17.140  0.2398 -1.8066 -0.9843
  769TIP3    H223723   5.844   2.624  17.056 -2.0012  0.2318  1.3254
  770TIP3   OH223724   1.058   3.382  15.072 -0.2932  0.3488  0.1702
  770TIP3    H123725   1.010   3.342  15.144  1.4161 -0.9925  0.6092
  770TIP3    H223726   0.994   3.441  15.031 -1.7415  0.0209  1.8358
  771TIP3   OH223727   2.869   4.399   5.494  0.4309 -0.5845 -0.1312
  771TIP3    H123728   2.780   4.367   5.507  0.2239  0.1634  0.3542
  771TIP3    H223729   2.885   4.457   5.569  1.4087 -0.8852 -0.0880
  772TIP3   OH223730   6.584   1.498   0.945  0.1042  0.1483 -0.4490
  772TIP3    H123731   6.584   1.527   0.854  0.2983  0.7271 -0.2705
  772TIP3    H223732   6.526   1.422   0.947 -1.4512  1.2862 -0.6977
  773TIP3   OH223733   3.453   1.433   6.672 -0.4242  0.5585  0.0462
  773TIP3    H123734   3.541   1.431   6.637 -1.3424  0.6506 -2.4279
  773TIP3    H223735   3.406   1.365   6.624 -2.0782  1.5365  0.1958
  774TIP3   OH223736   0.228   2.094   0.979 -0.8841  0.3879 -0.2474
  774TIP3    H123737   0.154   2.035   0.965 -0.1938 -0.3920 -0.7090
  774TIP3    H223738   0.283   2.049   1.042  1.1533 -0.9587 -2.7817
  775TIP3   OH223739   1.876   2.059   4.363 -0.2292 -1.0162 -0.0512
  775TIP3    H123740   1.905   2.062   4.454 -0.2816 -2.0071  0.0131
  775TIP3    H223741   1.782   2.077   4.367 -0.2805 -1.3129  0.1234
  776TIP3   OH223742   3.865   0.992   5.298  0.3053  1.0720  0.0557
  776TIP3    H123743   3.929   0.941   5.248 -0.4131  1.0067 -0.8276
  776TIP3    H223744   3.825   0.928   5.357 -0.1832  0.7191 -0.6420
  777TIP3   OH223745   1.544   6.040  14.484  0.0114 -0.1363 -0.1194
  777TIP3    H123746   1.552   5.988  14.404 -2.1619 -1.1254  0.2137
  777TIP3    H223747   1.520   5.977  14.552  0.8199  0.8279  1.1213
  778TIP3   OH223748   2.377   1.124  12.060  0.0237  0.1767  0.7080
  778TIP3    H123749   2.402   1.033  12.050 -2.5236 -0.7112  1.7259
  778TIP3    H223750   2.460   1.171  12.072  1.3201 -2.1607  1.4084
  779TIP3   OH223751   5.996   4.570   1.523  0.2431  0.7852 -0.1032
  779TIP3    H123752   5.942   4.620   1.462 -0.0089  2.0102  1.0907
  779TIP3    H223753   5.985   4.479   1.495  0.9981  1.3526 -2.5669
  780TIP3   OH223754   5.102   6.283   6.076  0.5655 -0.9377 -0.1821
  780TIP3    H123755   5.038   6.354   6.065  1.1880 -0.5481 -1.4657
  780TIP3    H223756   5.054   6.204   6.051 -0.0833 -0.9880  1.0979
  781TIP3   OH223757   6.398   3.287  17.239 -0.6260 -0.2154  0.7060
  781TIP3    H123758   6.474   3.228  17.235  0.2794  0.6654  3.0203
  781TIP3    H223759   6.414   3.352  17.171 -0.2196 -1.0178  0.0080
  782TIP3   OH223760   5.010   3.691  14.942 -0.3483 -0.0335 -0.3528
  782TIP3    H123761   4.945   3.674  14.874 -0.6395 -0.7240  0.0791
  782TIP3    H223762   4.957   3.709  15.020 -0.0267 -0.7209  0.0307
  783TIP3   OH223763   4.794   0.297  15.068  1.0244 -0.1444 -0.9978
  783TIP3    H123764   4.719   0.350  15.039  0.5127 -0.2530  0.1075
  783TIP3    H223765   4.870   0.355  15.056  0.2892  1.6658  2.0425
  784TIP3   OH223766   4.177   3.830  15.690 -0.0108  0.6975  0.1660
  784TIP3    H123767   4.264   3.807  15.723  1.0441  2.7344 -1.0030
  784TIP3    H223768   4.134   3.874  15.763  0.6630  1.3258  0.1950
  785TIP3   OH223769   5.434   3.975  12.609  0.0362 -0.4391 -0.4917
  785TIP3    H123770   5.442   3.915  12.535 -1.0376 -0.7035 -0.4088
  785TIP3    H223771   5.369   4.040  12.580  0.1765 -0.1019 -0.0626
  786TIP3   OH223772   1.234   3.935   3.303 -0.0288  0.6345  0.6596
  786TIP3    H123773   1.305   3.978   3.256  0.1908 -0.1920  0.2170
  786TIP3    H223774   1.248   3.959   3.395 -0.2491  1.9582  0.3709
  787TIP3   OH223775   3.249   2.649  11.492  0.0615  0.1197  0.5795
  787TIP3    H123776   3.320   2.690  11.442 -0.1541  3.1549  2.5608
  787TIP3    H223777   3.293   2.582  11.544  1.2107  0.7707  0.4948
  788TIP3   OH223778   2.924   1.859  14.839  0.6407 -0.1312 -0.3206
  788TIP3    H123779   3.014   1.890  14.837  0.4509  0.4386 -0.2523
  788TIP3    H223780   2.894   1.878  14.928  0.0876  0.7723 -0.6799
  789TIP3   OH223781   1.041   4.209  12.969 -0.1603 -0.6342  0.1194
  789TIP3    H123782   1.127   4.246  12.989 -0.2420 -0.7518  0.7014
  789TIP3    H223783   0.982   4.250  13.032 -0.3261 -1.4379  0.4979
  790TIP3   OH223784   6.177   0.970   3.802 -0.1743  0.4029  0.5000
  790TIP3    H123785   6.271   0.981   3.788  0.0113 -0.8247  0.6381
  790TIP3    H223786   6.139   0.970   3.714  0.5430 -3.5725 -0.0172
  791TIP3   OH223787   6.049   5.206  11.453  0.5757 -0.5659  0.0499
  791TIP3    H123788   5.994   5.284  11.455  1.4244  0.0290  1.5040
  791TIP3    H223789   6.104   5.218  11.375  0.9592  0.4901  0.4613
  792TIP3   OH223790   0.287   1.804  16.092 -0.5008 -0.2700 -0.0914
  792TIP3    H123791   0.342   1.766  16.024  0.2410  0.4622  0.0925
  792TIP3    H223792   0.335   1.880  16.123 -1.2711 -0.0453  0.5960
  793TIP3   OH223793   6.090   4.188  14.924 -0.3844  0.5682 -1.1369
  793TIP3    H123794   6.160   4.253  14.913  1.5294 -1.1521  0.1369
  793TIP3    H223795   6.086   4.143  14.839 -1.4486  1.9935 -1.8950
  794TIP3   OH223796   6.236   2.989  11.432 -0.7657  1.0426  0.3744
  794TIP3    H123797   6.282   2.906  11.421 -1.3150  0.8288 -0.3301
  794TIP3    H223798   6.243   3.032  11.347  1.5606  2.8105  1.3390
  795TIP3   OH223799   2.371   4.538   2.483 -0.5980  0.4397 -0.1696
  795TIP3    H123800   2.394   4.446   2.465 -0.6475  0.2955  0.4770
  795TIP3    H223801   2.281   4.547   2.452  0.0685  0.8312 -2.1210
  796TIP3   OH223802   3.770   2.640  17.086 -0.5742 -0.1182  0.2552
  796TIP3    H123803   3.732   2.567  17.038  0.4142 -0.6022  0.1796
  796TIP3    H223804   3.695   2.692  17.115 -1.3237 -1.4687  0.8051
  797TIP3   OH223805   4.467   5.196  14.713  0.0639 -0.1949  0.0257
  797TIP3    H123806   4.436   5.152  14.792  1.7799 -1.3957  0.0951
  797TIP3    H223807   4.524   5.266  14.746 -1.1906  0.9239 -0.1254
  798TIP3   OH223808   5.692   1.531  10.896  0.0806  0.2872 -0.2887
  798TIP3    H123809   5.785   1.545  10.911  0.0207  0.5177 -0.1396
  798TIP3    H223810   5.681   1.541  10.801  0.3455 -0.5451 -0.4217
  799TIP3   OH223811   3.297   4.011   0.096 -0.0734  0.1898 -0.6398
  799TIP3    H123812   3.270   4.083   0.153  0.3894 -0.6034  0.6294
  799TIP3    H223813   3.215   3.974   0.063 -0.5598 -0.9910  1.6433
  800TIP3   OH223814   4.508   3.566   0.244 -0.0154  0.0170 -1.1737
  800TIP3    H123815   4.533   3.519   0.324 -0.9409 -0.0854 -0.9363
  800TIP3    H223816   4.436   3.514   0.207 -1.7622  1.7533 -0.3763
  801TIP3   OH223817   3.944   2.946   5.392 -0.1127 -0.3247 -0.0143
  801TIP3    H123818   3.995   2.889   5.336 -0.7771 -0.5330 -0.4197
  801TIP3    H223819   3.895   2.887   5.449  2.4758 -0.1419  2.6492
  802TIP3   OH223820   6.679   5.833   3.848 -0.4573 -0.1929 -0.0303
  802TIP3    H123821   6.611   5.832   3.781  0.6883  0.9311 -1.2893
  802TIP3    H223822   6.761   5.827   3.798  0.4801  1.7085  1.1783
  803TIP3   OH223823   5.047   0.780   5.581 -0.4169  0.0802  0.3085
  803TIP3    H123824   5.078   0.817   5.664  0.1424  0.6428 -0.1482
  803TIP3    H223825   5.126   0.748   5.538 -0.1737  2.9496 -1.5847
  804TIP3   OH223826   6.042   5.129   4.769  0.1053  0.0479  0.4719
  804TIP3    H123827   6.081   5.137   4.857  1.1452  1.5164 -0.0776
  804TIP3    H223828   6.116   5.136   4.709 -0.8345  1.7913 -0.5821
  805TIP3   OH223829   1.586   4.070   0.111  0.5556  0.4876  0.0777
  805TIP3    H123830   1.541   4.132   0.053  2.9784 -0.7938 -3.5433
  805TIP3    H223831   1.526   3.995   0.116  0.3622  0.5438 -1.0441
  806TIP3   OH223832   1.326   1.958  14.224 -0.1555 -0.2545  0.1860
  806TIP3    H123833   1.322   1.863  14.232  2.8064 -0.3674  1.5092
  806TIP3    H223834   1.402   1.976  14.170 -1.2452  1.4138 -0.9274
  807TIP3   OH223835   5.607   4.363   5.049 -0.0698 -0.4471  1.1099
  807TIP3    H123836   5.556   4.435   5.087 -1.0045 -1.4598  1.8324
  807TIP3    H223837   5.613   4.298   5.119  0.7749 -1.0736  0.4751
  808TIP3   OH223838   2.182   2.985   4.134 -0.0029  0.2695 -0.0737
  808TIP3    H123839   2.263   2.970   4.183  0.7711  0.1188 -1.3581
  808TIP3    H223840   2.158   3.076   4.154 -0.1706 -0.0353  1.2091
  809TIP3   OH223841   3.707   4.016  14.283  0.5466 -0.3071  0.9077
  809TIP3    H123842   3.675   4.015  14.193  0.1370  2.9545  0.8681
  809TIP3    H223843   3.687   3.930  14.318 -3.5142 -0.2148 -0.7421
  810TIP3   OH223844   4.714   3.057   2.283 -0.0503  0.2237  0.0411
  810TIP3    H123845   4.689   2.968   2.308 -1.4452  0.4561 -0.4504
  810TIP3    H223846   4.649   3.113   2.325  1.3934  1.1214  1.1814
  811TIP3   OH223847   4.385   3.140   6.435 -0.3100  0.1860 -0.1610
  811TIP3    H123848   4.319   3.178   6.377  0.2297  0.4628 -0.6027
  811TIP3    H223849   4.386   3.197   6.511 -2.5534 -1.3432  1.1645
  812TIP3   OH223850   2.769   2.233  13.808  0.3203 -0.4294  0.0274
  812TIP3    H123851   2.823   2.272  13.739 -1.5479 -0.0960 -1.3037
  812TIP3    H223852   2.828   2.171  13.852  1.2433 -1.7160 -2.7725
  813TIP3   OH223853   4.431   0.792   2.105  0.1617  0.3363 -0.2058
  813TIP3    H123854   4.487   0.714   2.102  0.0104  0.1818  0.5754
  813TIP3    H223855   4.469   0.845   2.176 -0.1634  0.6369 -0.2576
  814TIP3   OH223856   6.657   1.559  11.911  0.4347 -0.1331 -0.1313
  814TIP3    H123857   6.643   1.525  11.823  1.3562 -0.2657 -0.2352
  814TIP3    H223858   6.580   1.529  11.961 -0.1228 -0.0024 -0.8893
  815TIP3   OH223859   0.324   3.341  12.214 -0.1159 -0.3697 -0.0984
  815TIP3    H123860   0.275   3.408  12.167 -0.2763  0.1747  0.8329
  815TIP3    H223861   0.277   3.330  12.296  1.5972  0.5571  1.0643
  816TIP3   OH223862   3.844   2.561   1.966  0.2823 -0.1062 -0.0934
  816TIP3    H123863   3.768   2.612   1.995 -1.7292 -2.7537 -0.3489
  816TIP3    H223864   3.873   2.605   1.886  0.2200  2.0124  0.9680
  817TIP3   OH223865   2.273   3.253  17.306  0.3494  0.2089  0.0645
  817TIP3    H123866   2.243   3.164  17.289  2.3097 -0.7280  1.1438
  817TIP3    H223867   2.239   3.273  17.394  1.1548 -0.0708  0.4456
  818TIP3   OH223868   1.601   4.209   1.462 -0.4228 -0.0728  0.1568
  818TIP3    H123869   1.547   4.160   1.400  0.2372 -1.6523  0.7877
  818TIP3    H223870   1.541   4.234   1.532 -0.7935  0.1591 -0.2398
  819TIP3   OH223871   4.603   4.538  13.802  0.4160  0.1576  0.4800
  819TIP3    H123872   4.565   4.606  13.746  2.3549 -0.9704 -2.4627
  819TIP3    H223873   4.620   4.582  13.885  1.2995  3.2533 -1.1716
  820TIP3   OH223874   0.062   6.479   0.615  0.3007 -0.1381  0.3965
  820TIP3    H123875   0.090   6.494   0.525 -1.6289  1.5473  0.0088
  820TIP3    H223876  -0.021   6.432   0.607 -1.5404  2.7526  1.0723
  821TIP3   OH223877   5.466   5.112  16.741  0.2837 -0.6590 -1.2856
  821TIP3    H123878   5.550   5.070  16.761 -0.0418 -0.5517  0.4808
  821TIP3    H223879   5.401   5.056  16.782 -0.3740  0.1422 -1.1994
  822TIP3   OH223880   1.626   2.052  16.993  0.6201  0.3929 -0.1520
  822TIP3    H123881   1.566   2.042  16.919 -0.4865 -2.2307  0.9687
  822TIP3    H223882   1.582   2.113  17.052 -0.6897 -0.9575  0.3276
  823TIP3   OH223883   0.073   4.176   2.087 -0.5293 -0.2941 -0.1433
  823TIP3    H123884   0.070   4.112   2.015  1.1895  0.2849 -0.7600
  823TIP3    H223885   0.078   4.261   2.043 -0.9110  0.1605  0.6759
  824TIP3   OH223886   2.746   2.765  13.339 -0.0669 -0.2541 -0.0470
  824TIP3    H123887   2.708   2.688  13.298  2.0064 -1.4290  0.0972
  824TIP3    H223888   2.732   2.835  13.275 -1.8216 -0.7403 -0.2539
  825TIP3   OH223889   2.397   2.848  14.653 -0.2308 -0.1681 -0.0339
  825TIP3    H123890   2.387   2.923  14.712  0.1739 -0.4033  0.3367
  825TIP3    H223891   2.314   2.801  14.660  0.1660 -0.7336  1.1050
  826TIP3   OH223892   3.662   2.287  15.671  0.6078  0.1749 -0.2661
  826TIP3    H123893   3.734   2.317  15.727  1.5718 -2.2775 -0.0700
  826TIP3    H223894   3.676   2.192  15.664 -2.2445 -0.2706 -0.7757
  827TIP3   OH223895   4.681   3.919  11.913 -0.0675  0.9406 -0.0568
  827TIP3    H123896   4.643   3.851  11.857  1.7025 -1.0466  0.9916
  827TIP3    H223897   4.621   3.924  11.988  0.4683 -0.5393  0.5150
  828TIP3   OH223898   2.084   2.234  14.503 -0.2447  0.7281  0.7164
  828TIP3    H123899   2.022   2.307  14.511 -0.2621  0.7306  0.5537
  828TIP3    H223900   2.028   2.157  14.491 -0.2075  0.7978  0.0338
  829TIP3   OH223901   0.058   6.505  10.986  0.0196 -0.3367 -0.1707
  829TIP3    H123902   0.067   6.433  11.049  2.4807  1.1676  1.4139
  829TIP3    H223903  -0.034   6.528  10.989 -0.3199 -1.6618  1.3614
  830TIP3   OH223904   0.626   3.930  13.165  0.8422  0.3085 -0.4396
  830TIP3    H123905   0.712   3.972  13.166  2.1853 -2.2671 -0.6093
  830TIP3    H223906   0.585   3.958  13.246  2.1648  0.9440  0.0410
  831TIP3   OH223907   2.965   6.242  13.421 -0.2487 -0.2648  0.0224
  831TIP3    H123908   3.040   6.241  13.480 -0.9360  0.7729  0.9421
  831TIP3    H223909   2.897   6.291  13.468 -0.5610  1.3164 -1.9085
  832TIP3   OH223910   0.541   4.617  11.683 -0.1870 -0.1713 -0.1538
  832TIP3    H123911   0.603   4.687  11.702 -0.5174  0.2976 -0.7417
  832TIP3    H223912   0.549   4.603  11.588 -1.8779  0.7921 -0.4787
  833TIP3   OH223913   1.033   3.136  14.243 -0.6113  0.3911  0.0410
  833TIP3    H123914   1.009   3.188  14.166  1.0966 -1.7403 -2.1012
  833TIP3    H223915   1.127   3.151  14.253 -0.5982 -0.2674  0.9938
  834TIP3   OH223916   4.457   6.582   3.536 -0.2095  0.1653  0.0429
  834TIP3    H123917   4.404   6.529   3.595  1.6446 -1.1649  0.6057
  834TIP3    H223918   4.512   6.519   3.489  1.0568  1.4733 -0.3150
  835TIP3   OH223919   2.836   6.657   2.347 -0.0021 -0.0279 -0.0178
  835TIP3    H123920   2.892   6.732   2.369 -1.2267  0.7451  0.5555
  835TIP3    H223921   2.845   6.598   2.422  0.6232 -0.2692 -0.2727
  836TIP3   OH223922   5.233   1.501  15.984  0.5456 -0.1421 -0.1533
  836TIP3    H123923   5.319   1.501  16.025 -0.3731  0.6017  1.9550
  836TIP3    H223924   5.181   1.440  16.037 -0.0521 -1.2769 -1.9208
  837TIP3   OH223925   0.565   2.792   5.107  0.6986 -0.1929 -0.3730
  837TIP3    H123926   0.544   2.756   5.021  0.2650 -0.4988 -0.1451
  837TIP3    H223927   0.576   2.716   5.163 -0.6518  0.0093  0.2094
  838TIP3   OH223928   3.301   4.696  14.995 -0.5840  0.0207  0.0320
  838TIP3    H123929   3.356   4.634  15.043  0.3979  0.9435  0.1288
  838TIP3    H223930   3.331   4.689  14.904 -0.5834  0.2526  0.0153
  839TIP3   OH223931   0.513   4.877  13.384 -0.3961 -0.5139 -0.0768
  839TIP3    H123932   0.529   4.800  13.330 -0.2686  0.0404 -0.8478
  839TIP3    H223933   0.470   4.843  13.462  0.6257 -1.5012  0.0886
  840TIP3   OH223934   3.993   1.478   4.717  0.6578 -0.6726  0.2352
  840TIP3    H123935   4.062   1.538   4.689  1.3227 -0.7684  1.5936
  840TIP3    H223936   3.940   1.529   4.778 -0.2626 -0.7207 -0.5022
  841TIP3   OH223937   6.701   0.982   5.508 -0.0799 -0.1191 -0.7619
  841TIP3    H123938   6.637   0.936   5.455  0.2343 -1.4286 -0.0465
  841TIP3    H223939   6.747   0.913   5.556  2.7236  0.6362 -2.1628
  842TIP3   OH223940   5.630   3.797  14.718 -0.3822 -0.2488 -0.0330
  842TIP3    H123941   5.655   3.714  14.758  0.9155 -0.4191 -1.1075
  842TIP3    H223942   5.702   3.857  14.740 -0.4863  0.1157 -0.6599
  843TIP3   OH223943   6.714   1.675   1.394 -0.6933  0.5104  0.3088
  843TIP3    H123944   6.700   1.605   1.330  1.7816  0.1160  0.0875
  843TIP3    H223945   6.778   1.638   1.455 -0.4308  2.0833  1.0318
  844TIP3   OH223946   3.139   6.681   5.081  0.1204 -0.1130 -0.1732
  844TIP3    H123947   3.164   6.663   4.991  0.6789 -0.0258 -0.0378
  844TIP3    H223948   3.164   6.602   5.129  1.5708  0.5509  0.2293
  845TIP3   OH223949   1.546   6.272   3.223 -0.4407  0.0193  0.1666
  845TIP3    H123950   1.493   6.348   3.199 -0.7741 -0.0428  0.6992
  845TIP3    H223951   1.627   6.284   3.174 -0.7502  0.3723 -0.2718
  846TIP3   OH223952   2.019   1.122   3.185  0.0930 -0.1262  0.1854
  846TIP3    H123953   2.022   1.122   3.280 -0.8907  0.1750  0.2232
  846TIP3    H223954   2.017   1.030   3.160 -0.4750 -0.1961  0.4867
  847TIP3   OH223955   4.777   4.141   4.039 -0.6637 -0.1538  0.0727
  847TIP3    H123956   4.839   4.197   4.086 -0.5305 -0.6907  0.5477
  847TIP3    H223957   4.696   4.147   4.089 -1.4960  1.7195 -1.3507
  848TIP3   OH223958   3.361   0.898   5.880 -0.1316 -0.0598  0.1064
  848TIP3    H123959   3.406   0.977   5.852  0.0050  0.5566  1.9170
  848TIP3    H223960   3.284   0.892   5.824 -0.5235  1.7702  0.3992
  849TIP3   OH223961   0.682   0.239  16.674 -0.0489 -0.0894  0.1419
  849TIP3    H123962   0.682   0.265  16.766 -0.4800 -3.0992  1.0848
  849TIP3    H223963   0.598   0.271  16.640 -0.9987 -1.0181  1.4958
  850TIP3   OH223964   1.792   6.153   4.671  0.0111  0.0799 -0.0396
  850TIP3    H123965   1.876   6.130   4.633  1.0787  1.3242  1.4344
  850TIP3    H223966   1.769   6.237   4.632  0.6616  0.9111  1.2989
  851TIP3   OH223967   4.011   5.136  13.322 -0.1078  0.3828 -0.2625
  851TIP3    H123968   4.087   5.171  13.370  0.8664  0.9365 -2.1104
  851TIP3    H223969   4.039   5.136  13.231 -2.1053 -0.0912 -0.9158
  852TIP3   OH223970   6.537   2.802  14.487  0.4270 -0.0598  0.1376
  852TIP3    H123971   6.474   2.844  14.428  0.3537  0.7324  0.7455
  852TIP3    H223972   6.622   2.835  14.459  0.2811  1.4713  1.3235
  853TIP3   OH223973   4.692   3.401   0.720 -0.6472  0.0245  0.2037
  853TIP3    H123974   4.691   3.485   0.674 -0.8439  0.5883  1.2205
  853TIP3    H223975   4.670   3.337   0.652 -0.6725  0.8096 -0.5445
  854TIP3   OH223976   5.477   2.473   0.863  0.0319 -0.6661 -0.3392
  854TIP3    H123977   5.458   2.549   0.808  0.5775 -0.2147  0.0879
  854TIP3    H223978   5.429   2.401   0.822  0.7596 -0.4267 -1.6629
  855TIP3   OH223979   2.734   1.614  11.465  0.3143  0.1057 -0.8037
  855TIP3    H123980   2.647   1.650  11.450  0.2874 -0.5151 -2.2925
  855TIP3    H223981   2.792   1.691  11.461  0.1384  0.1893 -2.8622
  856TIP3   OH223982   6.663   1.959   2.685  0.4230  0.3677 -0.0877
  856TIP3    H123983   6.753   1.991   2.690  1.0189 -1.2306  0.2869
  856TIP3    H223984   6.615   2.013   2.748  1.1063  1.2530 -0.3068
  857TIP3   OH223985   1.863   0.309  12.733 -0.1616 -0.0058  0.2873
  857TIP3    H123986   1.795   0.294  12.798  0.0760 -1.2530  0.2750
  857TIP3    H223987   1.910   0.386  12.764 -2.4501  1.7909 -0.4624
  858TIP3   OH223988   4.103   0.829  13.802  0.3955 -0.3532 -0.2202
  858TIP3    H123989   4.143   0.895  13.859  1.7655 -0.7518 -0.6715
  858TIP3    H223990   4.134   0.746  13.836 -0.4490 -0.7155 -0.3096
  859TIP3   OH223991   4.789   1.170   5.475  0.3439 -0.1116 -0.3407
  859TIP3    H123992   4.858   1.225   5.512  0.0722 -1.1594  1.8988
  859TIP3    H223993   4.746   1.131   5.551 -1.0188 -1.5359 -1.7655
  860TIP3   OH223994   6.570   5.834  12.232 -0.4112 -0.0101 -0.1773
  860TIP3    H123995   6.584   5.740  12.217 -2.1639 -0.2362 -0.6346
  860TIP3    H223996   6.476   5.846  12.221 -0.4752  1.5219  1.5398
  861TIP3   OH223997   4.764   5.272  16.484  0.2979  0.8513 -0.3313
  861TIP3    H123998   4.706   5.292  16.557  0.0661  1.6835 -0.7338
  861TIP3    H223999   4.835   5.221  16.523 -0.5893 -0.0099  0.2045
  862TIP3   OH224000   4.224   3.400   2.322  0.6566 -0.3730 -0.4652
  862TIP3    H124001   4.257   3.427   2.237 -0.6696 -0.9369 -1.1802
  862TIP3    H224002   4.269   3.458   2.384 -1.0474  2.6198 -1.8044
  863TIP3   OH224003   4.921   5.960  12.718 -0.1118  0.5223  0.3434
  863TIP3    H124004   4.959   5.920  12.797  0.5300  3.7868  1.8583
  863TIP3    H224005   4.988   6.022  12.689 -1.8977  2.1486 -0.4819
  864TIP3   OH224006   2.639   1.760   0.488 -0.1662 -0.6131 -0.0004
  864TIP3    H124007   2.629   1.665   0.482 -1.2723 -0.5232  0.1661
  864TIP3    H224008   2.733   1.774   0.500 -0.0129 -1.6895  0.1444
  865TIP3   OH224009   2.061   3.561   3.123  0.0178 -0.9468  0.1167
  865TIP3    H124010   2.087   3.495   3.059 -0.2796 -0.4919 -0.4787
  865TIP3    H224011   2.082   3.645   3.081 -3.5061 -0.4427 -0.9833
  866TIP3   OH224012   0.630   2.130  13.669  0.5045 -0.3978  0.2137
  866TIP3    H124013   0.672   2.089  13.745 -1.7053  0.2693  1.9262
  866TIP3    H224014   0.551   2.078  13.655 -1.3929  1.9485  1.2568
  867TIP3   OH224015   2.246   2.833   0.601 -0.0476  0.2779 -0.3072
  867TIP3    H124016   2.337   2.808   0.582 -0.0041  0.2828 -0.1119
  867TIP3    H224017   2.254   2.902   0.667 -0.2581 -2.6482  3.1172
  868TIP3   OH224018   4.760   0.478  16.207  0.5777  0.1525  0.3803
  868TIP3    H124019   4.724   0.472  16.118  1.5295  1.8339 -0.1447
  868TIP3    H224020   4.813   0.399  16.216  0.5194 -0.0105 -0.5641
  869TIP3   OH224021   0.323   1.922  10.956  0.7121  0.5340 -0.6609
  869TIP3    H124022   0.308   1.992  10.892 -3.1525  0.0158 -0.5555
  869TIP3    H224023   0.265   1.851  10.928  0.6381 -0.6367  2.1303
  870TIP3   OH224024   3.501   0.371  10.915 -0.3445 -0.4532 -0.3448
  870TIP3    H124025   3.438   0.333  10.854 -0.2217 -0.8413 -0.2318
  870TIP3    H224026   3.469   0.460  10.930 -1.1876 -0.8282  0.1572
  871TIP3   OH224027   5.063   5.360  16.877 -0.0212 -0.4719  0.1834
  871TIP3    H124028   5.030   5.309  16.803  0.5502  1.5579 -1.5719
  871TIP3    H224029   4.988   5.367  16.937 -0.7562 -1.4265 -0.5890
  872TIP3   OH224030   2.094   0.717  14.970 -0.1758  0.0585  0.5552
  872TIP3    H124031   2.149   0.731  14.894 -1.2196  0.6953 -0.1055
  872TIP3    H224032   2.100   0.799  15.020  0.1871 -0.2092  0.9631
  873TIP3   OH224033   5.519   0.463   5.515  0.2025  0.2929  0.3281
  873TIP3    H124034   5.426   0.457   5.493  0.1925 -0.0657  0.4633
  873TIP3    H224035   5.526   0.540   5.571  0.2878  1.4909 -1.2600
  874TIP3   OH224036   4.866   6.677   2.000 -0.0850 -0.0464  0.4987
  874TIP3    H124037   4.846   6.592   2.038 -0.8466 -0.1762 -0.1439
  874TIP3    H224038   4.902   6.728   2.072 -1.1016 -0.4086  1.3000
  875TIP3   OH224039   1.815   2.084  12.384  0.3469 -0.4335  0.0987
  875TIP3    H124040   1.744   2.097  12.447 -1.3829 -1.1456 -1.5857
  875TIP3    H224041   1.793   2.143  12.311  0.9823 -1.3116 -0.8408
  876TIP3   OH224042   6.698   4.244  11.697 -0.1273  0.1093 -0.3366
  876TIP3    H124043   6.623   4.300  11.717 -1.3875 -2.1114  1.7689
  876TIP3    H224044   6.661   4.173  11.643  1.1674  0.5816 -1.9393
  877TIP3   OH224045   4.476   5.491  14.230  0.2932  0.0255  0.3885
  877TIP3    H124046   4.509   5.474  14.142  1.6976 -1.0913  1.0866
  877TIP3    H224047   4.554   5.514  14.281 -0.3699 -0.1355  1.5071
  878TIP3   OH224048   5.561   2.051  13.941  0.3192  0.5131 -0.2416
  878TIP3    H124049   5.522   2.133  13.972  1.0661  0.7478  0.1222
  878TIP3    H224050   5.563   2.059  13.846 -3.3322 -0.8129 -0.5823
  879TIP3   OH224051   4.026   1.259   0.115  0.1304  0.0829  0.6888
  879TIP3    H124052   3.934   1.272   0.090  0.0980 -0.3536  0.5752
  879TIP3    H224053   4.060   1.347   0.126 -0.2465  0.2532  0.5184
  880TIP3   OH224054   0.838   4.623   3.915 -0.6807 -0.3289 -0.4459
  880TIP3    H124055   0.868   4.684   3.983 -1.6411 -1.1854  0.7871
  880TIP3    H224056   0.765   4.668   3.873 -0.1599  0.1545 -0.8506
  881TIP3   OH224057   3.285   0.581   4.512  0.0187  0.1214  0.1471
  881TIP3    H124058   3.256   0.659   4.558  0.0823  1.1143 -1.4406
  881TIP3    H224059   3.220   0.514   4.534 -0.4986  0.8398  0.8440
  882TIP3   OH224060   2.186   1.983   1.859  0.1005 -0.0302 -0.2999
  882TIP3    H124061   2.156   1.951   1.944 -0.3707  0.6614 -0.1970
  882TIP3    H224062   2.269   2.028   1.878  0.3163 -0.4174 -0.3104
  883TIP3   OH224063   6.616   5.986   1.301  0.2475 -0.5178  0.2454
  883TIP3    H124064   6.661   5.981   1.385  2.2125 -0.1011 -0.7258
  883TIP3    H224065   6.655   5.916   1.249 -0.1982 -0.1064 -0.6547
  884TIP3   OH224066   1.629   2.878  15.345 -0.3736  0.4780 -0.3600
  884TIP3    H124067   1.708   2.844  15.389 -0.6639  0.1487 -0.0883
  884TIP3    H224068   1.663   2.935  15.276  0.0800  2.6392  1.5397
  885TIP3   OH224069   2.858   5.117  13.867  0.0805 -1.0815 -0.3319
  885TIP3    H124070   2.898   5.192  13.823  0.6627 -0.3489  1.3746
  885TIP3    H224071   2.775   5.104  13.821 -0.3922  1.1054 -0.1994
  886TIP3   OH224072   4.732   3.688  13.641  0.2048  0.1465 -0.3687
  886TIP3    H124073   4.822   3.663  13.661  0.5391  2.4607  1.3891
  886TIP3    H224074   4.739   3.763  13.583 -0.6211 -0.0590 -0.7487
  887TIP3   OH224075   5.713   1.024  13.282 -0.4495  0.7249  0.5400
  887TIP3    H124076   5.809   1.029  13.284 -0.1564 -1.8673 -1.7837
  887TIP3    H224077   5.690   1.033  13.189 -2.3382 -0.1063  0.8825
  888TIP3   OH224078   2.348   1.574   6.203 -0.9874 -0.3021  0.2507
  888TIP3    H124079   2.396   1.584   6.285 -1.8777 -1.7188  0.9988
  888TIP3    H224080   2.315   1.484   6.206 -0.3679 -0.6589 -2.0523
  889TIP3   OH224081   2.431   2.154   1.649 -0.3559  0.3828  0.2409
  889TIP3    H124082   2.375   2.178   1.723 -0.3371  0.4734  0.2260
  889TIP3    H224083   2.402   2.212   1.578  0.2254  0.9115  0.4301
  890TIP3   OH224084   1.956   2.376  15.860  0.8494 -0.3554 -0.3734
  890TIP3    H124085   1.998   2.460  15.843 -0.4564  0.2705 -0.5627
  890TIP3    H224086   1.925   2.346  15.774 -1.4004  0.4662  0.0865
  891TIP3   OH224087   4.436   6.426  12.123 -1.2078 -0.3655 -0.4330
  891TIP3    H124088   4.386   6.465  12.051 -1.4465  0.0456 -0.0536
  891TIP3    H224089   4.449   6.335  12.097 -1.4879 -0.2784 -0.8921
  892TIP3   OH224090   3.667   5.400   3.628 -0.0763 -0.0319 -0.0827
  892TIP3    H124091   3.754   5.366   3.605  0.6929  0.9636  1.2031
  892TIP3    H224092   3.656   5.477   3.573  0.3621  0.4797  0.5220
  893TIP3   OH224093   3.131   0.020   4.177 -0.4715  0.5581 -0.5529
  893TIP3    H124094   3.082   0.095   4.211 -0.7756  0.3487 -0.5298
  893TIP3    H224095   3.211   0.020   4.229 -1.0455  0.0879  0.3579
  894TIP3   OH224096   4.508   3.138  12.663 -0.1833  0.2041  0.5953
  894TIP3    H124097   4.487   3.059  12.613  0.4692 -0.4532  1.3289
  894TIP3    H224098   4.598   3.126  12.691  0.0098  1.3286  0.5245
  895TIP3   OH224099   1.020   3.738  11.824  0.8171  0.2196  0.4547
  895TIP3    H124100   0.979   3.671  11.878  0.7093  1.2088  1.6325
  895TIP3    H224101   1.113   3.735  11.847  1.2198 -1.0195 -1.1380
  896TIP3   OH224102   0.950   3.004  15.598  0.5149 -0.9316 -0.1751
  896TIP3    H124103   1.038   3.014  15.563 -0.0346 -1.7103 -1.9343
  896TIP3    H224104   0.923   3.092  15.624  0.8823 -0.2252 -2.0554
  897TIP3   OH224105   4.068   0.003   6.398 -0.4041  0.1637 -0.0415
  897TIP3    H124106   4.090  -0.090   6.398 -1.7005 -0.2010 -1.9614
  897TIP3    H224107   4.038   0.020   6.309  0.5503  2.6241  0.0351
  898TIP3   OH224108   2.631   2.177   0.630  0.5058 -0.4003  0.2964
  898TIP3    H124109   2.630   2.190   0.725 -1.0368  1.3704  0.1147
  898TIP3    H224110   2.700   2.236   0.599 -1.0378  1.4307  0.1365
  899TIP3   OH224111   2.208   0.781   6.096  0.2764  0.0711  0.1917
  899TIP3    H124112   2.191   0.792   6.002 -0.8934  0.6900  0.4654
  899TIP3    H224113   2.227   0.687   6.105  1.2426  0.1544 -0.7773
  900TIP3   OH224114   2.406   0.698   4.605 -0.0214 -0.5864  0.3466
  900TIP3    H124115   2.433   0.639   4.535  1.3087  0.1555  0.2137
  900TIP3    H224116   2.487   0.738   4.636 -0.6200 -0.6074  2.0508
  901TIP3   OH224117   2.464   3.458   0.554 -0.2194 -0.6265 -0.4180
  901TIP3    H124118   2.383   3.429   0.512  0.0797 -0.6887 -0.9476
  901TIP3    H224119   2.513   3.503   0.486 -0.7588  1.3493  0.4383
  902TIP3   OH224120   4.428   5.716   5.471 -0.8346 -0.5038 -0.2894
  902TIP3    H124121   4.461   5.705   5.382 -0.2863 -3.7550  0.1998
  902TIP3    H224122   4.411   5.627   5.502 -0.7004  0.4657  2.9983
  903TIP3   OH224123   4.060   0.892   4.716 -0.3762 -0.3161  0.1444
  903TIP3    H124124   4.009   0.967   4.686  2.6198  1.6765 -0.3823
  903TIP3    H224125   4.102   0.858   4.637 -0.3374 -1.4765  0.6478
  904TIP3   OH224126   2.346   1.250   0.895 -0.4287  0.0470 -0.3422
  904TIP3    H124127   2.345   1.180   0.960  2.4332 -0.2241 -0.4589
  904TIP3    H224128   2.387   1.324   0.940  0.4756  0.2486 -1.4628
  905TIP3   OH224129   5.197   1.940   0.726  0.3843  0.2939  0.3072
  905TIP3    H124130   5.270   1.931   0.665 -0.3508 -2.9001 -0.2481
  905TIP3    H224131   5.120   1.917   0.676 -0.7324  1.1970  1.5297
  906TIP3   OH224132   3.948   5.901   1.696 -0.1704  0.3376  0.2102
  906TIP3    H124133   3.869   5.858   1.730 -0.9601  2.4740  1.2928
  906TIP3    H224134   3.928   5.918   1.604 -1.7917  2.4080  0.8632
  907TIP3   OH224135   2.573   6.378   3.554  0.2014 -0.1236 -0.1362
  907TIP3    H124136   2.642   6.444   3.551 -0.8935  1.1311  1.0245
  907TIP3    H224137   2.536   6.378   3.466  1.5466 -0.7205 -0.7348
  908TIP3   OH224138   6.096   1.752  14.238  0.5298  0.1978  0.6332
  908TIP3    H124139   6.002   1.756  14.254  0.3423  1.3001 -0.5502
  908TIP3    H224140   6.133   1.823  14.291  0.4923  0.7562 -0.0752
  909TIP3   OH224141   6.188   3.664  16.844 -0.2300  0.4031 -0.6367
  909TIP3    H124142   6.159   3.606  16.914  0.2387  1.6663  0.6593
  909TIP3    H224143   6.165   3.618  16.764 -1.8269 -0.5803  0.3265
  910TIP3   OH224144   6.544   1.639   5.542 -0.4002  0.2900  0.0541
  910TIP3    H124145   6.452   1.616   5.534 -0.8137  1.3421  1.4739
  910TIP3    H224146   6.572   1.599   5.624  0.3142  0.2827 -0.1841
  911TIP3   OH224147   5.901   3.069  14.673  0.8202 -0.2360 -0.1357
  911TIP3    H124148   5.920   2.976  14.670  0.1665 -0.3758 -0.2772
  911TIP3    H224149   5.937   3.099  14.757 -0.0426 -0.8769  0.4901
  912TIP3   OH224150   0.234   2.871  11.477  0.1415  0.5740 -0.5203
  912TIP3    H124151   0.198   2.892  11.563 -0.2932 -2.5058  0.1927
  912TIP3    H224152   0.158   2.842  11.426  0.8962 -2.2625 -0.2521
  913TIP3   OH224153   0.809   4.756   1.064 -0.4987 -0.0007  0.5286
  913TIP3    H124154   0.735   4.811   1.091 -0.5126 -0.3025  1.1370
  913TIP3    H224155   0.822   4.696   1.138  0.7190  0.4207  0.6725
  914TIP3   OH224156   5.462   4.736   1.248  0.4210 -0.2839 -0.3753
  914TIP3    H124157   5.370   4.718   1.226  0.4353  0.7431 -1.3586
  914TIP3    H224158   5.482   4.673   1.317 -0.2468 -2.2804 -1.9111
  915TIP3   OH224159   5.961   1.749   5.231  0.0723  0.2775 -0.1814
  915TIP3    H124160   5.942   1.757   5.324  0.0587 -1.9793  0.0794
  915TIP3    H224161   6.049   1.785   5.221 -1.0740  3.4609  0.0477
  916TIP3   OH224162   3.052   0.466   1.587  0.1368 -0.1688 -0.4510
  916TIP3    H124163   3.004   0.421   1.518  0.7836 -2.2174  0.3869
  916TIP3    H224164   2.992   0.534   1.617 -0.1858  0.7605 -2.9471
  917TIP3   OH224165   2.171   4.556   3.754 -0.2607 -0.7113  0.5547
  917TIP3    H124166   2.155   4.620   3.685 -0.6616 -0.8056  0.5580
  917TIP3    H224167   2.127   4.477   3.725  1.1769 -1.3534  0.0188
  918TIP3   OH224168   0.787   6.051   1.643 -0.0890  0.0425  0.0204
  918TIP3    H124169   0.774   6.124   1.583 -1.5245 -0.8286 -0.8002
  918TIP3    H224170   0.743   6.077   1.724  0.5813  0.6284  0.2004
  919TIP3   OH224171   2.905   0.793  12.111  0.3803 -0.4006 -0.3179
  919TIP3    H124172   2.842   0.825  12.047  1.1678 -2.4600 -2.2137
  919TIP3    H224173   2.884   0.700  12.122 -0.4293  0.0407  3.3383
  920TIP3   OH224174   0.127   3.836   0.568 -0.0049 -0.6409  0.2926
  920TIP3    H124175   0.054   3.797   0.520  0.4908 -0.2909 -0.7769
  920TIP3    H224176   0.103   3.827   0.660 -0.6059 -2.0830  0.0306
  921TIP3   OH224177   0.262   3.764   1.063 -1.1263 -0.9912 -0.6136
  921TIP3    H124178   0.261   3.854   1.029  0.1877 -1.2871 -1.5221
  921TIP3    H224179   0.173   3.732   1.047 -0.8183 -0.8336 -3.1359
  922TIP3   OH224180   0.630   0.180   2.990  0.2619 -0.2581 -0.7473
  922TIP3    H124181   0.646   0.264   3.034  1.0991 -0.0859 -1.3342
  922TIP3    H224182   0.571   0.133   3.048 -0.2999  0.7759 -0.4502
  923TIP3   OH224183   5.063   3.797   3.196 -0.0057  0.2705  0.3800
  923TIP3    H124184   5.133   3.832   3.252  0.1659  0.0456  0.3064
  923TIP3    H224185   5.064   3.854   3.119  1.3095 -0.8211 -0.4471
  924TIP3   OH224186   3.248   6.150   1.024  0.0664 -0.0306 -0.4308
  924TIP3    H124187   3.227   6.089   1.095 -0.3263  1.1872  0.5299
  924TIP3    H224188   3.283   6.094   0.954 -1.0315 -1.4568  0.0983
  925TIP3   OH224189   3.601   3.062   4.561  0.6601 -0.0222  0.1415
  925TIP3    H124190   3.665   3.094   4.498 -0.3968  1.7743 -0.0880
  925TIP3    H224191   3.636   3.090   4.646  1.2167 -0.9309  0.2299
  926TIP3   OH224192   1.434   4.016  13.602  0.4714 -0.3737  0.2996
  926TIP3    H124193   1.503   3.951  13.591 -0.4277 -1.2859 -0.1430
  926TIP3    H224194   1.413   4.013  13.695 -1.0302 -2.3305 -0.0271
  927TIP3   OH224195   3.522   3.739  11.915 -0.0295 -0.4004  0.3231
  927TIP3    H124196   3.601   3.791  11.932  0.5665 -0.7526 -1.2313
  927TIP3    H224197   3.555   3.653  11.892 -0.8310 -0.3671 -1.0199
  928TIP3   OH224198   4.091   1.378  11.832 -0.1596  0.2263 -0.4093
  928TIP3    H124199   4.010   1.414  11.795 -0.7864 -0.1351  0.5753
  928TIP3    H224200   4.122   1.315  11.767 -1.2131 -0.3621 -0.3555
  929TIP3   OH224201   4.847   1.089  13.315 -0.3964  0.1795 -0.1582
  929TIP3    H124202   4.864   1.154  13.383 -0.1138 -0.3801  0.3179
  929TIP3    H224203   4.914   1.106  13.248 -1.3276  1.4193 -0.8344
  930TIP3   OH224204   2.713   1.040   1.934  0.2510  0.4293 -0.0468
  930TIP3    H124205   2.665   1.123   1.936 -0.8330 -0.1566 -0.6156
  930TIP3    H224206   2.779   1.048   2.003 -1.6632  0.6861  1.8664
  931TIP3   OH224207   6.346   3.918  12.906 -0.0668  0.0864 -0.1393
  931TIP3    H124208   6.377   3.888  12.991 -2.0282 -0.2519  0.5201
  931TIP3    H224209   6.289   3.993  12.926  1.1738  1.4241 -1.3748
  932TIP3   OH224210   3.755   6.272  13.195 -0.2675 -0.2809 -0.2617
  932TIP3    H124211   3.789   6.183  13.193 -1.9566 -1.0207  1.0707
  932TIP3    H224212   3.700   6.279  13.118  0.7467  0.0204 -0.9781
  933TIP3   OH224213   6.155   5.368  12.966 -0.2914 -0.2508  0.3202
  933TIP3    H124214   6.102   5.292  12.942 -0.0697  0.3824 -2.4937
  933TIP3    H224215   6.230   5.364  12.907  0.3563  1.4818  0.9700
  934TIP3   OH224216   5.500   2.754  16.703  0.1590 -0.3651  0.0302
  934TIP3    H124217   5.424   2.734  16.757 -0.7567 -2.1110 -1.7629
  934TIP3    H224218   5.473   2.730  16.614  2.1772  0.7424 -0.9553
  935TIP3   OH224219   4.163   2.992  16.307  0.2650 -0.1145 -0.5876
  935TIP3    H124220   4.090   2.967  16.250 -0.6099  0.8214  0.0779
  935TIP3    H224221   4.197   2.909  16.340  0.7423 -0.6675 -2.3892
  936TIP3   OH224222   1.988   2.441   2.958 -0.0050  0.3123 -0.2139
  936TIP3    H124223   2.059   2.409   2.902  0.2941  1.3978 -0.4842
  936TIP3    H224224   1.931   2.365   2.972  0.6178 -0.2898 -0.9140
  937TIP3   OH224225   2.746   5.405   1.131 -0.3724 -0.1015 -0.3192
  937TIP3    H124226   2.748   5.330   1.071  1.4019  1.5658 -2.5407
  937TIP3    H224227   2.837   5.433   1.137 -0.8274  1.1389  1.4719
  938TIP3   OH224228   4.032   3.231  15.377 -0.0768  0.0778  0.0031
  938TIP3    H124229   3.962   3.184  15.332  0.6104 -0.7929 -0.1795
  938TIP3    H224230   3.991   3.267  15.455 -0.5336 -1.2093  0.3836
  939TIP3   OH224231   5.258   1.687   0.083  0.5649  0.0303  0.6460
  939TIP3    H124232   5.249   1.615   0.145  0.1666 -1.6554 -1.2649
  939TIP3    H224233   5.264   1.645  -0.002  1.9301  2.2172 -0.4303
  940TIP3   OH224234   4.501   2.890  16.047 -0.0625  0.0387  0.4056
  940TIP3    H124235   4.478   2.891  16.140 -1.3180  0.8092  0.1226
  940TIP3    H224236   4.468   2.973  16.014 -1.2389 -0.9623 -1.0759
  941TIP3   OH224237   4.213   3.088   1.265  0.2014  0.1713  0.0696
  941TIP3    H124238   4.179   3.174   1.293 -0.7546  0.5040 -1.9226
  941TIP3    H224239   4.173   3.026   1.326 -0.9681  0.9398  0.1290
  942TIP3   OH224240   4.931   2.681  12.134 -0.5725 -0.1872  0.1918
  942TIP3    H124241   4.843   2.716  12.119 -0.5816 -0.2370  0.1281
  942TIP3    H224242   4.917   2.586  12.145 -0.5647 -0.1528  0.5055
  943TIP3   OH224243   2.904   0.850   3.032  0.1792  0.4766  0.4122
  943TIP3    H124244   2.877   0.897   2.953 -0.5484  0.2084  0.4951
  943TIP3    H224245   2.991   0.816   3.010  0.0335  0.4969 -0.2392
  944TIP3   OH224246   0.740   1.634  16.479 -0.0660  0.7993  0.0767
  944TIP3    H124247   0.761   1.637  16.573  0.3619 -0.6803  0.0454
  944TIP3    H224248   0.761   1.722  16.448 -0.2515  1.3355  1.3699
  945TIP3   OH224249   3.135   1.937   1.601 -0.3874 -0.7210 -0.4232
  945TIP3    H124250   3.137   1.996   1.677  1.6903 -1.1521 -0.0864
  945TIP3    H224251   3.134   1.849   1.639 -0.7915 -0.9293 -0.9129
  946TIP3   OH224252   3.971   0.027   1.669 -0.3163  0.1566  0.2760
  946TIP3    H124253   3.909  -0.031   1.625  0.7921 -0.2386 -0.8510
  946TIP3    H224254   3.919   0.075   1.733 -1.5478 -1.0009  0.1858
  947TIP3   OH224255   3.808   1.769  16.242  0.2947 -0.2425  0.0434
  947TIP3    H124256   3.747   1.832  16.279 -0.0221 -0.8996  0.6587
  947TIP3    H224257   3.768   1.684  16.258 -0.3982 -0.5454 -2.7631
  948TIP3   OH224258   4.382   1.486  17.266 -0.3574  0.2011  0.0792
  948TIP3    H124259   4.346   1.558  17.318 -1.9681  0.1164 -0.8173
  948TIP3    H224260   4.476   1.488  17.283 -0.8075 -0.0245  3.1731
  949TIP3   OH224261   2.385   4.832  16.889 -0.0690  0.4675 -0.0601
  949TIP3    H124262   2.294   4.811  16.869  1.0873 -4.7391 -1.4230
  949TIP3    H224263   2.435   4.798  16.815  3.1598  1.1223  1.5932
  950TIP3   OH224264   3.323   0.938  14.454 -0.0176  0.5132  0.0685
  950TIP3    H124265   3.360   1.010  14.403  0.6481  0.5812  0.6265
  950TIP3    H224266   3.378   0.933  14.532 -0.7035  0.0799  0.5400
  951TIP3   OH224267   3.925   6.439  14.951 -0.5332 -0.0498 -0.5699
  951TIP3    H124268   3.940   6.400  14.864  0.2824 -1.4432  0.1448
  951TIP3    H224269   4.011   6.474  14.976 -0.5005 -0.5805  0.0876
  952TIP3   OH224270   0.978   5.523   4.673 -0.1021 -0.1832 -0.2908
  952TIP3    H124271   1.064   5.482   4.665  1.2033  1.5399  3.0352
  952TIP3    H224272   0.933   5.501   4.591  2.2313 -3.9204 -0.8249
  953TIP3   OH224273   6.399   0.250  16.577  0.7990 -0.0809 -0.3702
  953TIP3    H124274   6.464   0.222  16.512  0.9210 -2.1335  0.5560
  953TIP3    H224275   6.424   0.340  16.598  1.7182  0.0878 -1.9660
  954TIP3   OH224276   3.473   6.004  15.402  0.5316 -0.2025 -0.1278
  954TIP3    H124277   3.512   6.026  15.317  0.2375 -1.2231 -0.5486
  954TIP3    H224278   3.534   6.040  15.466  1.1151 -0.0020 -0.7775
  955TIP3   OH224279   5.604   1.379  16.004  0.0787 -0.0971  0.6598
  955TIP3    H124280   5.660   1.336  16.068 -1.5935 -0.6498  1.8404
  955TIP3    H224281   5.530   1.412  16.056 -1.5105 -0.8596 -0.9922
  956TIP3   OH224282   0.472   6.006   3.841 -0.1051 -0.1953 -0.3119
  956TIP3    H124283   0.476   6.084   3.897  1.0432 -1.2526  1.1434
  956TIP3    H224284   0.391   6.017   3.791 -0.5784  1.3381  0.7171
  957TIP3   OH224285   2.875   5.347   0.802  0.1747  0.1495  0.1318
  957TIP3    H124286   2.810   5.415   0.787  1.0498  1.2787  1.2901
  957TIP3    H224287   2.836   5.268   0.763 -2.7651  0.3088  2.3688
  958TIP3   OH224288   0.081   5.050  16.707 -0.3334  0.3015  0.1088
  958TIP3    H124289   0.038   5.014  16.630  1.3093 -0.9010 -0.3040
  958TIP3    H224290   0.054   5.142  16.710 -3.9983 -0.6283  0.7031
  959TIP3   OH224291   3.318   4.775  15.754 -0.4391  0.1172 -0.3085
  959TIP3    H124292   3.247   4.724  15.793  0.0086 -0.2422  0.0574
  959TIP3    H224293   3.294   4.784  15.662 -0.4742 -0.8714 -0.4075
  960TIP3   OH224294   6.712   1.537  11.024 -0.0294 -0.1828  0.0845
  960TIP3    H124295   6.725   1.626  10.990  0.5923 -0.0856  0.5431
  960TIP3    H224296   6.638   1.502  10.974  0.8705 -0.0686 -1.3786
  961TIP3   OH224297   3.787   6.020   1.108  0.2927 -0.0777  0.3816
  961TIP3    H124298   3.834   6.097   1.075 -0.6569 -0.0933 -1.0942
  961TIP3    H224299   3.698   6.029   1.074 -0.6815 -0.3255  2.6738
  962TIP3   OH224300   6.618   3.638   2.837  0.2951 -0.0233 -0.3363
  962TIP3    H124301   6.707   3.604   2.848  0.2024 -0.4470 -0.8372
  962TIP3    H224302   6.606   3.642   2.742 -0.3083 -0.1996 -0.2697
  963TIP3   OH224303   6.695   3.541  16.291  0.0580  0.2824  0.4848
  963TIP3    H124304   6.637   3.465  16.291 -0.6277  0.7848  0.9943
  963TIP3    H224305   6.783   3.504  16.296 -0.0968 -0.5512 -1.8514
  964TIP3   OH224306   4.509   2.454   2.017  0.4423 -0.1970  0.4472
  964TIP3    H124307   4.455   2.438   1.939  0.0152  1.2541  0.4188
  964TIP3    H224308   4.452   2.432   2.090  0.2780  0.0392  0.3892
  965TIP3   OH224309   2.817   4.994  14.391 -0.3908  0.0366 -0.2452
  965TIP3    H124310   2.836   5.086  14.369  2.1330  0.1103  1.7462
  965TIP3    H224311   2.807   4.951  14.306  2.3844  1.4479 -1.4349
  966TIP3   OH224312   4.183   2.209  15.295 -0.5004 -0.0959 -0.1763
  966TIP3    H124313   4.091   2.234  15.305 -0.9982 -1.8878  0.0280
  966TIP3    H224314   4.209   2.178  15.381  0.6869  1.4692  0.0822
  967TIP3   OH224315   5.567   6.007  12.184  0.1395  0.2646  0.1689
  967TIP3    H124316   5.577   6.080  12.245  0.5531 -1.0190  1.7215
  967TIP3    H224317   5.647   5.956  12.195 -0.4553 -0.8084 -0.3302
  968TIP3   OH224318   5.694   0.840   4.862  0.7718  0.2495 -0.7593
  968TIP3    H124319   5.738   0.785   4.926 -0.0007  0.1518 -0.2996
  968TIP3    H224320   5.669   0.781   4.791 -0.1080 -0.0167 -0.2402
  969TIP3   OH224321   3.907   2.125   3.342 -0.3803 -0.1239 -0.1612
  969TIP3    H124322   3.945   2.054   3.291 -0.0590 -0.1019  0.0511
  969TIP3    H224323   3.852   2.172   3.279 -0.2845 -0.3233 -0.3959
  970TIP3   OH224324   4.174   2.905   6.619 -0.0327  0.5394  0.5989
  970TIP3    H124325   4.127   2.827   6.588 -1.7101  0.3473  3.2986
  970TIP3    H224326   4.179   2.962   6.542 -1.8730 -0.7907 -0.5910
  971TIP3   OH224327   4.889   5.345   4.303  0.0427  0.1942  0.0590
  971TIP3    H124328   4.947   5.358   4.228 -0.2898  0.0780 -0.2208
  971TIP3    H224329   4.882   5.250   4.312 -2.0094  0.1390 -1.4239
  972TIP3   OH224330   5.153   5.612  16.829 -0.5067 -0.0641 -0.0506
  972TIP3    H124331   5.122   5.522  16.834  0.1635 -0.2214  1.9854
  972TIP3    H224332   5.084   5.664  16.870 -0.7367  0.3359 -0.9105
  973TIP3   OH224333   4.156   4.175   3.889 -0.3066 -0.5495  0.3012
  973TIP3    H124334   4.108   4.092   3.884  2.9473 -2.5453 -1.7446
  973TIP3    H224335   4.143   4.215   3.803  0.1242 -0.1456  0.4188
  974TIP3   OH224336   3.200   2.884  14.654 -0.0600  0.0884  0.0623
  974TIP3    H124337   3.200   2.980  14.650 -0.1059  0.0725 -0.3648
  974TIP3    H224338   3.107   2.861  14.644  0.0935 -0.0474 -1.2057
  975TIP3   OH224339   3.465   2.582   3.527  0.1570  0.3842 -0.3045
  975TIP3    H124340   3.513   2.644   3.582  0.8098  0.5851 -1.0809
  975TIP3    H224341   3.532   2.546   3.468 -0.9353  2.1321 -2.7545
  976TIP3   OH224342   5.127   6.400   3.539 -0.0157 -0.0512  0.6788
  976TIP3    H124343   5.158   6.426   3.452 -2.7090  2.6691  0.3910
  976TIP3    H224344   5.053   6.342   3.522 -1.3666  1.5072  1.0673
  977TIP3   OH224345   3.065   5.826  15.881 -0.6166  0.2748  0.8258
  977TIP3    H124346   2.995   5.807  15.817  0.6467  0.6515 -0.7431
  977TIP3    H224347   3.081   5.920  15.871  1.1315 -0.0728  0.0413
  978TIP3   OH224348   3.456   2.451  13.739  0.2230  0.0832  0.3499
  978TIP3    H124349   3.430   2.530  13.691 -1.0153 -0.3353  0.2934
  978TIP3    H224350   3.412   2.459  13.824 -0.2211 -0.7092  0.2069
  979TIP3   OH224351   2.213   5.414   0.793  0.1674  0.4285  0.0578
  979TIP3    H124352   2.208   5.330   0.839  0.0049  0.8072  0.7413
  979TIP3    H224353   2.292   5.455   0.828 -0.3080  0.9979  0.4904
  980TIP3   OH224354   0.710   4.678  15.875 -0.1137 -0.2215 -0.2208
  980TIP3    H124355   0.697   4.746  15.809  0.7807  0.2802  0.1027
  980TIP3    H224356   0.652   4.704  15.948 -0.6338 -0.4423 -0.5476
  981TIP3   OH224357   6.020   3.282   5.954 -0.1013 -0.0522  0.0021
  981TIP3    H124358   5.927   3.290   5.977 -0.2247 -0.5299 -0.3183
  981TIP3    H224359   6.050   3.206   6.003 -0.8244 -2.2747 -2.7433
  982TIP3   OH224360   4.101   1.266  12.071  0.1640 -0.4616 -0.2136
  982TIP3    H124361   4.106   1.310  11.986 -2.8414  0.8161  0.1410
  982TIP3    H224362   4.176   1.300  12.120 -0.1426  1.7240 -1.1397
  983TIP3   OH224363   0.652   6.032  16.247 -0.2864  0.4290  0.5107
  983TIP3    H124364   0.702   6.114  16.258  1.3729 -0.6086  1.1339
  983TIP3    H224365   0.643   6.021  16.153  1.8622  0.0096  0.3049
  984TIP3   OH224366   4.485   0.327   5.161  0.0419 -0.1014 -0.4216
  984TIP3    H124367   4.520   0.248   5.202 -0.7957 -0.5459 -0.5300
  984TIP3    H224368   4.450   0.379   5.233 -1.1742 -0.7513 -0.5152
  985TIP3   OH224369   1.537   4.932  12.385  0.1640  0.1456 -0.1093
  985TIP3    H124370   1.587   4.851  12.372 -0.8587 -0.8868  1.9133
  985TIP3    H224371   1.445   4.905  12.379 -0.1995  1.0158  1.2218
  986TIP3   OH224372   2.931   2.818   4.987  0.1346 -0.3169 -0.2161
  986TIP3    H124373   2.961   2.906   5.009 -1.1615  0.2710 -0.6905
  986TIP3    H224374   2.969   2.799   4.902  3.0914 -1.5805  1.2443
  987TIP3   OH224375   4.295   1.473   3.747  0.2589 -0.0457  0.3314
  987TIP3    H124376   4.234   1.427   3.689  1.0515  0.3717 -0.8814
  987TIP3    H224377   4.242   1.542   3.787  0.3737  1.9978 -2.6646
  988TIP3   OH224378   4.057   2.949   4.503  0.1306  0.5034  0.1624
  988TIP3    H124379   4.136   2.953   4.450  0.3104  1.2093  0.4615
  988TIP3    H224380   4.070   3.016   4.570 -0.7861  0.7458  0.1186
  989TIP3   OH224381   6.369   1.780  15.462  0.6755  0.2361  0.1095
  989TIP3    H124382   6.454   1.803  15.499  1.7139 -1.2706 -1.1907
  989TIP3    H224383   6.389   1.746  15.375 -1.6496  4.0030 -2.2043
  990TIP3   OH224384   2.022   2.472   2.379  0.0351  0.0014 -0.0122
  990TIP3    H124385   2.109   2.434   2.373  0.5218  1.1074 -0.2754
  990TIP3    H224386   1.968   2.418   2.322  0.2002 -1.5792  1.2795
  991TIP3   OH224387   1.747   1.290   1.328 -0.3250  0.9363 -0.2247
  991TIP3    H124388   1.708   1.377   1.314  0.6193  1.3488 -0.3544
  991TIP3    H224389   1.776   1.263   1.241 -1.3734  0.0942 -0.3444
  992TIP3   OH224390   4.858   0.675  15.592 -0.0500  0.4431  0.7655
  992TIP3    H124391   4.768   0.657  15.562  0.0854 -0.4751  0.8903
  992TIP3    H224392   4.847   0.715  15.678 -0.3235 -0.0597  0.9632
  993TIP3   OH224393   3.302   1.638   4.232 -0.4357  0.0031 -0.6785
  993TIP3    H124394   3.232   1.602   4.179 -1.4862  0.7855  0.1313
  993TIP3    H224395   3.266   1.640   4.321  0.1233  1.6156 -0.4522
  994TIP3   OH224396   4.044   3.680  14.241 -0.6129  0.2372  0.2472
  994TIP3    H124397   3.958   3.642  14.224 -0.5164 -0.6015  1.4281
  994TIP3    H224398   4.105   3.626  14.191 -0.4150 -1.6613  2.3658
  995TIP3   OH224399   6.480   5.132   0.509 -0.0503  0.3089  0.4113
  995TIP3    H124400   6.492   5.125   0.604  0.9234 -2.1485  0.1724
  995TIP3    H224401   6.561   5.098   0.472 -1.2496 -0.8252 -1.3148
  996TIP3   OH224402   4.099   2.326  10.859  0.6176  0.0826 -0.6795
  996TIP3    H124403   4.035   2.357  10.924  0.1652  1.0803 -1.5588
  996TIP3    H224404   4.046   2.305  10.782  1.0937 -1.5656 -0.5884
  997TIP3   OH224405   2.621   1.174  17.130  0.8350  0.0724 -0.3450
  997TIP3    H124406   2.655   1.087  17.106 -1.7325 -1.0899 -0.0448
  997TIP3    H224407   2.634   1.227  17.051  1.5537 -0.8435 -0.8704
  998TIP3   OH224408   1.621   3.816   3.251  0.5172 -0.0952 -0.2168
  998TIP3    H124409   1.677   3.797   3.175 -1.8381 -1.8908 -1.6403
  998TIP3    H224410   1.629   3.738   3.306 -0.2313 -0.1873 -0.2273
  999TIP3   OH224411   2.197   0.263   0.936 -0.2845 -0.3311 -0.7635
  999TIP3    H124412   2.274   0.207   0.940 -1.2260 -1.6271  0.0739
  999TIP3    H224413   2.128   0.208   0.898 -1.6863 -0.3667  1.6235
 1000TIP3   OH224414   6.641   0.724  13.034  0.1601  0.1870  0.2869
 1000TIP3    H124415   6.569   0.695  13.090  0.7713 -1.5114  0.2347
 1000TIP3    H224416   6.693   0.782  13.089 -0.3082  0.0611  0.8645
 1001TIP3   OH224417   0.156   6.089   1.351 -0.2131 -0.2451  0.3071
 1001TIP3    H124418   0.224   6.029   1.319  1.4456  0.7287  1.7791
 1001TIP3    H224419   0.119   6.127   1.271  0.7810 -1.0159 -0.5663
 1002TIP3   OH224420   6.102   1.825   1.130  0.2602 -0.3874 -0.9620
 1002TIP3    H124421   6.192   1.797   1.146  0.0742  0.5390  2.5813
 1002TIP3    H224422   6.051   1.744   1.138  0.4470 -0.3447  1.5483
 1003TIP3   OH224423   3.815   4.347   5.823 -0.6260  0.1443  0.3806
 1003TIP3    H124424   3.865   4.395   5.889 -3.0111  0.4967  2.0827
 1003TIP3    H224425   3.840   4.387   5.740  2.0745  0.0561  1.0609
 1004TIP3   OH224426   2.375   0.688  15.620  1.0986  0.2626  0.2636
 1004TIP3    H124427   2.357   0.779  15.595 -1.0435 -0.3440 -0.5662
 1004TIP3    H224428   2.461   0.692  15.662  1.7638  2.4262 -1.1270
 1005TIP3   OH224429   4.826   4.562  15.010 -0.4791 -0.3992 -0.0049
 1005TIP3    H124430   4.830   4.576  14.916  1.3538 -2.4817 -0.3219
 1005TIP3    H224431   4.883   4.630  15.047 -1.8570  0.9574 -0.2506
 1006TIP3   OH224432   2.922   5.628  14.206 -0.1941 -0.1922  0.4985
 1006TIP3    H124433   2.967   5.710  14.187  0.0691 -0.4040  0.2071
 1006TIP3    H224434   2.969   5.562  14.155 -0.7063 -0.4451  0.3441
 1007TIP3   OH224435   0.348   1.391   1.207  0.5068 -0.5021  0.1424
 1007TIP3    H124436   0.384   1.478   1.224 -1.8355  0.3620  1.1337
 1007TIP3    H224437   0.293   1.404   1.129  2.1430 -1.7628 -1.3022
 1008TIP3   OH224438   0.611   3.169  16.958  0.1888 -0.2734  0.2474
 1008TIP3    H124439   0.659   3.086  16.961  0.2436 -0.4376 -2.5006
 1008TIP3    H224440   0.679   3.234  16.939  0.0963  0.4122  2.0675
 1009TIP3   OH224441   5.178   0.389   1.536 -0.1101  0.0347  0.3978
 1009TIP3    H124442   5.123   0.366   1.611 -2.1395 -0.4199 -1.1534
 1009TIP3    H224443   5.267   0.391   1.572 -1.0231  0.1093  2.8590
 1010TIP3   OH224444   3.743   5.663   0.189 -0.0749  0.0456 -0.1176
 1010TIP3    H124445   3.811   5.645   0.254 -1.2901 -1.9142  0.7084
 1010TIP3    H224446   3.705   5.578   0.169 -1.0778  0.8513 -1.9472
 1011TIP3   OH224447   5.679   1.882  10.617  0.8913 -0.1524  0.0729
 1011TIP3    H124448   5.681   1.819  10.545  1.1152 -0.8959  0.7210
 1011TIP3    H224449   5.746   1.947  10.593  0.5767 -0.0861 -0.6546
 1012TIP3   OH224450   6.313   1.539   5.315 -0.0814  0.2707 -0.5581
 1012TIP3    H124451   6.395   1.500   5.284  0.4015  0.2625  0.6992
 1012TIP3    H224452   6.275   1.578   5.237  1.0797  0.2092 -1.1802
 1013TIP3   OH224453   5.939   4.203  15.610  0.1250 -0.1018  0.1307
 1013TIP3    H124454   5.991   4.148  15.551  1.8320 -0.4247  1.8254
 1013TIP3    H224455   5.899   4.142  15.671 -1.0711  0.2818 -0.2413
 1014TIP3   OH224456   5.839   0.118  11.701 -0.3877  0.2374 -0.6921
 1014TIP3    H124457   5.766   0.076  11.746  0.1519 -1.3207 -1.1950
 1014TIP3    H224458   5.840   0.079  11.614  1.2414 -0.0353 -0.5882
 1015TIP3   OH224459   3.522   3.982  15.939 -0.2109 -0.4320 -0.4118
 1015TIP3    H124460   3.445   3.945  15.895 -0.4741 -0.6325  0.2053
 1015TIP3    H224461   3.588   3.988  15.870 -1.1421  0.8586 -1.2459
 1016TIP3   OH224462   5.021   2.093   4.355  0.4989  0.5626 -0.3279
 1016TIP3    H124463   5.082   2.158   4.389  0.3526 -0.1381  1.3574
 1016TIP3    H224464   5.057   2.009   4.383 -1.8850  0.1830  1.9203
 1017TIP3   OH224465   5.128   0.372   1.275 -0.7484  0.1631 -0.1798
 1017TIP3    H124466   5.158   0.379   1.366  1.5659 -3.2419 -0.4921
 1017TIP3    H224467   5.104   0.281   1.265 -2.2279  0.7531 -2.7026
 1018TIP3   OH224468   4.853   0.131   5.136 -0.1145  0.1074 -0.3024
 1018TIP3    H124469   4.800   0.156   5.212  1.8776  2.1624  0.5119
 1018TIP3    H224470   4.842   0.036   5.130 -3.7590  0.3821 -0.1831
 1019TIP3   OH224471   5.507   4.170  15.273  0.2113 -0.0431  0.0787
 1019TIP3    H124472   5.579   4.216  15.317 -0.8312 -0.6663  2.6224
 1019TIP3    H224473   5.437   4.234  15.269 -0.4043 -0.5981  1.3467
 1020TIP3   OH224474   2.142   5.650   6.016  0.8956 -0.0938  0.2571
 1020TIP3    H124475   2.083   5.628   6.088 -0.5955  0.1618 -0.8527
 1020TIP3    H224476   2.188   5.568   5.997  0.2024 -0.5560  0.5111
 1021TIP3   OH224477   5.793   3.714  13.681  0.0811  0.0923  0.3593
 1021TIP3    H124478   5.870   3.768  13.701  0.4628 -0.4107  0.2710
 1021TIP3    H224479   5.754   3.695  13.766  1.6826 -2.0257  0.7047
 1022TIP3   OH224480   3.485   5.221   1.602 -0.6633  0.1424 -0.7665
 1022TIP3    H124481   3.477   5.215   1.697 -1.1217  0.8834 -0.7410
 1022TIP3    H224482   3.397   5.202   1.570 -0.2916 -1.0751 -1.1155
 1023TIP3   OH224483   5.126   2.757  14.128  0.3010  0.6396  0.5899
 1023TIP3    H124484   5.140   2.677  14.179  0.8965  1.0027  1.0081
 1023TIP3    H224485   5.184   2.747  14.052 -1.2141 -0.2922 -0.5055
 1024TIP3   OH224486   5.544   3.249   2.071  0.1692 -0.1780 -0.6255
 1024TIP3    H124487   5.516   3.310   2.002  1.0336  0.0098 -0.8253
 1024TIP3    H224488   5.612   3.196   2.029  0.8984  0.1238  0.1687
 1025TIP3   OH224489   0.007   4.646  15.887 -0.2732  0.1343  0.1194
 1025TIP3    H124490  -0.050   4.604  15.822 -0.3786  1.6349 -0.7984
 1025TIP3    H224491  -0.054   4.693  15.945 -0.0270  1.1147 -0.4057
 1026TIP3   OH224492   3.151   6.262  14.426 -0.4238 -0.0883  0.2364
 1026TIP3    H124493   3.164   6.267  14.331 -1.5894  1.4568  0.1277
 1026TIP3    H224494   3.067   6.218  14.436  0.4781 -1.8023  0.6466
 1027TIP3   OH224495   5.621   2.768   5.364  0.3156  0.0558 -0.2558
 1027TIP3    H124496   5.588   2.836   5.423 -0.3610 -0.1069 -0.4307
 1027TIP3    H224497   5.542   2.733   5.323  0.7542 -0.0135 -1.0554
 1028TIP3   OH224498   6.098   1.896  16.149  0.4984  0.5481 -0.6695
 1028TIP3    H124499   6.190   1.890  16.176  0.7570  2.1006 -1.1412
 1028TIP3    H224500   6.062   1.968  16.200 -0.0516  0.9604 -1.6151
 1029TIP3   OH224501   5.556   4.324   5.912 -0.0344 -0.3332  0.1651
 1029TIP3    H124502   5.528   4.236   5.937 -2.6322 -0.0624 -1.3320
 1029TIP3    H224503   5.598   4.313   5.827  0.2642 -0.1946  0.2925
 1030TIP3   OH224504   2.148   3.922  13.978 -0.2321  0.4734 -0.3984
 1030TIP3    H124505   2.198   3.966  13.909  1.4408 -1.1049 -0.2691
 1030TIP3    H224506   2.114   3.843  13.936 -3.8773  2.0769 -0.8603
 1031TIP3   OH224507   0.283   0.093   5.208  0.3207 -0.5655 -0.0576
 1031TIP3    H124508   0.249   0.100   5.297 -2.1345  0.2864 -0.9874
 1031TIP3    H224509   0.330   0.176   5.194 -2.1013  0.8306 -0.5683
 1032TIP3   OH224510   3.986   5.121  14.816 -0.1163 -0.5020 -0.1080
 1032TIP3    H124511   3.945   5.115  14.729 -0.5584 -2.2509  0.1725
 1032TIP3    H224512   4.038   5.041  14.823 -1.3307 -1.1821  1.8374
 1033TIP3   OH224513   4.446   4.159  12.855 -0.1245  0.4194  0.0768
 1033TIP3    H124514   4.469   4.142  12.946 -0.3476 -1.0034 -0.1165
 1033TIP3    H224515   4.350   4.155  12.853 -0.1025  0.0080 -0.3009
 1034TIP3   OH224516   2.311   0.406   2.765 -0.6309 -0.3366  0.0409
 1034TIP3    H124517   2.260   0.479   2.730  0.4374  1.0508  1.2235
 1034TIP3    H224518   2.377   0.389   2.698 -1.3777 -0.7676 -0.5940
 1035TIP3   OH224519   1.537   3.938   4.935 -0.1253  0.4186  0.2401
 1035TIP3    H124520   1.570   3.924   4.846 -1.7211  0.8120 -0.4392
 1035TIP3    H224521   1.564   4.028   4.955  1.5101 -0.1472  0.7638
 1036TIP3   OH224522   0.255   0.004   5.477 -0.2033 -0.2389  0.1579
 1036TIP3    H124523   0.263  -0.091   5.481  1.9606 -0.0794  0.5873
 1036TIP3    H224524   0.161   0.021   5.485 -0.6565 -2.3428 -0.3240
 1037TIP3   OH224525   5.652   0.799   2.507  0.1690  0.3316 -0.2681
 1037TIP3    H124526   5.584   0.838   2.562 -0.1849  1.4025 -1.4176
 1037TIP3    H224527   5.616   0.713   2.482 -0.5921  0.7136 -0.5228
 1038TIP3   OH224528   3.266   6.640   2.476  0.2288 -0.3433 -0.2326
 1038TIP3    H124529   3.339   6.691   2.440  0.7919 -0.4507  0.7295
 1038TIP3    H224530   3.265   6.661   2.569 -1.3909  0.1480 -0.3317
 1039TIP3   OH224531   0.976   3.458  11.622 -0.4311 -0.2013 -0.1203
 1039TIP3    H124532   0.903   3.478  11.681 -1.0626 -2.5976  0.0311
 1039TIP3    H224533   0.997   3.541  11.580 -2.3911  0.8272  0.8042
 1040TIP3   OH224534   4.382   2.713  15.108 -0.4402  0.1718  0.1719
 1040TIP3    H124535   4.422   2.750  15.187  1.3807  1.1124 -1.1216
 1040TIP3    H224536   4.341   2.632  15.137  0.7351  0.1730  1.9623
 1041TIP3   OH224537   3.941   2.232   4.059 -0.5208  0.1186  0.4750
 1041TIP3    H124538   3.902   2.147   4.078 -1.3430  0.3701 -0.0334
 1041TIP3    H224539   3.880   2.273   3.998 -0.4308  1.3027  1.1453
 1042TIP3   OH224540   1.223   3.230   3.363  0.6085  0.6926  0.5745
 1042TIP3    H124541   1.311   3.202   3.389 -0.5143 -2.9452  0.9481
 1042TIP3    H224542   1.227   3.232   3.267  0.9009 -0.2139  0.5615
 1043TIP3   OH224543   0.977   2.763   2.947  0.5981 -0.0303  0.4977
 1043TIP3    H124544   0.889   2.772   2.912  1.4586  3.4364 -1.3143
 1043TIP3    H224545   0.973   2.806   3.032  0.6783  1.0184 -0.0072
 1044TIP3   OH224546   6.412   2.031  11.327  0.1513 -0.3242 -0.1562
 1044TIP3    H124547   6.385   2.065  11.242  0.0854  0.1538  0.0566
 1044TIP3    H224548   6.440   1.941  11.309 -0.7528 -0.5350 -0.5244
 1045TIP3   OH224549   2.358   6.567  12.898  0.4089 -0.0442  0.4644
 1045TIP3    H124550   2.290   6.588  12.834  1.8474  0.9889 -0.7886
 1045TIP3    H224551   2.330   6.483  12.936 -1.3294  0.1538 -0.2986
 1046TIP3   OH224552   4.522   6.011   0.760 -0.5705  0.7095  0.0370
 1046TIP3    H124553   4.481   5.940   0.810  1.1097  0.3263  0.9672
 1046TIP3    H224554   4.507   6.089   0.813 -2.0340  1.0004 -0.7662
 1047TIP3   OH224555   6.654   0.702   6.061  0.5675 -0.3252 -0.0203
 1047TIP3    H124556   6.672   0.612   6.037  1.0895  0.1030 -1.3307
 1047TIP3    H224557   6.563   0.717   6.033  0.0942 -0.7537  1.2224
 1048TIP3   OH224558   0.316   6.494  11.319  0.2809  0.3249  0.0962
 1048TIP3    H124559   0.299   6.459  11.231  0.3662 -2.0563  0.9709
 1048TIP3    H224560   0.241   6.466  11.371  1.3979 -0.4267  1.3486
 1049TIP3   OH224561   2.374   2.612  16.312  0.1301  0.2136 -0.0374
 1049TIP3    H124562   2.282   2.613  16.338  0.0528 -1.7891 -0.0414
 1049TIP3    H224563   2.391   2.521  16.288  1.3755  1.0630 -2.7964
 1050TIP3   OH224564   5.674   0.941   4.208  0.0095  0.2133 -0.4599
 1050TIP3    H124565   5.723   0.997   4.149  0.5961  0.8828  0.6370
 1050TIP3    H224566   5.670   0.990   4.290 -0.6722 -0.7472  0.1003
 1051TIP3   OH224567   4.873   5.711  15.068  0.7948 -0.0898 -0.1736
 1051TIP3    H124568   4.807   5.712  14.999  1.3835  2.1329 -0.7870
 1051TIP3    H224569   4.822   5.703  15.149 -0.0471 -0.6917 -0.7465
 1052TIP3   OH224570   0.151   1.123  16.451  0.4626  0.0323  0.4568
 1052TIP3    H124571   0.222   1.175  16.412  0.7737 -1.1038 -0.5832
 1052TIP3    H224572   0.124   1.064  16.380 -1.5193  0.4159  0.8480
 1053TIP3   OH224573   4.729   5.379  11.657 -0.4109  0.1248  0.0666
 1053TIP3    H124574   4.814   5.341  11.678 -0.1917  0.4551 -0.2269
 1053TIP3    H224575   4.666   5.321  11.700  0.0657  1.6792  3.1468
 1054TIP3   OH224576   4.143   5.127   0.311  0.1493  0.3743  0.1688
 1054TIP3    H124577   4.139   5.180   0.231 -0.3245 -0.0887 -0.1154
 1054TIP3    H224578   4.061   5.079   0.312  1.1510 -1.4282 -0.3094
 1055TIP3   OH224579   1.452   2.559  11.868 -0.1704 -0.6233 -0.5635
 1055TIP3    H124580   1.464   2.561  11.774 -1.6342  0.5236 -0.7641
 1055TIP3    H224581   1.382   2.495  11.882 -0.3216 -0.4035 -0.3081
 1056TIP3   OH224582   5.116   5.227  14.770 -0.2653 -0.4465  0.7419
 1056TIP3    H124583   5.045   5.288  14.790  0.7087  0.4415  1.6716
 1056TIP3    H224584   5.143   5.251  14.681 -1.0116 -0.6859  0.4445
 1057TIP3   OH224585   0.727   0.228  11.949 -0.1514  0.6658 -0.0745
 1057TIP3    H124586   0.740   0.242  12.042  1.5556 -1.3107  0.0572
 1057TIP3    H224587   0.678   0.305  11.919 -3.7515 -0.1495  3.0260
 1058TIP3   OH224588   1.272   6.035  13.607 -0.1789 -0.1943  0.1802
 1058TIP3    H124589   1.359   6.016  13.640  0.4465 -0.9298 -1.7634
 1058TIP3    H224590   1.283   6.113  13.554 -0.3900 -1.0829 -1.2076
 1059TIP3   OH224591   6.273   0.280  13.105 -0.6670  0.0361 -0.7440
 1059TIP3    H124592   6.231   0.196  13.087 -0.0758 -0.5850  0.6056
 1059TIP3    H224593   6.360   0.256  13.137 -1.2112  1.0318  1.6937
 1060TIP3   OH224594   5.406   5.042   1.555 -0.3356 -0.4056 -0.0391
 1060TIP3    H124595   5.390   5.087   1.472 -0.7991 -0.2917  0.1085
 1060TIP3    H224596   5.323   5.048   1.602  0.1850  0.3581  0.8203
 1061TIP3   OH224597   5.197   5.747  14.842 -0.0428  0.1065  0.2159
 1061TIP3    H124598   5.170   5.745  14.934 -3.6365 -1.9670 -0.7253
 1061TIP3    H224599   5.155   5.826  14.806 -0.6720 -0.3947 -0.1604
 1062TIP3   OH224600   3.542   3.938  12.687 -0.3785 -0.2036  0.6221
 1062TIP3    H124601   3.484   3.873  12.727  1.2446 -2.2355 -0.1090
 1062TIP3    H224602   3.540   3.917  12.593  0.2630  0.7453  0.3827
 1063TIP3   OH224603   1.209   6.266   1.589 -0.0306  0.3868  0.1305
 1063TIP3    H124604   1.284   6.206   1.578 -0.0057  0.8347 -2.8446
 1063TIP3    H224605   1.246   6.353   1.573 -1.1021  0.6312 -1.1952
 1064TIP3   OH224606   0.471   2.301   1.891 -0.3186  0.4301  0.7970
 1064TIP3    H124607   0.485   2.206   1.884 -0.1527  0.3916  1.5618
 1064TIP3    H224608   0.527   2.338   1.823 -0.4884 -0.0262  0.3986
 1065TIP3   OH224609   5.378   5.013   1.174  0.2730  0.0692 -0.2954
 1065TIP3    H124610   5.307   5.035   1.234  1.0229 -0.5234  0.8415
 1065TIP3    H224611   5.409   4.927   1.204  0.7254 -0.2068 -1.4814
 1066TIP3   OH224612   4.545   6.381  16.728 -0.5399 -0.2463 -0.2863
 1066TIP3    H124613   4.531   6.423  16.812 -1.6239 -1.6431  0.2683
 1066TIP3    H224614   4.617   6.431  16.688  0.4513  0.0299  1.7253
 1067TIP3   OH224615   3.606   0.483   5.724 -0.6261  0.0482 -0.3475
 1067TIP3    H124616   3.606   0.424   5.800 -0.0032 -0.8902 -1.0661
 1067TIP3    H224617   3.608   0.571   5.763  3.6523 -0.3489  0.7832
 1068TIP3   OH224618   6.550   2.479  10.929 -0.2218  0.1962  0.0171
 1068TIP3    H124619   6.583   2.406  10.981  1.0708  0.9249  0.2566
 1068TIP3    H224620   6.459   2.489  10.956 -0.7261 -1.9501 -0.7538
 1069TIP3   OH224621   3.340   3.586  16.983 -0.0474 -0.7000  0.1939
 1069TIP3    H124622   3.386   3.507  17.013 -1.1663 -1.2331  0.5585
 1069TIP3    H224623   3.253   3.580  17.024 -0.7011 -0.0953 -1.0570
 1070TIP3   OH224624   1.313   3.532  16.871  0.2295  1.0608 -0.2705
 1070TIP3    H124625   1.230   3.485  16.865 -0.0372  1.6149 -1.0111
 1070TIP3    H224626   1.379   3.464  16.870 -0.2237  0.5155  1.5501
 1071TIP3   OH224627   1.879   2.837  14.992  0.0573  0.0731 -0.5906
 1071TIP3    H124628   1.842   2.791  14.917  0.2545  0.4838 -0.9475
 1071TIP3    H224629   1.811   2.899  15.018  0.2882  0.4799 -0.9337
 1072TIP3   OH224630   0.048   6.048  11.677 -0.4072 -0.1190 -0.1314
 1072TIP3    H124631   0.095   6.128  11.700 -0.0276  0.0215 -1.3276
 1072TIP3    H224632   0.110   5.999  11.623 -1.5462 -0.0129 -1.5938
 1073TIP3   OH224633   2.193   1.949   0.402 -0.0145 -0.2181 -0.1169
 1073TIP3    H124634   2.153   2.034   0.381 -1.0878 -0.6430  0.1216
 1073TIP3    H224635   2.145   1.886   0.348  1.0630 -0.6377 -0.6144
 1074TIP3   OH224636   0.909   2.759   2.389 -0.2395  0.0586  0.0361
 1074TIP3    H124637   0.855   2.812   2.330 -1.0906 -1.4686 -0.6276
 1074TIP3    H224638   0.849   2.692   2.422 -0.0697  1.3943  3.4614
 1075TIP3   OH224639   6.613   2.012   5.127 -0.3422 -0.0162 -0.1438
 1075TIP3    H124640   6.612   1.923   5.162 -1.3632  0.2116  0.4285
 1075TIP3    H224641   6.692   2.015   5.073  0.8287 -0.6345  1.4469
 1076TIP3   OH224642   3.265   2.289   2.098 -0.2732  0.3770 -0.1275
 1076TIP3    H124643   3.182   2.331   2.075 -0.7902 -1.0556 -0.9719
 1076TIP3    H224644   3.331   2.355   2.076 -0.8492 -0.1322 -4.0507
 1077TIP3   OH224645   2.497   0.531   1.814 -0.0699 -0.0807  0.0600
 1077TIP3    H124646   2.526   0.472   1.745  1.1115  0.6806 -0.1292
 1077TIP3    H224647   2.455   0.603   1.767  1.5276  0.8827  0.0197
 1078TIP3   OH224648   3.237   6.033  13.829  0.5436  0.0288  0.1762
 1078TIP3    H124649   3.146   6.054  13.811  0.3358 -0.2951  0.8390
 1078TIP3    H224650   3.240   5.938  13.834  0.5669  0.0862  1.9015
 1079TIP3   OH224651   6.090   3.333   0.401 -0.1666 -0.8003  0.4840
 1079TIP3    H124652   6.148   3.310   0.328 -0.2852 -1.0970  0.4831
 1079TIP3    H224653   6.003   3.338   0.362 -0.2303 -0.9581  0.6061
 1080TIP3   OH224654   0.545   5.376  13.022  0.9915 -0.2164 -0.0502
 1080TIP3    H124655   0.472   5.431  12.995  0.4390 -0.2840  1.2140
 1080TIP3    H224656   0.608   5.436  13.061  0.5572 -0.4041  0.9805
 1081TIP3   OH224657   5.166   5.876  12.072  0.0770  0.5285  0.2907
 1081TIP3    H124658   5.239   5.827  12.110 -0.2119 -0.6754 -0.6225
 1081TIP3    H224659   5.088   5.833  12.105 -0.3599  2.8644  2.6472
 1082TIP3   OH224660   6.186   5.452  14.745  0.1845 -0.2301 -0.3018
 1082TIP3    H124661   6.165   5.481  14.656  0.8175  3.4411  0.5548
 1082TIP3    H224662   6.277   5.424  14.740 -0.4488 -2.3189 -1.1864
 1083TIP3   OH224663   3.725   0.889   2.068 -0.1841 -0.3042 -0.2604
 1083TIP3    H124664   3.675   0.932   2.138 -0.9242  1.5685 -1.8549
 1083TIP3    H224665   3.676   0.809   2.048 -1.5957  0.6222 -0.6012
 1084TIP3   OH224666   0.518   5.088   6.170 -0.4900  1.2041 -1.1600
 1084TIP3    H124667   0.559   5.174   6.183 -0.6425  1.1049  0.1910
 1084TIP3    H224668   0.546   5.037   6.246 -1.1498  0.3570 -1.4705
 1085TIP3   OH224669   6.635   1.316  14.422  0.4168  0.2916  0.1095
 1085TIP3    H124670   6.549   1.324  14.382  0.6300  0.0495 -0.4059
 1085TIP3    H224671   6.681   1.252  14.368  0.9598  0.5063  0.3069
 1086TIP3   OH224672   6.102   2.722  17.190  0.3468 -0.3004 -0.9306
 1086TIP3    H124673   6.050   2.651  17.226  0.5991 -0.3169 -0.5954
 1086TIP3    H224674   6.093   2.793  17.254  0.4021 -0.1635 -1.0740
 1087TIP3   OH224675   6.023   1.348  15.555  0.5172  0.0724 -0.2880
 1087TIP3    H124676   6.094   1.402  15.520  1.6315  0.7539  2.7592
 1087TIP3    H224677   5.954   1.410  15.576  1.3449  0.2825  2.1194
 1088TIP3   OH224678   6.157   4.064   4.407  0.3205  0.5662  0.1964
 1088TIP3    H124679   6.073   4.110   4.406 -0.6292 -0.9665 -2.7066
 1088TIP3    H224680   6.142   3.986   4.461 -0.2697  0.1463 -0.5490
 1089TIP3   OH224681   1.285   0.814  16.556  0.1267  0.2724  0.2657
 1089TIP3    H124682   1.270   0.861  16.474  0.2947 -1.6810 -0.9640
 1089TIP3    H224683   1.223   0.853  16.618 -0.6855  1.1580 -1.0530
 1090TIP3   OH224684   1.385   3.627  13.674 -0.8522  0.2438  0.7699
 1090TIP3    H124685   1.477   3.626  13.648 -0.9328  0.5786  0.4577
 1090TIP3    H224686   1.384   3.585  13.760 -0.4558 -0.0736  0.6259
 1091TIP3   OH224687   6.694   2.244  15.195 -0.4533  0.1014  0.6184
 1091TIP3    H124688   6.685   2.249  15.100 -0.0004  0.0865  0.5690
 1091TIP3    H224689   6.622   2.296  15.229 -1.2284 -0.7316  0.2849
 1092TIP3   OH224690   3.567   6.434  12.794  0.0371 -0.0392  0.3095
 1092TIP3    H124691   3.625   6.371  12.837 -0.2776 -1.6110 -1.4352
 1092TIP3    H224692   3.481   6.392  12.795 -0.6651  1.3642  1.0382
 1093TIP3   OH224693   0.981   2.342   2.932 -0.2340  0.4171 -0.1431
 1093TIP3    H124694   1.031   2.416   2.895  0.2884  0.8618  1.3904
 1093TIP3    H224695   1.028   2.265   2.900  0.8996  0.8111  0.4919
 1094TIP3   OH224696   3.963   6.372  12.405  0.2820 -0.0673  0.2197
 1094TIP3    H124697   3.974   6.345  12.314  0.6984 -0.4260  0.3666
 1094TIP3    H224698   4.020   6.449  12.414 -0.9583  0.9244 -0.2170
 1095TIP3   OH224699   3.134   2.404   2.919  0.1252  0.0898  0.2741
 1095TIP3    H124700   3.192   2.423   2.993 -2.2445 -1.5336  2.7670
 1095TIP3    H224701   3.164   2.320   2.885  0.1231 -0.0305  0.5715
 1096TIP3   OH224702   6.062   4.479  15.342  0.0038 -0.3615 -0.1626
 1096TIP3    H124703   6.060   4.397  15.293 -1.6243  0.2069 -1.1208
 1096TIP3    H224704   5.971   4.494  15.367  0.1861  1.4142 -0.4715
 1097TIP3   OH224705   5.359   2.671   4.722  0.3702  0.0794  0.1665
 1097TIP3    H124706   5.452   2.693   4.712  0.4931 -1.2086 -2.2778
 1097TIP3    H224707   5.315   2.756   4.730  1.5326  0.8538 -1.2080
 1098TIP3   OH224708   6.174   4.980  11.548 -0.3400  0.1787 -0.2109
 1098TIP3    H124709   6.265   5.008  11.550 -0.2657 -0.0247 -0.7407
 1098TIP3    H224710   6.125   5.059  11.523 -0.1729 -0.0377 -1.2685
 1099TIP3   OH224711   2.909   0.579   4.002  0.1697 -0.2630 -0.1122
 1099TIP3    H124712   2.886   0.639   3.931  0.6114  0.9309  0.7194
 1099TIP3    H224713   3.003   0.592   4.015 -0.0917  0.3505  1.3994
 1100TIP3   OH224714   2.961   5.180   1.452 -0.0269  0.0730  0.0062
 1100TIP3    H124715   2.879   5.220   1.482 -0.4838  0.1266 -1.2328
 1100TIP3    H224716   2.940   5.146   1.365  1.1057 -0.4695 -0.0725
 1101TIP3   OH224717   0.069   1.085   3.850 -0.0603 -0.0587  0.0305
 1101TIP3    H124718   0.046   0.994   3.833  0.0007 -0.2087  0.7274
 1101TIP3    H224719   0.150   1.100   3.801  0.0289 -0.4328  0.0644
 1102TIP3   OH224720   1.125   1.475  14.908 -0.4029 -0.1910 -0.5663
 1102TIP3    H124721   1.213   1.445  14.882  0.1005 -0.4332  1.2843
 1102TIP3    H224722   1.066   1.407  14.877  0.3365 -1.2406  0.2592
 1103TIP3   OH224723   3.336   4.148  14.007  0.1134 -0.4838  0.1491
 1103TIP3    H124724   3.305   4.192  14.087  0.6497 -0.7355  0.4992
 1103TIP3    H224725   3.294   4.062  14.010 -0.9840 -0.0057 -0.5677
 1104TIP3   OH224726   4.742   0.638   4.256  0.6154  0.2176 -0.2904
 1104TIP3    H124727   4.718   0.683   4.337  0.2406  0.5867 -0.6006
 1104TIP3    H224728   4.765   0.550   4.284 -0.5288  0.0266  0.1014
 1105TIP3   OH224729   4.757   2.366   2.128  0.3119  0.6340  0.3877
 1105TIP3    H124730   4.692   2.408   2.071 -1.2137 -0.3752  1.3160
 1105TIP3    H224731   4.839   2.411   2.107 -0.8762  2.7821  0.0051
 1106TIP3   OH224732   2.570   3.305   5.862  0.0613 -0.0234 -0.7834
 1106TIP3    H124733   2.541   3.228   5.912 -2.0056 -0.7048 -2.8371
 1106TIP3    H224734   2.662   3.287   5.841  0.3039 -0.7789  0.7940
 1107TIP3   OH224735   2.572   0.238  12.606  0.3988 -0.0922  0.0764
 1107TIP3    H124736   2.575   0.241  12.702 -1.3027 -0.7759  0.1840
 1107TIP3    H224737   2.662   0.217  12.580  0.9528  0.3899  1.4995
 1108TIP3   OH224738   1.450   5.658   5.220 -0.1429  0.2650  0.0683
 1108TIP3    H124739   1.416   5.643   5.308  0.7456 -1.0432  0.2245
 1108TIP3    H224740   1.442   5.572   5.177 -0.5432  0.8794 -1.1225
 1109TIP3   OH224741   0.916   3.212   4.241  0.2550  0.1911  0.4158
 1109TIP3    H124742   0.903   3.151   4.169  1.5330  0.2464  0.1047
 1109TIP3    H224743   0.844   3.195   4.301 -2.0290  1.5259 -1.7738
 1110TIP3   OH224744   0.321   3.810   2.862  0.4195  0.1600 -0.5672
 1110TIP3    H124745   0.366   3.743   2.914 -1.7821 -0.5128  0.6424
 1110TIP3    H224746   0.299   3.766   2.780  1.0325  0.1710 -0.7427
 1111TIP3   OH224747   4.279   5.053  11.206 -0.1789 -0.1733 -0.3781
 1111TIP3    H124748   4.295   5.145  11.183 -0.8591  0.1433  0.3827
 1111TIP3    H224749   4.358   5.007  11.176 -0.9496  0.1963 -3.2804
 1112TIP3   OH224750   5.522   1.944   3.402 -0.4381  0.5362 -0.0609
 1112TIP3    H124751   5.583   2.002   3.356 -0.7879  0.4356 -0.6520
 1112TIP3    H224752   5.564   1.929   3.487 -0.4942  1.9003  0.2236
 1113TIP3   OH224753   6.064   6.360   1.670 -0.1885  0.6009  0.7576
 1113TIP3    H124754   6.140   6.338   1.724 -0.4681  2.5713  2.0497
 1113TIP3    H224755   6.034   6.276   1.637  2.9792 -0.2049 -0.4705
 1114TIP3   OH224756   0.588   3.231   0.577 -0.2803 -0.1922  0.1853
 1114TIP3    H124757   0.683   3.227   0.593 -0.3457  1.4053  1.1946
 1114TIP3    H224758   0.562   3.316   0.612 -1.8114  0.1345 -1.6028
 1115TIP3   OH224759   0.363   0.296   5.010  0.0632  0.1638 -0.1794
 1115TIP3    H124760   0.367   0.351   4.932  1.4217  0.2309 -0.0856
 1115TIP3    H224761   0.389   0.209   4.979 -0.8483 -0.1638 -0.0759
 1116TIP3   OH224762   5.519   1.895  14.659  0.2900  0.0828  0.6659
 1116TIP3    H124763   5.505   1.806  14.690 -1.4519 -0.9184 -2.5754
 1116TIP3    H224764   5.557   1.885  14.572 -1.7334  2.3576 -0.6146
 1117TIP3   OH224765   4.444   0.768  13.413  0.5223  0.0966 -0.4883
 1117TIP3    H124766   4.438   0.719  13.332  1.9455 -1.5298  0.3210
 1117TIP3    H224767   4.533   0.804  13.412  0.5342  0.1073  0.3228
 1118TIP3   OH224768   2.866   0.762  12.759  0.4558 -0.7458  0.1575
 1118TIP3    H124769   2.773   0.740  12.758  0.5410 -1.1054 -1.1257
 1118TIP3    H224770   2.869   0.850  12.796 -0.2688 -1.2129  1.3935
 1119TIP3   OH224771   4.519   2.135  13.542  0.6050 -0.0926 -0.5462
 1119TIP3    H124772   4.452   2.183  13.494  0.1579 -0.5976 -0.4284
 1119TIP3    H224773   4.600   2.152  13.493  0.5478  1.1556 -0.2458
 1120TIP3   OH224774   6.426   5.110  16.788 -0.1793 -0.3020 -0.5184
 1120TIP3    H124775   6.339   5.125  16.752  0.1183 -0.9130 -1.5169
 1120TIP3    H224776   6.485   5.117  16.713  0.5847 -0.3705  0.0597
 1121TIP3   OH224777   1.628   4.665  14.737 -0.4459  0.4301 -0.0744
 1121TIP3    H124778   1.619   4.760  14.739 -2.6554  0.2715  2.4135
 1121TIP3    H224779   1.667   4.642  14.821  0.2098 -0.8938 -0.6979
 1122TIP3   OH224780   4.249   5.264   5.855  0.3173  0.2980  0.0876
 1122TIP3    H124781   4.262   5.171   5.835  0.5344  0.1393  0.9364
 1122TIP3    H224782   4.281   5.274   5.945  0.5365  1.2512 -0.0876
 1123TIP3   OH224783   5.194   4.237  12.936  0.0473  0.5869  0.2270
 1123TIP3    H124784   5.140   4.275  12.866  0.4132  0.5867 -0.0622
 1123TIP3    H224785   5.179   4.143  12.930 -0.5794  0.6556  0.7061
 1124TIP3   OH224786   0.966   0.418  16.732  0.3709  0.2059  0.2368
 1124TIP3    H124787   0.965   0.347  16.668 -1.1365 -0.0479  0.5004
 1124TIP3    H224788   0.886   0.405  16.784  0.1984  1.9385  0.4669
 1125TIP3   OH224789   5.135   6.156   4.910  0.5677 -0.7665  0.0962
 1125TIP3    H124790   5.092   6.090   4.855  0.6605 -0.7938  0.0573
 1125TIP3    H224791   5.224   6.125   4.920  1.0116  0.0535 -1.0768
 1126TIP3   OH224792   1.198   1.548  16.951  0.1028 -0.0184  0.1854
 1126TIP3    H124793   1.177   1.561  17.044 -2.1992  1.7232 -0.5004
 1126TIP3    H224794   1.201   1.452  16.941 -0.7298 -0.2528  1.8312
 1127TIP3   OH224795   0.071   5.239   3.498 -0.0651 -0.3635  0.3150
 1127TIP3    H124796   0.159   5.206   3.483  0.1813  0.9305 -1.4786
 1127TIP3    H224797   0.083   5.319   3.550 -0.1222  0.0751 -0.3359
 1128TIP3   OH224798   4.127   3.630   1.498 -0.2439  0.1478 -0.5567
 1128TIP3    H124799   4.195   3.563   1.491  0.3961  0.9042 -1.8443
 1128TIP3    H224800   4.173   3.713   1.483 -1.4990  0.6435 -1.9239
 1129TIP3   OH224801   0.046   0.359   0.495  0.3017 -0.2614 -0.3560
 1129TIP3    H124802   0.031   0.363   0.589  1.9463  0.8682 -0.1047
 1129TIP3    H224803   0.129   0.403   0.482  0.4170 -0.9607 -2.2875
 1130TIP3   OH224804   2.580   5.509   4.523 -0.1243  0.1052 -0.4135
 1130TIP3    H124805   2.675   5.522   4.514  0.6586 -4.9186 -4.0844
 1130TIP3    H224806   2.570   5.467   4.608  1.2418 -0.6196 -0.5811
 1131TIP3   OH224807   0.232   0.144   0.387  0.4837 -0.3998  0.0905
 1131TIP3    H124808   0.184   0.225   0.368  0.9941 -0.2771 -0.7398
 1131TIP3    H224809   0.169   0.088   0.432  0.0641  0.3824  0.4970
 1132TIP3   OH224810   4.913   0.439   2.660 -0.5798  0.3042 -0.7418
 1132TIP3    H124811   4.850   0.377   2.624 -1.5647 -0.2626  1.7759
 1132TIP3    H224812   4.860   0.516   2.682 -0.1061  0.4509 -0.0997
 1133TIP3   OH224813   5.223   0.152   2.112  0.3359  0.3437  0.0290
 1133TIP3    H124814   5.155   0.183   2.052 -0.6091 -2.6000 -0.6242
 1133TIP3    H224815   5.298   0.135   2.056  0.5351  0.5883  0.2211
 1134TIP3   OH224816   0.680   2.970   4.798 -0.6158 -0.2493 -0.3317
 1134TIP3    H124817   0.675   3.038   4.730 -0.8728 -0.7436 -0.8187
 1134TIP3    H224818   0.591   2.967   4.835 -0.7972 -0.7962 -0.7933
 1135TIP3   OH224819   1.308   2.335  13.698 -0.3543  0.0854 -0.1808
 1135TIP3    H124820   1.389   2.305  13.656 -0.0992 -1.4709  1.3484
 1135TIP3    H224821   1.238   2.298  13.644 -0.0284 -1.6719  0.5375
 1136TIP3   OH224822   6.216   1.271  11.890  0.2897  0.0792 -0.1773
 1136TIP3    H124823   6.297   1.316  11.915  0.3298 -0.8065  1.4928
 1136TIP3    H224824   6.155   1.290  11.962 -0.8568  0.3690 -1.1923
 1137TIP3   OH224825   0.276   6.672   5.017  0.0353  0.5307  0.1572
 1137TIP3    H124826   0.226   6.729   4.958  0.4600 -0.8394 -1.5819
 1137TIP3    H224827   0.290   6.726   5.095  2.9076  3.9831 -2.4234
 1138TIP3   OH224828   5.114   0.689   4.819 -0.3132  0.0816  0.2598
 1138TIP3    H124829   5.147   0.657   4.736 -0.4296  1.5370 -0.3823
 1138TIP3    H224830   5.180   0.663   4.883 -0.1432 -0.9104 -0.3096
 1139TIP3   OH224831   5.746   0.623  15.787 -0.2742 -0.1310 -0.3939
 1139TIP3    H124832   5.668   0.624  15.841 -0.3624 -0.7279 -0.4973
 1139TIP3    H224833   5.740   0.541  15.738  0.9879 -0.7518  0.4338
 1140TIP3   OH224834   4.799   6.080   5.822 -0.0370 -0.2342  0.3606
 1140TIP3    H124835   4.738   6.145   5.855  1.0582  0.6354  0.7310
 1140TIP3    H224836   4.782   6.002   5.874  0.0867  0.4149  1.4047
 1141TIP3   OH224837   1.015   3.514   1.557 -0.1626  0.2249 -0.2370
 1141TIP3    H124838   1.029   3.601   1.593 -0.7783  0.3241 -0.2255
 1141TIP3    H224839   0.942   3.524   1.497 -2.0380 -0.7945  1.7425
 1142TIP3   OH224840   4.514   4.057  15.195 -0.1117  0.0338 -0.0095
 1142TIP3    H124841   4.580   4.126  15.193  1.1217 -1.0399 -4.0157
 1142TIP3    H224842   4.526   4.015  15.281  3.5481  0.7053 -0.0619
 1143TIP3   OH224843   6.271   2.172  12.666  0.3958  0.0304 -0.3728
 1143TIP3    H124844   6.202   2.197  12.728  1.4713  2.0137  0.1113
 1143TIP3    H224845   6.254   2.225  12.588  1.2382  0.3685 -0.3333
 1144TIP3   OH224846   0.687   4.590   1.682 -0.3149 -0.2137 -0.5702
 1144TIP3    H124847   0.616   4.542   1.725 -1.2247 -0.2022 -1.9971
 1144TIP3    H224848   0.643   4.646   1.618  0.7783  2.0096  0.5332
 1145TIP3   OH224849   6.222   4.487  10.771  0.6133 -0.9228 -0.1898
 1145TIP3    H124850   6.211   4.459  10.862 -0.8224  2.1451  0.7433
 1145TIP3    H224851   6.313   4.517  10.766  1.0711 -2.2609 -0.1755
 1146TIP3   OH224852   4.926   6.290  14.992  0.2095 -0.3208 -0.7941
 1146TIP3    H124853   4.978   6.287  15.073  0.7734  1.1034 -1.0637
 1146TIP3    H224854   4.891   6.380  14.990 -2.2207 -1.1770 -0.6708
 1147TIP3   OH224855   5.941   2.365   0.036 -0.4041 -0.0671 -0.4732
 1147TIP3    H124856   5.999   2.310   0.089 -0.7343  0.4925  0.4889
 1147TIP3    H224857   5.990   2.379  -0.045 -0.0777 -1.3003 -0.5165
 1148TIP3   OH224858   0.370   6.638  13.167 -0.2324 -0.0220 -0.1858
 1148TIP3    H124859   0.284   6.608  13.136 -0.7612  1.6248 -0.3853
 1148TIP3    H224860   0.373   6.730  13.144  1.5341 -0.0044  0.0060
 1149TIP3   OH224861   3.962   0.471  10.778  0.3298  0.0594 -0.0305
 1149TIP3    H124862   3.946   0.538  10.711  0.5632  0.2115  0.0654
 1149TIP3    H224863   3.879   0.466  10.826  0.4182  0.5248  0.1797
 1150TIP3   OH224864   4.981   5.727   0.069 -0.0278  0.4987  0.2921
 1150TIP3    H124865   5.043   5.752   0.138 -0.2028 -0.8153  0.9544
 1150TIP3    H224866   5.029   5.662   0.016 -0.8222 -0.5689  0.8400
 1151TIP3   OH224867   2.360   0.627  15.094 -0.0161  0.9902  0.1691
 1151TIP3    H124868   2.375   0.721  15.079  1.3144  0.8860  0.7115
 1151TIP3    H224869   2.390   0.613  15.184  1.4180 -0.2717 -0.4655
 1152TIP3   OH224870   3.079   6.351  12.894 -0.0484  0.4719 -0.3217
 1152TIP3    H124871   3.069   6.374  12.986 -0.5953 -1.3345  0.1081
 1152TIP3    H224872   3.154   6.293  12.892 -0.2022  0.2899 -0.9832
 1153TIP3   OH224873   1.868   0.449  13.818  0.0600  0.0544  0.4457
 1153TIP3    H124874   1.862   0.474  13.910 -0.1731 -0.2721  0.5187
 1153TIP3    H224875   1.938   0.384  13.814  1.6995  1.7629  0.0301
 1154TIP3   OH224876   1.501   0.138  14.096 -0.2048 -0.1396 -0.3624
 1154TIP3    H124877   1.540   0.170  14.178 -0.4566 -1.3269  0.2475
 1154TIP3    H224878   1.514   0.210  14.034  2.6553 -0.3147 -0.1086
 1155TIP3   OH224879   6.130   5.232   2.483  0.0891  0.2056 -0.3087
 1155TIP3    H124880   6.156   5.159   2.428 -0.9600 -0.0505 -0.4783
 1155TIP3    H224881   6.151   5.204   2.572  0.6064  0.1110 -0.4569
 1156TIP3   OH224882   4.533   5.021  10.712  0.2482  0.0135 -0.4590
 1156TIP3    H124883   4.457   4.963  10.701 -0.6449  0.8320  1.0668
 1156TIP3    H224884   4.603   4.978  10.663 -1.0582 -1.0304 -1.4876
 1157TIP3   OH224885   0.457   3.452  16.337 -0.0698  0.0825  0.2054
 1157TIP3    H124886   0.401   3.375  16.327  1.3528 -1.1399  1.1414
 1157TIP3    H224887   0.527   3.440  16.273 -0.7415  1.5064 -0.8456
 1158TIP3   OH224888   6.097   6.644   2.114  0.1723 -0.1416 -0.6129
 1158TIP3    H124889   6.168   6.624   2.176  0.4273  1.2096 -0.4172
 1158TIP3    H224890   6.032   6.577   2.129 -0.1605  0.6032  1.7726
 1159TIP3   OH224891   6.752   3.824   5.610 -0.4006 -0.2059 -0.4661
 1159TIP3    H124892   6.819   3.819   5.542 -1.2134 -1.1869 -1.2386
 1159TIP3    H224893   6.747   3.735   5.645 -2.2287 -0.5225 -1.3987
 1160TIP3   OH224894   5.481   6.611   3.258  0.2227 -0.2973 -0.3510
 1160TIP3    H124895   5.489   6.607   3.163 -0.6098 -0.3080 -0.4342
 1160TIP3    H224896   5.529   6.689   3.284  1.5400 -0.9957 -0.6383
 1161TIP3   OH224897   0.270   5.554   4.336  0.0286 -0.1022  0.6885
 1161TIP3    H124898   0.195   5.522   4.387  0.0077  0.4593  1.0187
 1161TIP3    H224899   0.330   5.480   4.334 -0.8542 -0.8277 -0.2420
 1162TIP3   OH224900   0.028   0.396   6.108  0.1346  0.2887 -0.0931
 1162TIP3    H124901  -0.054   0.418   6.063  0.3901 -1.9796 -1.8121
 1162TIP3    H224902   0.079   0.477   6.103 -1.6931  1.5712  0.4780
 1163TIP3   OH224903   2.867   0.109  11.843 -0.4831 -0.2472 -0.6152
 1163TIP3    H124904   2.782   0.151  11.838 -0.4330 -0.1137 -0.3735
 1163TIP3    H224905   2.850   0.021  11.877 -0.5948 -0.4486 -1.1800
 1164TIP3   OH224906   0.753   0.231   0.517  0.3914  0.3583 -0.1089
 1164TIP3    H124907   0.772   0.322   0.540  0.3387  0.4535 -0.4449
 1164TIP3    H224908   0.779   0.181   0.595  1.7116  0.5175 -0.4220
 1165TIP3   OH224909   5.928   1.154   4.586 -0.5806 -0.1293  0.4922
 1165TIP3    H124910   5.864   1.224   4.575  0.5276  0.7385 -0.6522
 1165TIP3    H224911   6.012   1.194   4.564  0.2820 -1.4227  1.3096
 1166TIP3   OH224912   1.889   5.566  13.203 -0.0899  0.3435 -0.3767
 1166TIP3    H124913   1.816   5.591  13.260  1.6316  1.4742  1.5024
 1166TIP3    H224914   1.909   5.476  13.228 -3.2647 -1.5958 -3.7916
 1167TIP3   OH224915   2.250   0.342   4.657 -0.2999  0.1071 -0.4518
 1167TIP3    H124916   2.253   0.390   4.574 -2.2397 -0.5042 -0.9283
 1167TIP3    H224917   2.214   0.404   4.720  1.5818  0.7162  0.1113
 1168TIP3   OH224918   2.234   3.969   6.463 -0.2996  0.3613  0.3825
 1168TIP3    H124919   2.278   4.045   6.424 -1.0780 -0.1095 -1.5463
 1168TIP3    H224920   2.145   3.973   6.429  0.1209 -2.4356 -1.4634
 1169TIP3   OH224921   5.444   3.458  15.064  0.3923  0.4508 -0.4300
 1169TIP3    H124922   5.362   3.504  15.086  0.1927  0.1951 -0.6291
 1169TIP3    H224923   5.417   3.367  15.049  0.7258  0.3504 -0.4239
 1170TIP3   OH224924   5.310   5.159   4.559  0.3041 -0.2903 -0.0906
 1170TIP3    H124925   5.282   5.080   4.606 -0.7541  1.4457  2.4314
 1170TIP3    H224926   5.391   5.133   4.515  1.2821 -2.2105  2.5495
 1171TIP3   OH224927   4.093   6.209   2.376 -0.3303  0.0197 -0.3106
 1171TIP3    H124928   4.185   6.230   2.361 -0.1168 -0.1980  0.6325
 1171TIP3    H224929   4.085   6.118   2.348 -0.6048  0.4530 -1.7338
 1172TIP3   OH224930   4.245   2.095  14.471  0.1896  0.4515 -0.1332
 1172TIP3    H124931   4.297   2.029  14.517  1.0543  1.6184  0.6215
 1172TIP3    H224932   4.310   2.153  14.431 -0.5209 -0.7454 -3.2681
 1173TIP3   OH224933   5.311   2.872   2.377  0.2512  0.2708  0.4985
 1173TIP3    H124934   5.304   2.965   2.354  3.2385  0.3880 -0.3918
 1173TIP3    H224935   5.313   2.872   2.473  1.5399  1.3421  0.5168
 1174TIP3   OH224936   5.380   0.755   4.314  0.1058  0.0647  0.0047
 1174TIP3    H124937   5.305   0.743   4.256 -0.9606  0.8688  1.1407
 1174TIP3    H224938   5.365   0.841   4.353  1.1607 -0.1528  0.9248
 1175TIP3   OH224939   1.711   3.390  14.020  0.4945  0.0371  0.0572
 1175TIP3    H124940   1.663   3.469  14.046  0.9960  0.9324 -1.5467
 1175TIP3    H224941   1.801   3.420  14.007  0.5609 -0.6378 -1.2006
 1176TIP3   OH224942   0.101   0.073  16.144 -0.1439 -0.4017  0.0242
 1176TIP3    H124943   0.096  -0.013  16.103 -0.1698 -1.4837  2.1600
 1176TIP3    H224944   0.186   0.108  16.117 -1.0173 -0.0898 -2.6144
 1177TIP3   OH224945   4.638   2.443  16.849 -0.1494 -0.7160 -0.8693
 1177TIP3    H124946   4.563   2.463  16.905  0.3454 -2.0748  0.3467
 1177TIP3    H224947   4.605   2.454  16.760 -1.1117  1.0125 -0.3474
 1178TIP3   OH224948   3.608   3.558   1.877  0.2674 -0.5300 -0.5587
 1178TIP3    H124949   3.619   3.562   1.782  1.9562 -0.3758 -0.3909
 1178TIP3    H224950   3.651   3.636   1.910 -0.9328 -0.2066  0.3132
 1179TIP3   OH224951   0.852   5.997  13.243 -0.3170  0.1226  0.9431
 1179TIP3    H124952   0.885   6.031  13.160 -0.7551  0.1570  0.7829
 1179TIP3    H224953   0.928   6.000  13.302 -0.1131  0.4896  0.6630
 1180TIP3   OH224954   6.531   2.787   1.013  0.2730 -0.2668  0.3103
 1180TIP3    H124955   6.479   2.856   1.054  2.2013 -0.8244  4.0703
 1180TIP3    H224956   6.609   2.833   0.980  1.0504 -0.4074  1.8572
 1181TIP3   OH224957   3.662   2.671  11.786 -0.0446 -0.4571 -0.1106
 1181TIP3    H124958   3.643   2.761  11.758  0.3442  0.2703  1.8392
 1181TIP3    H224959   3.659   2.674  11.881  0.0504 -2.5219 -0.0009
 1182TIP3   OH224960   1.956   0.213  14.705  0.6738 -0.0489 -0.2479
 1182TIP3    H124961   1.869   0.249  14.690  0.6189 -0.3048 -0.5470
 1182TIP3    H224962   2.014   0.289  14.698  0.3974  0.3004  0.9199
 1183TIP3   OH224963   5.354   4.159  14.962  0.4142  0.1603 -0.2529
 1183TIP3    H124964   5.363   4.074  14.918  0.2009 -0.2257  0.4371
 1183TIP3    H224965   5.439   4.202  14.949  1.3661 -1.0994  1.3235
 1184TIP3   OH224966   2.557   0.912   0.722  0.2867  0.2770 -0.1290
 1184TIP3    H124967   2.551   0.828   0.769  1.4665  0.8222  1.0588
 1184TIP3    H224968   2.630   0.899   0.661  0.0243  0.2313 -0.4393
 1185TIP3   OH224969   2.507   4.717  12.463  0.3434 -0.4320 -0.4316
 1185TIP3    H124970   2.507   4.805  12.425 -1.7027  0.2358  0.9160
 1185TIP3    H224971   2.585   4.714  12.518  0.7097  0.3517 -0.8889
 1186TIP3   OH224972   0.161   4.522  12.427  0.2980  0.3953 -0.1014
 1186TIP3    H124973   0.206   4.459  12.484  0.6837  0.0031 -0.8341
 1186TIP3    H224974   0.214   4.525  12.348 -2.3231 -2.1837 -2.1839
 1187TIP3   OH224975   6.453   6.435  13.741 -0.0377 -0.5167  0.1807
 1187TIP3    H124976   6.363   6.419  13.767 -0.5382 -1.6528 -2.0087
 1187TIP3    H224977   6.502   6.361  13.777  0.0093 -0.0020  1.2010
 1188TIP3   OH224978   2.915   5.326  13.669 -0.2703 -0.0914  0.4944
 1188TIP3    H124979   2.929   5.283  13.584 -0.5790 -0.2124  0.5022
 1188TIP3    H224980   2.851   5.394  13.650  1.8094  1.8290  0.0232
 1189TIP3   OH224981   5.819   3.574   4.100  0.0577  0.0422  0.1976
 1189TIP3    H124982   5.881   3.646   4.112  0.4959 -0.6472  2.7336
 1189TIP3    H224983   5.872   3.501   4.068 -0.1309  0.4039 -0.9968
 1190TIP3   OH224984   6.593   1.298   6.374 -0.8579  0.2779 -0.5193
 1190TIP3    H124985   6.525   1.313   6.440 -2.2446  1.4169 -2.1202
 1190TIP3    H224986   6.546   1.261   6.299  0.7294 -1.3270 -0.7993
 1191TIP3   OH224987   4.312   1.646  16.416  0.6660  0.2674 -0.3355
 1191TIP3    H124988   4.361   1.638  16.498 -1.2904  1.6333  1.0600
 1191TIP3    H224989   4.252   1.572  16.416  2.1153 -0.9612 -1.6559
 1192TIP3   OH224990   4.538   1.093  11.418  0.5765  0.0482  0.4641
 1192TIP3    H124991   4.502   1.004  11.425  0.5062 -0.0911 -1.2126
 1192TIP3    H224992   4.575   1.096  11.330  0.9403  1.5647  0.6506
 1193TIP3   OH224993   2.393   5.637  16.819 -0.1190  0.2707 -0.5092
 1193TIP3    H124994   2.345   5.643  16.736 -1.4749  0.5920  0.2651
 1193TIP3    H224995   2.361   5.711  16.871 -1.4254 -1.4779  1.3401
 1194TIP3   OH224996   2.935   1.736   1.414  0.2724  0.3920 -0.1639
 1194TIP3    H124997   3.020   1.764   1.449  0.2686  1.1107 -0.7025
 1194TIP3    H224998   2.955   1.656   1.364  0.4431 -0.0570  0.6068
 1195TIP3   OH224999   3.463   0.792   0.976 -0.2555 -0.1938 -0.5237
 1195TIP3    H125000   3.500   0.880   0.970 -0.1344 -0.3027 -1.6771
 1195TIP3    H225001   3.511   0.750   1.047  0.6807  0.2132 -0.8942
 1196TIP3   OH225002   6.274   4.031  12.169 -0.2628  0.2429 -0.0977
 1196TIP3    H125003   6.237   3.989  12.247  0.7359  0.1145  0.3221
 1196TIP3    H225004   6.229   4.115  12.164  0.4683  0.7415  1.2878
 1197TIP3   OH225005   3.528   3.848  12.237  0.0924  0.4232 -0.0809
 1197TIP3    H125006   3.475   3.902  12.178 -0.4668 -0.1143 -0.0739
 1197TIP3    H225007   3.557   3.909  12.305  0.4469  0.9692 -0.7155
 1198TIP3   OH225008   4.586   0.395  12.330 -0.5621  0.7208 -0.2526
 1198TIP3    H125009   4.525   0.466  12.312 -1.2178 -0.0051 -0.9427
 1198TIP3    H225010   4.668   0.424  12.291 -0.8208  1.1034 -0.5197
 1199TIP3   OH225011   0.600   2.453   0.647 -0.3084  0.1687 -0.8921
 1199TIP3    H125012   0.513   2.469   0.682 -0.1309 -1.7935  0.6221
 1199TIP3    H225013   0.615   2.359   0.662  2.8706  0.8279  0.9017
 1200TIP3   OH225014   6.042   4.759   0.707 -0.9081 -0.1751 -0.3957
 1200TIP3    H125015   6.003   4.762   0.794 -1.7253  0.7387 -0.7742
 1200TIP3    H225016   6.039   4.850   0.676 -0.0706 -0.3849 -1.1391
 1201TIP3   OH225017   0.582   0.414   5.169  0.0525  0.7777  0.1538
 1201TIP3    H125018   0.558   0.405   5.076  0.2027 -2.0715  0.3014
 1201TIP3    H225019   0.499   0.404   5.216  0.0057  2.0317  0.3742
 1202TIP3   OH225020   0.595   3.290  14.133  0.1671  0.5401 -0.6518
 1202TIP3    H125021   0.524   3.326  14.079 -0.2738 -0.4541 -0.7651
 1202TIP3    H225022   0.653   3.364  14.149 -0.0073  0.9960 -1.9969
 1203TIP3   OH225023   5.069   2.368  15.187 -0.3027 -0.7479  0.2120
 1203TIP3    H125024   5.104   2.435  15.128 -1.4906 -1.2005 -1.0654
 1203TIP3    H225025   5.129   2.368  15.262 -0.9627  2.6816  0.9255
 1204TIP3   OH225026   0.208   2.108   5.286 -0.0087  0.5148  0.2608
 1204TIP3    H125027   0.298   2.134   5.304 -0.4650  2.2325  0.2727
 1204TIP3    H225028   0.202   2.105   5.190 -0.1162  1.1064  0.2467
 1205TIP3   OH225029   0.358   6.006  14.129 -0.7883 -0.0666  0.4433
 1205TIP3    H125030   0.408   5.947  14.186  0.7289  0.3226 -0.4176
 1205TIP3    H225031   0.401   6.091  14.139 -0.3133 -0.0438 -1.4332
 1206TIP3   OH225032   3.667   0.449  12.555  0.5272 -0.2384  0.7504
 1206TIP3    H125033   3.729   0.474  12.623  0.4215  0.3050  0.6581
 1206TIP3    H225034   3.687   0.358  12.535  2.6905  0.5039 -0.7603
 1207TIP3   OH225035   0.274   0.624  13.870 -0.5778  0.0455 -0.4177
 1207TIP3    H125036   0.204   0.562  13.850  0.0904  0.0107 -2.9485
 1207TIP3    H225037   0.264   0.693  13.804 -0.5272  2.0297  1.5377
 1208TIP3   OH225038   1.499   1.897   1.861 -0.1559 -0.5157  0.6327
 1208TIP3    H125039   1.464   1.939   1.782  0.5660  0.9629  1.0659
 1208TIP3    H225040   1.457   1.943   1.933  0.6432 -0.5469  1.1285
 1209TIP3   OH225041   4.535   3.505  13.591  0.0817  0.1013 -0.4542
 1209TIP3    H125042   4.525   3.463  13.676 -2.4338  0.8333 -0.3061
 1209TIP3    H225043   4.618   3.552  13.597  0.2170 -0.3071  1.4062
 1210TIP3   OH225044   2.592   4.072  10.783  0.1378 -0.1660  0.1114
 1210TIP3    H125045   2.500   4.098  10.783  0.1495 -0.0246 -1.3853
 1210TIP3    H225046   2.599   4.009  10.855 -0.6785  1.2602  1.5134
 1211TIP3   OH225047   1.230   6.480   4.478 -0.5311 -0.1453 -0.3018
 1211TIP3    H125048   1.135   6.482   4.464 -0.6315  0.9912  0.4007
 1211TIP3    H225049   1.242   6.527   4.561  0.5760 -0.9996  0.0301
 1212TIP3   OH225050   0.160   6.145  14.714 -0.2673  0.7943  0.3645
 1212TIP3    H125051   0.154   6.130  14.619 -1.0346 -0.0873  0.5368
 1212TIP3    H225052   0.126   6.064  14.753 -0.1748  1.2418  1.3911
 1213TIP3   OH225053   4.355   0.469   5.709  0.4589 -0.0384 -0.2659
 1213TIP3    H125054   4.372   0.559   5.681 -2.1624  0.9780  1.0353
 1213TIP3    H225055   4.316   0.479   5.796  0.8737 -2.5346  0.2762
 1214TIP3   OH225056   6.432   4.205  10.798  0.0831  1.1148  0.5123
 1214TIP3    H125057   6.337   4.208  10.789 -0.0923 -0.5224  1.5993
 1214TIP3    H225058   6.448   4.152  10.875  1.8936  1.7053  0.5989
 1215TIP3   OH225059   3.357   5.307  10.953 -0.0130 -0.3162  0.2004
 1215TIP3    H125060   3.442   5.347  10.934 -0.8803  1.9071  0.7290
 1215TIP3    H225061   3.373   5.212  10.949  3.1197 -0.0572  3.0323
 1216TIP3   OH225062   5.381   3.913  14.790 -0.0753 -0.4851  0.4605
 1216TIP3    H125063   5.341   3.833  14.824  0.8034 -1.4215 -0.6639
 1216TIP3    H225064   5.468   3.887  14.762  0.0959  0.7934 -0.2729
 1217TIP3   OH225065   1.410   0.497   3.937 -0.0890  0.4124 -0.2470
 1217TIP3    H125066   1.339   0.546   3.894  0.4000  1.0782 -0.2965
 1217TIP3    H225067   1.431   0.427   3.874 -1.2303 -0.2884  0.1098
 1218TIP3   OH225068   4.187   2.514   5.487 -0.6577 -0.7747  0.7743
 1218TIP3    H125069   4.201   2.524   5.581  2.7240 -2.5093  0.6360
 1218TIP3    H225070   4.132   2.436   5.479 -3.6227  1.1259  1.2453
 1219TIP3   OH225071   3.832   0.406   4.799 -0.2720  0.0083  0.0678
 1219TIP3    H125072   3.827   0.409   4.704 -2.0123  0.5268  0.1477
 1219TIP3    H225073   3.919   0.440   4.820 -0.0427  0.3040 -1.3083
 1220TIP3   OH225074   2.170   0.087  14.516  0.4126 -0.2385 -0.3926
 1220TIP3    H125075   2.222   0.167  14.509 -0.7719  0.6703  0.7886
 1220TIP3    H225076   2.103   0.107  14.582  0.0363 -2.1755 -0.1271
 1221TIP3   OH225077   1.482   3.691   0.238  0.5445 -0.0166 -0.1987
 1221TIP3    H125078   1.470   3.616   0.297  1.2017  0.5752  0.7061
 1221TIP3    H225079   1.448   3.766   0.287  1.4931  0.5510 -0.3833
 1222TIP3   OH225080   2.293   2.451  14.322 -0.9908  0.4098  0.2303
 1222TIP3    H125081   2.367   2.508  14.302 -1.2304  1.6544  2.6216
 1222TIP3    H225082   2.333   2.369  14.351 -0.4819  1.2145  1.9077
 1223TIP3   OH225083   1.198   5.088  12.488 -0.5094 -0.0612  0.2865
 1223TIP3    H125084   1.179   5.137  12.568 -3.1293  0.2129 -0.4175
 1223TIP3    H225085   1.216   5.155  12.422 -3.2805  0.0517 -0.4760
 1224TIP3   OH225086   3.461   3.047   5.297 -0.1860 -0.1863  0.0425
 1224TIP3    H125087   3.432   2.985   5.365  1.4971 -0.9537  0.0980
 1224TIP3    H225088   3.556   3.045   5.301 -0.0585  0.4506 -1.7463
 1225TIP3   OH225089   5.672   3.205   0.706  0.0966  0.4520  0.0933
 1225TIP3    H125090   5.689   3.299   0.699 -1.1346  0.6210 -0.8840
 1225TIP3    H225091   5.582   3.195   0.677  0.3681 -1.1063 -0.2742
 1226TIP3   OH225092   1.080   3.934  16.760 -0.9094 -0.5432  0.2714
 1226TIP3    H125093   1.018   3.888  16.704 -0.8402 -0.8403  0.4367
 1226TIP3    H225094   1.072   4.026  16.734  0.1628 -0.8412 -1.2355
 1227TIP3   OH225095   3.012   1.953   1.976  0.1394 -0.5763  0.6615
 1227TIP3    H125096   2.998   1.876   1.922  0.8198 -0.0727 -0.2718
 1227TIP3    H225097   3.047   2.019   1.915  4.2014 -0.9944  2.2032
 1228TIP3   OH225098   1.785   4.986  14.577  0.1580  0.9870  0.1735
 1228TIP3    H125099   1.711   4.982  14.638  0.8042 -2.4872  0.9420
 1228TIP3    H225100   1.860   5.009  14.632  0.3840 -0.0353  0.3049
 1229TIP3   OH225101   4.917   4.573  16.485 -0.1758  0.2678  0.3816
 1229TIP3    H125102   4.995   4.577  16.541  0.5834  2.2921 -0.7478
 1229TIP3    H225103   4.844   4.587  16.545  0.1772 -2.4737  1.5961
 1230TIP3   OH225104   1.024   0.199   5.239 -0.1645  0.0869 -0.2482
 1230TIP3    H125105   1.037   0.179   5.332  0.9525  0.7279 -0.2536
 1230TIP3    H225106   1.096   0.153   5.194  2.1821  3.4498 -0.3169
 1231TIP3   OH225107   4.015   5.522  16.556  0.1546  0.1707  0.1345
 1231TIP3    H125108   4.087   5.528  16.494  0.0548 -0.8352 -0.0799
 1231TIP3    H225109   3.989   5.614  16.571 -0.2393  0.4172 -1.7873
 1232TIP3   OH225110   0.301   1.411  15.126  0.3776 -0.5298  0.4544
 1232TIP3    H125111   0.263   1.356  15.058  2.1263  1.0637 -2.0137
 1232TIP3    H225112   0.392   1.380  15.133  0.8914  0.8380  0.2640
 1233TIP3   OH225113   2.597   5.166  13.736 -0.4002  0.1275 -0.2426
 1233TIP3    H125114   2.555   5.141  13.654  0.6874  1.3353 -1.2170
 1233TIP3    H225115   2.644   5.247  13.715  1.2096 -0.3830  1.1510
 1234TIP3   OH225116   5.259   1.626  16.791 -0.1496  0.6169 -0.1933
 1234TIP3    H125117   5.249   1.709  16.839 -0.4325  1.3644 -1.4924
 1234TIP3    H225118   5.202   1.565  16.836 -0.4932  1.3295  0.3579
 1235TIP3   OH225119   3.322   4.778  11.693  0.0932 -0.2612 -0.2176
 1235TIP3    H125120   3.354   4.768  11.603 -0.4677  1.1330 -0.6040
 1235TIP3    H225121   3.238   4.730  11.694  1.0214 -1.9785  0.1638
 1236TIP3   OH225122   4.183   4.175  13.399 -0.3105  0.5515 -0.4995
 1236TIP3    H125123   4.255   4.132  13.353 -1.1063 -0.6511 -0.6762
 1236TIP3    H225124   4.184   4.136  13.487 -0.2451  1.1266 -0.2419
 1237TIP3   OH225125   0.541   5.234  15.745  0.5505 -0.2669  0.2048
 1237TIP3    H125126   0.493   5.291  15.684  1.6689 -0.1220 -0.5773
 1237TIP3    H225127   0.489   5.155  15.750 -0.3941  0.3492  0.3304
 1238TIP3   OH225128   0.938   0.082  16.793 -0.1761  0.2195  0.5792
 1238TIP3    H125129   0.865   0.106  16.850  0.5801  1.6756  0.9844
 1238TIP3    H225130   0.897   0.041  16.717 -1.2557 -0.9159  1.7411
 1239TIP3   OH225131   1.218   1.119  11.420 -0.0362 -0.3591 -0.0596
 1239TIP3    H125132   1.202   1.084  11.332  1.6499  0.2788 -0.6601
 1239TIP3    H225133   1.137   1.165  11.443 -0.3269 -0.1201 -1.4929
 1240TIP3   OH225134   6.427   3.075  16.082  0.4614  0.4828 -0.3120
 1240TIP3    H125135   6.439   3.011  16.152 -1.0182 -0.7357 -1.1248
 1240TIP3    H225136   6.341   3.114  16.098  0.5273  0.8912 -0.8978
 1241TIP3   OH225137   2.429   4.508  17.243 -0.2699 -1.3672 -0.4176
 1241TIP3    H125138   2.363   4.438  17.245  1.1909 -2.8549 -1.2804
 1241TIP3    H225139   2.449   4.519  17.150 -0.1902 -0.0535 -0.2553
 1242TIP3   OH225140   4.814   3.449   0.240 -0.5868  0.1409 -0.2537
 1242TIP3    H125141   4.779   3.408   0.319 -1.1481 -0.4378 -0.7854
 1242TIP3    H225142   4.755   3.420   0.170  0.9864 -0.8936 -1.2000
 1243TIP3   OH225143   4.802   2.229   5.465 -0.0126  0.0139  0.2614
 1243TIP3    H125144   4.808   2.277   5.382  1.9791  1.2129  1.0130
 1243TIP3    H225145   4.839   2.289   5.529  2.0511 -2.2894  1.3714
 1244TIP3   OH225146   0.645   4.832  17.179  0.0691  0.0322  0.7346
 1244TIP3    H125147   0.719   4.893  17.180 -0.7092  1.0054  0.5720
 1244TIP3    H225148   0.572   4.883  17.214 -0.4849 -0.9735  1.0649
 1245TIP3   OH225149   0.641   3.819  12.923  0.8025 -0.6349 -0.2257
 1245TIP3    H125150   0.651   3.845  13.015  0.3481 -1.0142 -0.0612
 1245TIP3    H225151   0.692   3.738  12.916  0.5180 -0.8189 -0.2027
 1246TIP3   OH225152   3.497   4.583   4.453  0.1008 -0.4949  0.4025
 1246TIP3    H125153   3.538   4.497   4.442 -0.0244 -0.7256  1.6063
 1246TIP3    H225154   3.425   4.583   4.389 -0.1094 -1.4346  0.6189
 1247TIP3   OH225155   5.995   6.363   5.199 -0.0554 -0.4501  0.5222
 1247TIP3    H125156   5.946   6.404   5.127  0.7109  0.9224  0.7573
 1247TIP3    H225157   5.951   6.279   5.212 -2.8272  0.9531  1.1613
 1248TIP3   OH225158   1.428   1.740   0.174 -0.4408  0.4066 -0.0006
 1248TIP3    H125159   1.461   1.775   0.257  0.3246 -0.1899 -0.0338
 1248TIP3    H225160   1.433   1.813   0.113 -0.1574  0.6067  0.2596
 1249TIP3   OH225161   4.977   3.514  12.666 -0.0302  0.5060 -0.4062
 1249TIP3    H125162   4.978   3.563  12.584 -0.2109 -1.0040 -1.3459
 1249TIP3    H225163   4.886   3.486  12.676  0.1667 -0.0614 -0.1635
 1250TIP3   OH225164   6.279   1.974  16.429  0.3785  0.3581  0.1413
 1250TIP3    H125165   6.329   1.979  16.347  0.1502 -1.6597 -0.1582
 1250TIP3    H225166   6.260   2.066  16.450  1.2551  0.9818 -1.5517
 1251TIP3   OH225167   5.844   3.944  16.417 -0.4820 -0.3935 -0.2882
 1251TIP3    H125168   5.867   3.857  16.386 -1.0942 -0.1438 -1.5081
 1251TIP3    H225169   5.752   3.937  16.444 -0.5547 -0.1202 -0.4525
 1252TIP3   OH225170   4.428   3.115   2.325 -0.3042  0.2346  0.3388
 1252TIP3    H125171   4.458   3.204   2.344 -2.5888  0.8924  1.2749
 1252TIP3    H225172   4.409   3.116   2.231 -1.5917  1.2247  0.5694
 1253TIP3   OH225173   3.611   3.850   4.758  0.2896 -0.0645  0.5196
 1253TIP3    H125174   3.677   3.822   4.694 -0.4174 -0.4231 -0.0710
 1253TIP3    H225175   3.653   3.837   4.843  1.0439 -0.1111  0.1453
 1254TIP3   OH225176   0.066   6.184  10.893 -0.5191 -0.3605  0.0766
 1254TIP3    H125177   0.102   6.096  10.886  1.1803  0.1827  1.3373
 1254TIP3    H225178  -0.005   6.176  10.956  0.8034 -0.5475  1.6004
 1255TIP3   OH225179   2.122   5.293  16.845  0.0500  0.5134  0.2528
 1255TIP3    H125180   2.187   5.361  16.863  0.9217  0.0895 -1.1481
 1255TIP3    H225181   2.174   5.216  16.823 -0.9227 -0.5492  1.5069
 1256TIP3   OH225182   2.382   1.725   4.632  0.2096 -0.3380  0.2452
 1256TIP3    H125183   2.348   1.769   4.554  0.7034  1.0808  0.7929
 1256TIP3    H225184   2.347   1.776   4.706  1.8485 -0.0485  0.8664
 1257TIP3   OH225185   6.064   1.526  11.997 -0.1298  0.1266 -0.0630
 1257TIP3    H125186   6.150   1.565  11.978 -0.1393  0.2586  0.1631
 1257TIP3    H225187   6.046   1.550  12.088  0.1106 -0.8778  0.2625
 1258TIP3   OH225188   5.974   0.008  15.091  0.2759  0.5183  0.6320
 1258TIP3    H125189   5.970  -0.013  15.185 -1.0802  1.3199  0.7831
 1258TIP3    H225190   5.934   0.094  15.084 -0.1178  0.2492 -0.7539
 1259TIP3   OH225191   0.704   6.265   2.266 -0.9582  0.7726 -0.0590
 1259TIP3    H125192   0.633   6.315   2.226 -0.4421  0.2796 -1.6690
 1259TIP3    H225193   0.783   6.316   2.246 -0.5069 -0.3019 -1.1152
 1260TIP3   OH225194   3.069   0.770  17.188 -0.0292  0.0293 -0.0946
 1260TIP3    H125195   3.071   0.754  17.094 -0.6862 -1.2842  0.1019
 1260TIP3    H225196   3.140   0.716  17.224 -1.5217 -1.6508  0.4463
 1261TIP3   OH225197   2.679   3.573   5.644  0.5441 -0.6474 -0.4345
 1261TIP3    H125198   2.655   3.565   5.736  0.0100  0.4945 -0.4554
 1261TIP3    H225199   2.751   3.511   5.632  1.3376 -0.0586  1.0222
 1262TIP3   OH225200   2.578   3.919  14.161  0.0819 -0.1300  0.2719
 1262TIP3    H125201   2.582   3.840  14.215  1.1648 -1.0469 -1.0768
 1262TIP3    H225202   2.553   3.988  14.221 -0.1447 -1.3662  1.6469
 1263TIP3   OH225203   4.349   4.097   4.987 -0.1541  0.2425  0.0886
 1263TIP3    H125204   4.398   4.145   4.920 -0.2354  0.5155  0.2203
 1263TIP3    H225205   4.262   4.136   4.985 -0.1562  0.2550  0.3554
 1264TIP3   OH225206   2.663   2.084   4.866  0.2314 -0.3917  0.5957
 1264TIP3    H125207   2.575   2.050   4.852  0.0084  0.7429 -0.9664
 1264TIP3    H225208   2.711   2.063   4.786  0.2606  2.3093 -0.1765
 1265TIP3   OH225209   6.605   1.421  11.685 -0.2250  0.5447 -0.1237
 1265TIP3    H125210   6.565   1.426  11.598 -0.6176 -1.6321 -0.1155
 1265TIP3    H225211   6.638   1.331  11.691  1.2204  1.1178  1.3854
 1266TIP3   OH225212   4.729   0.572  13.474  0.2399  0.1495  0.1449
 1266TIP3    H125213   4.676   0.575  13.553 -0.6902 -0.5278 -0.4320
 1266TIP3    H225214   4.744   0.664  13.452  0.1003  0.3421  0.8341
 1267TIP3   OH225215   5.125   0.205  13.000  0.3174  0.3677  0.0597
 1267TIP3    H125216   5.040   0.164  13.019  0.0307  0.6027 -0.6532
 1267TIP3    H225217   5.165   0.219  13.085 -0.6492  0.8323  0.4563
 1268TIP3   OH225218   2.141   5.186   4.889  0.3683 -0.2176  0.3688
 1268TIP3    H125219   2.103   5.161   4.973  0.6811  0.3578  0.6909
 1268TIP3    H225220   2.164   5.103   4.847 -1.1522 -0.5672  0.1916
 1269TIP3   OH225221   2.196   1.689   5.470 -0.1081 -0.2635 -0.4785
 1269TIP3    H125222   2.222   1.770   5.426  0.3764 -0.6401 -0.9011
 1269TIP3    H225223   2.271   1.667   5.525 -0.0423 -0.6798 -0.7323
 1270TIP3   OH225224   5.034   3.241   1.095 -0.0537 -0.0515 -0.3348
 1270TIP3    H125225   4.987   3.269   1.017  0.3925 -0.5459 -0.7926
 1270TIP3    H225226   5.123   3.273   1.081  0.8706 -2.8726 -1.5852
 1271TIP3   OH225227   1.960   0.980  11.382 -0.3166  0.5463 -0.4215
 1271TIP3    H125228   1.911   1.010  11.459  0.0414  1.2643 -0.4656
 1271TIP3    H225229   1.893   0.955  11.319 -0.6666  2.0253 -0.6886
 1272TIP3   OH225230   0.208   3.502   1.925  0.2991  0.4547 -0.3324
 1272TIP3    H125231   0.167   3.563   1.987  2.0029 -0.5995  1.9619
 1272TIP3    H225232   0.264   3.557   1.871  1.3826  1.0663  1.3308
 1273TIP3   OH225233   0.571   0.559  12.312  1.0819  0.0504  0.0409
 1273TIP3    H125234   0.631   0.526  12.245  0.0822 -1.0578 -0.3535
 1273TIP3    H225235   0.588   0.504  12.388  1.3721  0.5094  0.3117
 1274TIP3   OH225236   0.336   0.302   2.709  0.6174 -0.4652 -0.2750
 1274TIP3    H125237   0.396   0.274   2.639  1.7304 -2.5623  1.3812
 1274TIP3    H225238   0.253   0.260   2.687  0.1789  1.0271 -1.6568
 1275TIP3   OH225239   4.120   5.962   3.472 -0.4018  0.6691  0.1797
 1275TIP3    H125240   4.080   6.007   3.547  0.7295  1.7140  0.1911
 1275TIP3    H225241   4.139   6.031   3.409 -2.1158 -0.2876 -1.5090
 1276TIP3   OH225242   4.867   3.057   1.250 -0.7537  0.0662  0.1631
 1276TIP3    H125243   4.946   3.006   1.267 -0.6812  0.6802  1.8024
 1276TIP3    H225244   4.895   3.125   1.189  0.0035  0.2989  0.7569
 1277TIP3   OH225245   4.717   2.957  11.208  0.1103 -0.0914 -0.1024
 1277TIP3    H125246   4.662   3.020  11.162  0.0508  0.6247  0.9125
 1277TIP3    H225247   4.761   3.009  11.276  0.8588 -0.9458  0.0793
 1278TIP3   OH225248   5.867   3.897   6.146  0.2708 -0.4829  0.2802
 1278TIP3    H125249   5.817   3.882   6.226 -0.5782 -0.8402 -0.3052
 1278TIP3    H225250   5.895   3.988   6.152 -2.6114  0.5862 -0.5018
 1279TIP3   OH225251   5.532   5.800  17.117 -0.1544 -0.3508  0.0709
 1279TIP3    H125252   5.465   5.849  17.165  1.0736  1.2093  0.2585
 1279TIP3    H225253   5.517   5.822  17.025  0.7174  0.8238  0.1977
 1280TIP3   OH225254   4.001   3.984  12.188 -0.0167 -0.2752  0.6764
 1280TIP3    H125255   3.968   3.961  12.275 -0.0024 -0.5062  0.6217
 1280TIP3    H225256   3.941   4.052  12.157  0.5086  0.4608  1.2358
 1281TIP3   OH225257   3.657   2.173   2.578 -0.2491 -0.1210  0.1579
 1281TIP3    H125258   3.714   2.185   2.502 -0.4272  0.6872  0.1335
 1281TIP3    H225259   3.570   2.196   2.545 -0.0135  2.4945  1.1378
 1282TIP3   OH225260   5.128   0.707   2.724 -0.1592 -0.1143  0.1233
 1282TIP3    H125261   5.140   0.613   2.709  3.6155  0.1400  0.6392
 1282TIP3    H225262   5.217   0.743   2.722 -1.0838  2.9078  3.4923
 1283TIP3   OH225263   2.987   1.329   2.506 -0.3705  0.2695 -0.2948
 1283TIP3    H125264   2.911   1.304   2.559 -0.2442 -3.5510 -1.5957
 1283TIP3    H225265   3.058   1.272   2.537  2.0256  3.4304  0.6092
 1284TIP3   OH225266   0.115   4.452  14.288  0.0309 -0.1031 -0.5669
 1284TIP3    H125267   0.086   4.458  14.379 -1.8228 -0.0500 -1.1160
 1284TIP3    H225268   0.057   4.512  14.240  0.6994 -0.4202 -1.8319
 1285TIP3   OH225269   3.408   0.165  13.341 -0.3846  0.1606  0.7937
 1285TIP3    H125270   3.426   0.073  13.355  0.5365  0.2532  0.2662
 1285TIP3    H225271   3.494   0.207  13.340 -0.8046  1.0761  1.3537
 1286TIP3   OH225272   5.611   5.935  12.707 -0.1495 -0.8673  0.2651
 1286TIP3    H125273   5.605   5.881  12.785 -0.6624  0.7593  1.4109
 1286TIP3    H225274   5.623   5.873  12.635 -0.2257 -2.4359  1.5571
 1287TIP3   OH225275   0.132   5.009   6.528  0.0664  0.3457 -0.3744
 1287TIP3    H125276   0.077   5.077   6.568 -1.2091 -1.7352  1.6150
 1287TIP3    H225277   0.204   4.996   6.589  0.1468 -0.2911 -0.5976
 1288TIP3   OH225278   2.653   0.973   1.481 -0.1425 -0.2486 -0.1165
 1288TIP3    H125279   2.741   1.011   1.479  1.2680 -3.2070  0.0620
 1288TIP3    H225280   2.645   0.936   1.569 -1.6479  0.0601 -0.1027
 1289TIP3   OH225281   5.219   3.065  15.091  0.3456 -0.1493  0.4488
 1289TIP3    H125282   5.129   3.048  15.064  0.3201  0.1632  0.3392
 1289TIP3    H225283   5.261   2.979  15.088  0.5091 -0.0417 -1.1964
 1290TIP3   OH225284   4.294   5.593  12.669  0.3049  0.1696 -0.9539
 1290TIP3    H125285   4.239   5.548  12.604 -0.6298 -0.2405  0.0939
 1290TIP3    H225286   4.244   5.589  12.750  1.8218 -0.0823  0.0121
 1291TIP3   OH225287   0.559   6.208   2.646 -0.7013  0.0162  0.4636
 1291TIP3    H125288   0.633   6.266   2.628  1.3311 -2.2699  0.9441
 1291TIP3    H225289   0.520   6.243   2.726  0.9424  0.3434  1.1655
 1292TIP3   OH225290   5.316   2.938  15.959 -0.3711 -0.5896 -1.0564
 1292TIP3    H125291   5.345   3.015  16.007  1.5750 -1.3905 -0.8656
 1292TIP3    H225292   5.394   2.906  15.914 -1.1618 -2.3593 -1.2696
 1293TIP3   OH225293   2.198   5.474  16.582 -0.4343  0.0178 -0.3510
 1293TIP3    H125294   2.213   5.426  16.500 -0.3674 -0.1977 -0.2139
 1293TIP3    H225295   2.257   5.549  16.578 -0.7814  0.2761 -0.7203
 1294TIP3   OH225296   4.552   4.169   4.215  0.4578 -0.0285  0.3758
 1294TIP3    H125297   4.500   4.248   4.199 -0.1459 -0.4114  0.4044
 1294TIP3    H225298   4.619   4.197   4.277  1.4723  0.9395 -1.0850
 1295TIP3   OH225299   4.384   4.113  12.501  0.1893  0.4595 -0.3643
 1295TIP3    H125300   4.468   4.146  12.534  0.2675  0.8971 -0.9713
 1295TIP3    H225301   4.375   4.027  12.540 -0.4298  1.5059  1.9695
 1296TIP3   OH225302   0.687   4.944  11.677  0.1992 -0.2109  1.2215
 1296TIP3    H125303   0.760   4.965  11.618  1.0297 -0.9945  1.9371
 1296TIP3    H225304   0.609   4.978  11.632  0.4214 -2.8636 -1.5405
 1297TIP3   OH225305   6.127   0.402   0.314 -0.2430  0.0250  0.1990
 1297TIP3    H125306   6.033   0.401   0.297  0.0535  0.6982 -1.7073
 1297TIP3    H225307   6.167   0.377   0.231  1.2795 -0.0891  0.9292
 1298TIP3   OH225308   3.625   1.082   2.267 -0.0477 -0.2988 -0.3597
 1298TIP3    H125309   3.608   1.176   2.267 -1.2413 -0.5055  0.2640
 1298TIP3    H225310   3.707   1.073   2.317 -1.5533  0.1696  2.3969
 1299TIP3   OH225311   5.275   2.252  14.423 -0.5772  0.6221 -0.4538
 1299TIP3    H125312   5.300   2.209  14.504  1.4208  0.0299 -1.3083
 1299TIP3    H225313   5.191   2.214  14.400  0.8420 -2.5580 -0.9080
 1300TIP3   OH225314   4.647   1.163  14.808  0.5138  0.2531  0.2478
 1300TIP3    H125315   4.605   1.191  14.890  2.2005  0.4346  1.0975
 1300TIP3    H225316   4.636   1.237  14.749 -2.2216 -0.5136 -0.3347
 1301TIP3   OH225317   1.066   4.920   0.914 -0.8138  0.0131  0.1899
 1301TIP3    H125318   1.047   4.982   0.984  0.9622 -0.8472  1.5101
 1301TIP3    H225319   0.985   4.915   0.864 -1.2819  2.7351  0.5090
 1302TIP3   OH225320   2.768   2.002   2.482 -0.6941 -0.4832 -0.2153
 1302TIP3    H125321   2.842   2.035   2.532 -0.9210 -0.7633  0.3131
 1302TIP3    H225322   2.745   2.074   2.423  0.5475 -0.7155 -1.0245
 1303TIP3   OH225323   4.134   2.290   1.926  0.1566  0.3209  0.7797
 1303TIP3    H125324   4.224   2.265   1.946  0.0586 -1.3003 -0.6092
 1303TIP3    H225325   4.131   2.293   1.830 -1.1843  0.6987  0.8217
 1304TIP3   OH225326   3.337   3.069   3.047  0.0944 -0.3816 -0.6406
 1304TIP3    H125327   3.291   3.132   3.101 -1.3455 -1.2584 -0.7908
 1304TIP3    H225328   3.290   3.070   2.963 -0.3708 -2.0799 -0.4350
 1305TIP3   OH225329   0.946   6.615  15.052 -0.3928 -0.4578 -0.1074
 1305TIP3    H125330   0.945   6.533  15.100 -1.6632 -2.6503 -3.5418
 1305TIP3    H225331   0.895   6.675  15.106  0.5718 -1.8203  2.5029
 1306TIP3   OH225332   0.927   4.523   1.818 -0.1201 -0.6806 -0.4303
 1306TIP3    H125333   0.881   4.447   1.856 -0.7696  0.8397  2.1326
 1306TIP3    H225334   0.859   4.570   1.770 -0.3927 -0.3994  0.2052
 1307TIP3   OH225335   0.654   2.466   1.362 -0.2180 -0.3769  0.0213
 1307TIP3    H125336   0.630   2.558   1.363 -1.6871 -0.7177  0.6856
 1307TIP3    H225337   0.744   2.463   1.393 -0.0020  0.8612 -0.4715
 1308TIP3   OH225338   2.567   4.128   0.851 -0.0438  0.0382 -0.8044
 1308TIP3    H125339   2.595   4.107   0.761 -2.0924  3.8638 -2.5921
 1308TIP3    H225340   2.484   4.083   0.862  0.4079 -0.7698 -0.6258
 1309TIP3   OH225341   3.604   4.552  12.559 -0.0998 -0.4024  0.0565
 1309TIP3    H125342   3.530   4.606  12.585  1.3444  1.2081  1.0726
 1309TIP3    H225343   3.680   4.610  12.566  1.5707 -2.5632  1.3140
 1310TIP3   OH225344   2.182   0.228  15.568  0.0550  0.1509  0.0395
 1310TIP3    H125345   2.192   0.319  15.540 -1.0049  0.6587  1.2159
 1310TIP3    H225346   2.127   0.188  15.501  1.2421  0.1229 -0.9416
 1311TIP3   OH225347   2.655   4.416   5.058  0.1928  0.0311 -0.4076
 1311TIP3    H125348   2.751   4.419   5.055  0.1979 -0.7621 -1.8487
 1311TIP3    H225349   2.634   4.323   5.065 -0.4789  0.3029  2.8694
 1312TIP3   OH225350   3.755   5.095  16.647 -0.0301 -0.4129  0.0995
 1312TIP3    H125351   3.681   5.054  16.691  1.4288 -0.5215  2.6733
 1312TIP3    H225352   3.776   5.035  16.576 -1.6944 -0.9363  0.0008
 1313TIP3   OH225353   4.093   4.514  12.644  0.1427 -0.5688 -0.0062
 1313TIP3    H125354   4.072   4.439  12.588  1.0929 -1.0407  0.2409
 1313TIP3    H225355   4.017   4.523  12.702 -0.0223 -1.3026 -0.0938
 1314TIP3   OH225356   4.818   5.385   1.784 -0.0365 -0.2843 -0.2942
 1314TIP3    H125357   4.851   5.303   1.820  2.0441 -0.2929 -2.0054
 1314TIP3    H225358   4.867   5.453   1.829 -1.7489  0.0987  1.1123
 1315TIP3   OH225359   2.367   1.962  11.296 -0.0418  0.5016 -0.0323
 1315TIP3    H125360   2.406   1.884  11.334  0.3386  0.9954  0.5956
 1315TIP3    H225361   2.296   1.985  11.356  0.4921  1.2196  0.3338
 1316TIP3   OH225362   5.910   1.179  14.748  0.1863 -0.2473 -0.1464
 1316TIP3    H125363   5.924   1.223  14.831  0.4024  2.6058 -1.5669
 1316TIP3    H225364   5.855   1.239  14.698  1.8609 -0.7541 -2.8295
 1317TIP3   OH225365   2.056   6.011  17.065 -0.1516  0.7851  0.4191
 1317TIP3    H125366   1.998   6.025  16.991 -0.8148  0.6430  0.9043
 1317TIP3    H225367   1.998   6.000  17.140  0.4875  0.2563  0.8515
 1318TIP3   OH225368   3.005   6.723  16.593 -0.1028 -0.5452 -0.3674
 1318TIP3    H125369   3.100   6.729  16.580 -0.3354 -0.3987 -2.3657
 1318TIP3    H225370   2.980   6.638  16.557 -0.6831 -0.8351  0.6638
 1319TIP3   OH225371   0.583   4.299   0.186 -0.1034  0.3258  0.1344
 1319TIP3    H125372   0.575   4.311   0.280 -0.5347 -1.2305  0.3251
 1319TIP3    H225373   0.499   4.261   0.159  0.0864  0.5616 -0.8479
 1320TIP3   OH225374   0.719   1.469  17.092 -0.1379  0.1718 -0.7384
 1320TIP3    H125375   0.750   1.399  17.034  1.0376 -1.6318  1.8415
 1320TIP3    H225376   0.634   1.437  17.123  1.2027 -1.2108  1.8804
 1321TIP3   OH225377   3.322   3.216   3.490 -0.2640  0.3684  0.2235
 1321TIP3    H125378   3.260   3.261   3.548  0.7914  1.4603  0.5396
 1321TIP3    H225379   3.350   3.139   3.539  1.8726  2.1094  1.9800
 1322TIP3   OH225380   6.116   2.114   1.066 -0.5991  0.6830 -0.4965
 1322TIP3    H125381   6.130   2.038   1.123  0.7954  0.5174 -1.0105
 1322TIP3    H225382   6.062   2.173   1.117 -0.1118  0.1575  0.6595
 1323TIP3   OH225383   0.932   0.525   4.093 -0.1729 -0.2719  0.2466
 1323TIP3    H125384   0.980   0.600   4.127 -0.4628  0.0714 -0.0841
 1323TIP3    H225385   0.963   0.516   4.003 -2.0672  1.1558 -0.6271
 1324TIP3   OH225386   2.577   0.812  12.657 -0.0121  0.2775  0.2516
 1324TIP3    H125387   2.541   0.723  12.658 -0.2467  0.3751  1.6319
 1324TIP3    H225388   2.631   0.815  12.577 -0.1259 -1.0456  0.1049
 1325TIP3   OH225389   6.563   1.018   6.159  0.4744 -0.0828  0.2885
 1325TIP3    H125390   6.512   0.950   6.117  1.4747 -1.1367  0.7219
 1325TIP3    H225391   6.507   1.096   6.156 -1.0306 -1.1233  0.5495
 1326TIP3   OH225392   1.204   5.792   4.434 -0.2734  0.0263  0.4512
 1326TIP3    H125393   1.256   5.869   4.455 -0.5426 -0.0991  1.6498
 1326TIP3    H225394   1.125   5.801   4.487 -0.7364 -0.6055 -0.1138
 1327TIP3   OH225395   2.195   2.311   5.725  0.1389 -0.0779  0.4940
 1327TIP3    H125396   2.268   2.279   5.777  0.5982  1.2147  0.6808
 1327TIP3    H225397   2.235   2.368   5.659 -0.7980  2.3722  1.9041
 1328TIP3   OH225398   2.300   4.646  13.537 -0.1001  0.4833  0.3713
 1328TIP3    H125399   2.207   4.642  13.516  0.1736 -0.6369 -0.7491
 1328TIP3    H225400   2.303   4.654  13.632 -1.3420  0.6285  0.4057
 1329TIP3   OH225401   3.399   6.309   2.341 -0.2534  0.2031  0.4518
 1329TIP3    H125402   3.419   6.402   2.328  1.3428  0.0112  1.1956
 1329TIP3    H225403   3.454   6.284   2.416  0.0089 -1.5482 -0.2906
 1330TIP3   OH225404   3.876   3.611   0.678  0.1243  0.1339  0.2618
 1330TIP3    H125405   3.917   3.672   0.617  0.0308  1.4518  1.4539
 1330TIP3    H225406   3.793   3.588   0.637  0.0869  0.9501 -0.1448
 1331TIP3   OH225407   1.457   0.097   3.819  0.6998  0.5658  0.5444
 1331TIP3    H125408   1.491   0.116   3.731  0.5497  0.5469  0.4823
 1331TIP3    H225409   1.524   0.042   3.859 -0.2913 -1.4157 -0.3945
 1332TIP3   OH225410   0.597   6.102   5.142  0.0855 -0.4682  0.0747
 1332TIP3    H125411   0.549   6.049   5.078  0.6076  1.1034 -1.7143
 1332TIP3    H225412   0.633   6.038   5.204 -0.5747 -2.0476 -1.1024
 1333TIP3   OH225413   5.011   1.223   0.044 -0.1609  0.4319  0.5053
 1333TIP3    H125414   4.933   1.185   0.085  1.3527 -1.5559  1.7344
 1333TIP3    H225415   5.085   1.179   0.086  1.6133  0.8302 -1.9246
 1334TIP3   OH225416   0.253   3.634   3.410 -0.2470  0.3615  0.1336
 1334TIP3    H125417   0.249   3.627   3.315  0.3313  1.4161  0.0121
 1334TIP3    H225418   0.297   3.554   3.439  0.0758  0.2975 -0.5303
 1335TIP3   OH225419   4.346   1.649   2.516  0.1393  0.2664  0.1923
 1335TIP3    H125420   4.315   1.620   2.430  0.2695 -0.4599  0.3776
 1335TIP3    H225421   4.316   1.580   2.576 -0.7496  1.2257  0.8748
 1336TIP3   OH225422   5.782   4.713   4.751  0.2075  0.3911 -0.0687
 1336TIP3    H125423   5.802   4.806   4.739  2.6642  0.2665  2.2631
 1336TIP3    H225424   5.863   4.667   4.727 -0.6554 -1.1034 -0.2762
 1337TIP3   OH225425   1.045   0.584  13.570  0.1826 -0.4097 -0.2368
 1337TIP3    H125426   1.026   0.564  13.662  4.1500 -3.5254  0.1747
 1337TIP3    H225427   1.010   0.509  13.522 -0.1089  0.2461 -1.0739
 1338TIP3   OH225428   0.971   6.091  16.442 -0.3713  0.5657  0.1032
 1338TIP3    H125429   0.942   6.015  16.391  0.3970  0.8781 -0.8101
 1338TIP3    H225430   0.911   6.161  16.417  0.9097  1.1226 -1.5366
 1339TIP3   OH225431   6.445   4.890  16.031 -0.1937 -0.1307  0.5103
 1339TIP3    H125432   6.462   4.797  16.048 -1.3099 -0.5353 -0.4564
 1339TIP3    H225433   6.352   4.902  16.051  0.0735  0.9301  1.1963
 1340TIP3   OH225434   0.394   6.689   2.350  0.0126  0.1340 -0.1377
 1340TIP3    H125435   0.348   6.614   2.388 -0.8739  1.2649  1.1278
 1340TIP3    H225436   0.456   6.716   2.418 -1.1174  1.7746  0.3043
 1341TIP3   OH225437   5.423   0.601   3.089  0.5014 -0.8040  0.2726
 1341TIP3    H125438   5.503   0.559   3.120 -0.7962 -2.2435  1.9044
 1341TIP3    H225439   5.353   0.560   3.141 -1.0927  1.9657  0.5231
 1342TIP3   OH225440   5.821   6.416   4.995  0.1075 -0.2705 -0.0544
 1342TIP3    H125441   5.781   6.347   4.942 -1.2056 -0.1693  0.7560
 1342TIP3    H225442   5.757   6.487   4.993  0.4861  0.1059  0.8452
 1343TIP3   OH225443   3.373   5.757   1.847 -0.6995  0.4079 -0.2173
 1343TIP3    H125444   3.285   5.787   1.866 -1.4163  0.0335 -2.6631
 1343TIP3    H225445   3.373   5.738   1.753  1.0916 -2.5560  0.2443
 1344TIP3   OH225446   4.012   4.159  16.701 -0.5919 -0.9740 -0.1749
 1344TIP3    H125447   4.059   4.198  16.775  0.7667 -1.4435 -0.7550
 1344TIP3    H225448   3.930   4.208  16.696 -0.3486 -0.3948  1.1315
 1345TIP3   OH225449   6.368   1.901   5.445  0.0820  0.1051  0.3844
 1345TIP3    H125450   6.403   1.947   5.522 -1.1956  1.7625  0.0361
 1345TIP3    H225451   6.441   1.848   5.414  1.0366  0.4327  1.9579
 1346TIP3   OH225452   2.178   1.315   6.604 -0.5577 -0.5401  0.1011
 1346TIP3    H125453   2.188   1.279   6.692 -0.1659  1.5142  0.9475
 1346TIP3    H225454   2.158   1.407   6.618 -0.4717 -0.1689 -1.9694
 1347TIP3   OH225455   6.268   3.293   4.958 -0.2547  0.6039  0.2210
 1347TIP3    H125456   6.269   3.359   5.027 -1.5053  1.7647 -0.8156
 1347TIP3    H225457   6.316   3.333   4.885  1.2849 -0.7076  0.4428
 1348TIP3   OH225458   6.180   4.058  15.525 -0.3207  0.2880  0.2331
 1348TIP3    H125459   6.208   4.077  15.435  0.0889 -1.3381 -0.0149
 1348TIP3    H225460   6.237   4.113  15.580 -0.7624  1.5049 -0.4941
 1349TIP3   OH225461   1.964   6.011   2.275  0.5367  0.1098  0.9662
 1349TIP3    H125462   1.940   6.007   2.182 -0.7407 -0.6639  1.3086
 1349TIP3    H225463   2.046   5.963   2.281 -0.6764 -2.1405  0.6159
 1350TIP3   OH225464   3.917   2.639  12.418  0.4064 -0.1430 -0.4215
 1350TIP3    H125465   3.842   2.672  12.368 -0.0526 -2.0586 -1.0910
 1350TIP3    H225466   3.879   2.594  12.493  1.0200  0.8428  0.5201
 1351TIP3   OH225467   3.193   3.670  12.473 -0.2931  0.6275 -0.1752
 1351TIP3    H125468   3.150   3.600  12.424  0.1999  0.0282  0.2385
 1351TIP3    H225469   3.193   3.745  12.413 -1.5043  0.5142 -0.3477
 1352TIP3   OH225470   5.404   0.491  16.907  0.1882 -0.8985 -0.2882
 1352TIP3    H125471   5.450   0.533  16.835 -0.6062 -0.1401 -0.3637
 1352TIP3    H225472   5.355   0.419  16.866 -0.3094 -0.4318 -0.5135
 1353TIP3   OH225473   5.141   1.107   1.187 -0.5407 -0.2324  0.3509
 1353TIP3    H125474   5.173   1.183   1.138 -0.1132 -0.3107  0.5019
 1353TIP3    H225475   5.068   1.142   1.239  0.1161  0.2574  0.9770
 1354TIP3   OH225476   1.308   6.133   5.095 -0.2607 -0.1780  0.1841
 1354TIP3    H125477   1.366   6.058   5.111 -0.4065 -0.0901  1.2254
 1354TIP3    H225478   1.270   6.116   5.009  0.6781 -0.6572 -0.1521
 1355TIP3   OH225479   1.656   4.070  12.730  0.0056 -0.1843  0.2239
 1355TIP3    H125480   1.575   4.032  12.697 -0.1324  0.4482 -0.1870
 1355TIP3    H225481   1.663   4.154  12.684 -0.2132  0.7419  1.8094
 1356TIP3   OH225482   1.628   3.030   1.649  0.5726 -0.6481 -0.5672
 1356TIP3    H125483   1.598   3.118   1.673  0.7336 -0.7170 -0.1220
 1356TIP3    H225484   1.635   2.983   1.732  1.2059 -0.8595 -0.7412
 1357TIP3   OH225485   2.033   4.244   2.896 -0.6028  0.2208  0.1434
 1357TIP3    H125486   2.088   4.183   2.945 -2.1125 -1.5142 -0.1975
 1357TIP3    H225487   1.965   4.189   2.857 -0.3709  1.7279 -2.6437
 1358TIP3   OH225488   4.322   6.300   0.143  0.2763 -0.0779  0.1455
 1358TIP3    H125489   4.401   6.328   0.096  0.2418 -1.0502 -0.5247
 1358TIP3    H225490   4.319   6.205   0.130 -1.5536  0.0586 -0.6903
 1359TIP3   OH225491   1.422   2.405   5.334  0.4131 -0.6816 -0.5441
 1359TIP3    H125492   1.360   2.427   5.403 -0.8254 -0.4860 -1.6979
 1359TIP3    H225493   1.508   2.411   5.377 -0.2982 -0.1863  0.8719
 1360TIP3   OH225494   5.326   6.545   5.782 -0.0835 -0.1857  0.1211
 1360TIP3    H125495   5.392   6.614   5.788 -1.0422  0.7740 -0.1556
 1360TIP3    H225496   5.369   6.468   5.818  0.6157  0.8419  1.5808
 1361TIP3   OH225497   1.226   6.611  12.615 -0.3615 -0.4151 -0.5206
 1361TIP3    H125498   1.144   6.604  12.567 -0.1527  0.5795 -1.0535
 1361TIP3    H225499   1.294   6.604  12.548 -0.0214 -0.7934 -0.1419
 1362TIP3   OH225500   6.530   1.898   1.371 -0.0531 -0.0921 -0.2096
 1362TIP3    H125501   6.570   1.974   1.331 -0.5035 -0.2573 -0.9968
 1362TIP3    H225502   6.602   1.851   1.412  0.6376 -0.5745 -1.9127
 1363TIP3   OH225503   1.036   1.493  16.588  0.0951  0.2161 -0.1796
 1363TIP3    H125504   1.111   1.470  16.643 -1.1388 -0.3474  1.3414
 1363TIP3    H225505   1.047   1.586  16.571  0.7629  0.3102  0.6649
 1364TIP3   OH225506   2.069   6.222  10.555  0.1779  0.3721 -0.4463
 1364TIP3    H125507   2.003   6.219  10.487 -1.3187  0.1112  0.9538
 1364TIP3    H225508   2.064   6.311  10.590 -2.3496 -0.6970  2.3141
 1365TIP3   OH225509   6.635   1.219   2.258  0.2929  0.3758 -0.6835
 1365TIP3    H125510   6.722   1.178   2.261 -0.1392 -0.6408 -1.5486
 1365TIP3    H225511   6.638   1.285   2.327  1.4228 -0.3164 -0.0278
 1366TIP3   OH225512   5.157   6.432  17.085  0.3151 -1.0263  0.5060
 1366TIP3    H125513   5.114   6.505  17.130 -1.8048 -0.5433 -2.0553
 1366TIP3    H225514   5.207   6.387  17.153  0.9759  2.2530  2.3682
 1367TIP3   OH225515   6.743   4.123  15.693 -0.0229  0.1489 -0.2619
 1367TIP3    H125516   6.838   4.120  15.706 -0.1550  0.9507  1.1011
 1367TIP3    H225517   6.718   4.032  15.676  0.8583 -0.2569  0.5232
 1368TIP3   OH225518   1.408   1.469  11.274 -0.5795 -0.0538  0.5717
 1368TIP3    H125519   1.495   1.508  11.266 -0.6816  0.3127  1.2554
 1368TIP3    H225520   1.395   1.456  11.368 -0.1125 -2.7309  0.3630
 1369TIP3   OH225521   6.318   0.852  10.989 -0.7740  0.4424  0.1665
 1369TIP3    H125522   6.357   0.787  10.930 -0.1839  1.4578 -0.5940
 1369TIP3    H225523   6.336   0.818  11.077 -1.1895 -0.8227 -0.2242
 1370TIP3   OH225524   4.844   5.070  11.126 -1.0737  0.0839  0.2901
 1370TIP3    H125525   4.919   5.122  11.156 -1.4173  0.5711  0.3240
 1370TIP3    H225526   4.816   5.113  11.045 -1.2142 -0.1982  0.1873
 1371TIP3   OH225527   0.649   0.665   3.496  0.0316  0.7500  0.0817
 1371TIP3    H125528   0.634   0.685   3.404 -2.5323  0.7045  0.4057
 1371TIP3    H225529   0.672   0.749   3.536  0.7073  0.8533 -0.5117
 1372TIP3   OH225530   4.029   6.083  13.099 -0.2725  0.2181 -0.7239
 1372TIP3    H125531   3.941   6.087  13.136  0.1399  0.6240  0.2200
 1372TIP3    H225532   4.036   5.993  13.065 -0.2482 -0.5773  1.2465
 1373TIP3   OH225533   1.320   2.768   4.020 -0.4092  0.0765 -0.2076
 1373TIP3    H125534   1.398   2.751   3.968  2.7656  2.3840  3.2847
 1373TIP3    H225535   1.280   2.845   3.979  0.5821  0.3532 -0.6810
 1374TIP3   OH225536   3.464   4.737   1.107  0.2177 -0.2384  0.0189
 1374TIP3    H125537   3.483   4.819   1.151 -0.6915 -1.0059  1.9696
 1374TIP3    H225538   3.549   4.696   1.094  0.5801  0.4749  0.1097
 1375TIP3   OH225539   0.863   3.960  12.317  0.7042  0.3122  0.3005
 1375TIP3    H125540   0.912   4.006  12.249  2.4690 -0.6430  0.8710
 1375TIP3    H225541   0.896   3.871  12.314  0.8148  0.2434  2.3758
 1376TIP3   OH225542   6.687   1.898   6.192  0.4136  0.2353 -0.2800
 1376TIP3    H125543   6.616   1.890   6.256 -0.0779 -0.8355 -0.9069
 1376TIP3    H225544   6.658   1.968   6.134  1.2275  1.7400  1.0810
 1377TIP3   OH225545   3.996   4.692   3.933 -0.2646 -0.2739  0.4114
 1377TIP3    H125546   3.990   4.615   3.877 -0.5954  0.7981 -1.0637
 1377TIP3    H225547   3.941   4.670   4.009 -0.2911 -1.5015  0.0635
 1378TIP3   OH225548   3.034   4.605   2.137 -0.6284  0.1077 -0.2851
 1378TIP3    H125549   3.040   4.547   2.213  1.4020  0.6540  0.0289
 1378TIP3    H225550   3.046   4.546   2.062 -0.0628 -0.1024 -0.0400
 1379TIP3   OH225551   3.416   2.214  12.147  0.2893 -0.2885  0.5662
 1379TIP3    H125552   3.346   2.194  12.085  2.1518 -2.1813 -1.0874
 1379TIP3    H225553   3.397   2.160  12.224 -2.0231  2.0591  1.7972
 1380TIP3   OH225554   0.725   3.959   5.653  0.2327 -0.1452  0.1089
 1380TIP3    H125555   0.652   3.933   5.597  0.0118  1.8109 -0.5927
 1380TIP3    H225556   0.789   3.997   5.592  0.4508  1.0287  1.0341
 1381TIP3   OH225557   6.279   6.072  16.616 -0.6528 -0.0420  0.3638
 1381TIP3    H125558   6.251   6.120  16.694 -0.6242 -1.3553  1.2073
 1381TIP3    H225559   6.200   6.065  16.563 -1.0063 -0.3140  0.9106
 1382TIP3   OH225560   4.131   5.358   4.728 -0.7387 -0.4295  0.2277
 1382TIP3    H125561   4.219   5.393   4.742 -0.8162 -0.7166  1.5376
 1382TIP3    H225562   4.144   5.287   4.664 -0.3513  0.8544 -1.1835
 1383TIP3   OH225563   2.799   3.441  15.846  0.4723 -0.1513 -0.0908
 1383TIP3    H125564   2.722   3.467  15.795  0.7624 -2.5114 -1.8842
 1383TIP3    H225565   2.766   3.375  15.907 -0.0163  3.0790  3.5859
 1384TIP3   OH225566   5.533   6.347  17.196 -0.0957 -0.1172 -0.1267
 1384TIP3    H125567   5.446   6.334  17.235 -0.8046  0.7714 -1.3055
 1384TIP3    H225568   5.581   6.399  17.260  0.1519 -1.9473  1.2427
 1385TIP3   OH225569   0.801   0.175  13.046  0.0931  0.0276  0.5436
 1385TIP3    H125570   0.811   0.186  12.951 -0.1102  0.2838  0.5523
 1385TIP3    H225571   0.727   0.230  13.069  0.3720  0.2537  0.9122
 1386TIP3   OH225572   5.842   4.705  13.360  0.1945  0.1665 -0.8427
 1386TIP3    H125573   5.775   4.695  13.294  0.3006 -1.7911 -0.6995
 1386TIP3    H225574   5.796   4.695  13.443  0.4631  0.0899 -0.7021
 1387TIP3   OH225575   2.718   1.873  15.399  0.5722  0.0639  0.0220
 1387TIP3    H125576   2.675   1.789  15.411 -2.4097  1.4778  0.3127
 1387TIP3    H225577   2.765   1.889  15.481  1.1625 -1.2659 -0.0372
 1388TIP3   OH225578   0.761   2.449   0.251  0.8684 -0.1846  0.1729
 1388TIP3    H125579   0.684   2.395   0.237  0.4814  0.5600 -0.6357
 1388TIP3    H225580   0.730   2.521   0.307  1.3647 -0.7372  1.1920
 1389TIP3   OH225581   0.060   2.623  13.955 -1.0639  0.5220 -0.3738
 1389TIP3    H125582   0.034   2.714  13.943 -2.4622  0.0202 -1.4407
 1389TIP3    H225583   0.057   2.585  13.867  1.0463 -0.1967 -0.1909
 1390TIP3   OH225584   3.309   4.426  15.925  0.0942  0.3749 -0.2553
 1390TIP3    H125585   3.373   4.389  15.986 -0.0401  1.0594  0.3031
 1390TIP3    H225586   3.231   4.441  15.978 -0.6795 -0.7914 -1.0111
 1391TIP3   OH225587   5.299   1.621  14.368  0.2641 -0.2604 -0.5529
 1391TIP3    H125588   5.281   1.551  14.432 -1.2183 -0.7012 -1.4027
 1391TIP3    H225589   5.288   1.578  14.283  1.3585  0.5334 -1.1095
 1392TIP3   OH225590   0.307   1.415   5.449  0.1979  0.1484  0.2255
 1392TIP3    H125591   0.237   1.381   5.393  0.3231 -0.4346  0.4119
 1392TIP3    H225592   0.388   1.383   5.408  0.3570  0.7877  0.0314
 1393TIP3   OH225593   5.621   1.982   0.665 -0.0524  0.0381  0.2989
 1393TIP3    H125594   5.545   1.951   0.616 -1.7660  3.1561  0.7372
 1393TIP3    H225595   5.594   1.979   0.757  1.8947 -2.5386  0.8996
 1394TIP3   OH225596   0.618   6.719  16.652 -0.8126  0.0841 -0.9138
 1394TIP3    H125597   0.678   6.646  16.663 -1.8327 -0.4552  1.9601
 1394TIP3    H225598   0.674   6.797  16.649  0.1492 -0.4539  1.0835
 1395TIP3   OH225599   2.315   6.279  11.585  0.2286  0.5311 -0.0831
 1395TIP3    H125600   2.353   6.342  11.524 -2.0850  3.6472  1.4273
 1395TIP3    H225601   2.262   6.222  11.529  0.9468  1.0375 -1.3258
 1396TIP3   OH225602   2.485   5.411   0.957  0.3241  0.1736 -0.3618
 1396TIP3    H125603   2.561   5.453   0.917  1.6204 -2.2065 -0.5499
 1396TIP3    H225604   2.519   5.333   0.999 -2.1303 -1.5877 -1.3864
 1397TIP3   OH225605   0.382   5.145   2.624  0.0613  0.1358  0.0493
 1397TIP3    H125606   0.460   5.199   2.637 -0.3588  0.0486  3.9161
 1397TIP3    H225607   0.319   5.204   2.584  1.7599  0.3681 -2.6116
 1398TIP3   OH225608   2.027   0.371   1.120  0.0877  0.7793  0.4545
 1398TIP3    H125609   2.061   0.331   1.200 -0.6662 -1.6657 -0.3565
 1398TIP3    H225610   2.085   0.339   1.051 -0.1523  1.6557 -0.1720
 1399TIP3   OH225611   2.262   6.298  13.047  0.1140  0.3980  0.4961
 1399TIP3    H125612   2.331   6.279  13.111 -0.1170 -0.6299  0.4531
 1399TIP3    H225613   2.305   6.288  12.962  0.0837  0.4272  0.4771
 1400TIP3   OH225614   6.031   3.421   3.153  0.2587  0.2933 -0.1443
 1400TIP3    H125615   5.937   3.404   3.154  0.0976  0.7177  3.2406
 1400TIP3    H225616   6.060   3.387   3.068 -2.6855 -1.1448 -0.7224
 1401TIP3   OH225617   5.407   6.397  14.696 -0.0800 -0.2621  0.2566
 1401TIP3    H125618   5.312   6.389  14.685 -0.1223  0.3915  0.1071
 1401TIP3    H225619   5.443   6.343  14.626 -0.3536  0.7369 -0.6824
 1402TIP3   OH225620   0.304   6.570  12.549 -0.3816 -0.3177  0.2481
 1402TIP3    H125621   0.296   6.653  12.503 -2.8101 -1.0694 -0.8627
 1402TIP3    H225622   0.315   6.594  12.641 -1.4044  1.2507  0.0029
 1403TIP3   OH225623   3.457   3.849  13.255 -0.7846  0.5872  1.1524
 1403TIP3    H125624   3.466   3.873  13.163  0.0867  1.0679  1.3461
 1403TIP3    H225625   3.536   3.884  13.296 -0.3481 -1.0689  1.7912
 1404TIP3   OH225626   5.225   1.179  16.605  0.3042  0.1410  0.2429
 1404TIP3    H125627   5.236   1.260  16.555 -1.7965 -0.4788 -1.3730
 1404TIP3    H225628   5.181   1.119  16.544 -1.0975 -1.1577  2.3924
 1405TIP3   OH225629   3.798   0.660  13.044 -1.0210 -0.1980  0.8518
 1405TIP3    H125630   3.814   0.644  12.951 -0.6652 -1.4963  1.1159
 1405TIP3    H225631   3.881   0.694  13.078 -1.0459 -0.0591  0.7756
 1406TIP3   OH225632   5.635   0.715   1.008 -0.3891  0.5352 -0.4421
 1406TIP3    H125633   5.647   0.800   0.966 -1.1496  0.2589 -1.2520
 1406TIP3    H225634   5.724   0.685   1.028 -0.1381  1.8936  0.6688
 1407TIP3   OH225635   1.160   6.163  14.611  0.0702 -0.2416  0.1354
 1407TIP3    H125636   1.082   6.109  14.624 -0.4674  0.7326  1.0888
 1407TIP3    H225637   1.201   6.127  14.533 -1.5336 -0.5463 -0.6066
 1408TIP3   OH225638   2.925   1.971  15.579 -0.1721  0.3158 -0.3322
 1408TIP3    H125639   2.994   1.936  15.636  1.8294  0.5960 -2.4154
 1408TIP3    H225640   2.914   2.062  15.609 -0.9834 -0.2255  1.1463
 1409TIP3   OH225641   2.391   3.134   4.512  0.5467 -0.2080  0.1718
 1409TIP3    H125642   2.466   3.127   4.453 -0.1070  0.3438 -0.7394
 1409TIP3    H225643   2.359   3.044   4.522 -0.2853 -0.1363 -1.5780
 1410TIP3   OH225644   0.846   1.293  11.502 -0.7652 -0.0245 -0.3976
 1410TIP3    H125645   0.783   1.244  11.555 -0.1690 -1.9765 -1.3908
 1410TIP3    H225646   0.930   1.279  11.546 -0.9545  2.8459  1.1136
 1411TIP3   OH225647   6.325   0.450  16.913 -0.2972 -0.0872 -0.4591
 1411TIP3    H125648   6.352   0.439  16.822 -2.1611 -0.9214 -0.9588
 1411TIP3    H225649   6.393   0.505  16.952  0.3240  0.6293 -2.4464
 1412TIP3   OH225650   6.281   0.489  15.553 -0.6015 -0.0203  0.3311
 1412TIP3    H125651   6.371   0.494  15.586 -0.1535 -0.2036 -0.8048
 1412TIP3    H225652   6.229   0.465  15.630  0.3245  0.0149  0.9948
 1413TIP3   OH225653   5.196   4.688  11.800  0.0471  0.1132  0.4019
 1413TIP3    H125654   5.266   4.667  11.862 -2.0371 -0.8454  2.5487
 1413TIP3    H225655   5.130   4.620  11.813 -2.8831  2.8693  1.0486
 1414TIP3   OH225656   1.785   3.907   0.217  0.1633  0.4830  0.3249
 1414TIP3    H125657   1.725   3.971   0.178 -0.4281 -0.0482  0.3465
 1414TIP3    H225658   1.741   3.879   0.297 -0.4074 -1.1987 -0.5246
 1415TIP3   OH225659   2.532   5.030  13.472 -0.7698  0.4857  0.7503
 1415TIP3    H125660   2.621   5.006  13.497 -0.0481  1.4902 -0.7252
 1415TIP3    H225661   2.500   4.956  13.421  0.5381  1.5075 -1.6833
 1416TIP3   OH225662   3.967   0.475  14.019  0.5908 -0.1961 -0.1903
 1416TIP3    H125663   3.974   0.565  14.050 -0.0296 -0.1519 -0.1616
 1416TIP3    H225664   3.973   0.481  13.924 -2.7642  0.3035 -0.5165
 1417TIP3   OH225665   3.240   3.131  17.159  0.2007  0.0881 -0.2452
 1417TIP3    H125666   3.264   3.188  17.233  0.0660 -1.8644  1.3806
 1417TIP3    H225667   3.299   3.056  17.167 -1.1810 -1.1057 -0.9145
 1418TIP3   OH225668   6.071   0.636  14.986  0.1368  0.3729 -0.2510
 1418TIP3    H125669   6.082   0.596  15.072 -0.7449 -0.0381 -0.3149
 1418TIP3    H225670   5.982   0.612  14.960 -0.0705  1.5760 -0.7142
 1419TIP3   OH225671   0.263   5.368   3.739 -0.1662  0.1020 -0.0066
 1419TIP3    H125672   0.189   5.319   3.777 -0.0528 -0.5765 -0.6383
 1419TIP3    H225673   0.222   5.432   3.682 -0.2855 -1.6483 -2.0332
 1420TIP3   OH225674   1.150   3.136   1.530 -0.3130 -0.7183  0.2888
 1420TIP3    H125675   1.189   3.053   1.505  0.8546 -0.6901  1.8825
 1420TIP3    H225676   1.162   3.141   1.625 -0.9677  0.9557  0.3197
 1421TIP3   OH225677   4.796   1.117   0.889 -0.3160  0.2630  0.3830
 1421TIP3    H125678   4.809   1.191   0.830  0.2654 -1.1273 -1.3189
 1421TIP3    H225679   4.821   1.150   0.975  2.9179  1.2045 -0.7915
 1422TIP3   OH225680   3.796   6.714   5.866  0.1424 -0.0465  0.1042
 1422TIP3    H125681   3.847   6.749   5.793 -2.3689 -0.5892 -2.0430
 1422TIP3    H225682   3.857   6.656   5.912  2.1211  1.1660 -0.8357
 1423TIP3   OH225683   2.497   0.056   3.450 -0.2579 -0.0930  0.6303
 1423TIP3    H125684   2.494   0.048   3.545  1.5428  2.2409  0.9739
 1423TIP3    H225685   2.535  -0.027   3.420  1.8579  0.2186  2.2434
 1424TIP3   OH225686   5.362   5.573  14.685 -0.1186  0.1229  0.2807
 1424TIP3    H125687   5.322   5.619  14.759 -2.9863  0.2258 -1.1805
 1424TIP3    H225688   5.376   5.641  14.619  0.8186 -0.2515  0.0775
 1425TIP3   OH225689   0.277   0.552  16.466 -0.3753 -0.4765  0.1282
 1425TIP3    H125690   0.198   0.589  16.425  0.4582 -0.4397 -1.5476
 1425TIP3    H225691   0.248   0.523  16.552 -1.5555  2.1595  0.7187
 1426TIP3   OH225692   2.664   2.663   0.579 -0.1136  0.7135  0.1824
 1426TIP3    H125693   2.724   2.593   0.604 -0.5768 -0.7683 -2.5199
 1426TIP3    H225694   2.722   2.735   0.553  0.4095  0.4495  0.5774
 1427TIP3   OH225695   0.083   2.075  15.386 -0.3345 -0.2450 -0.6464
 1427TIP3    H125696   0.175   2.047  15.386 -0.4669 -0.6909 -0.4930
 1427TIP3    H225697   0.061   2.086  15.293  0.9472  3.5537 -0.6774
 1428TIP3   OH225698   4.466   5.860  11.759  0.2854  0.1715 -0.4310
 1428TIP3    H125699   4.497   5.900  11.678  2.3328 -2.4379 -1.0718
 1428TIP3    H225700   4.421   5.781  11.731  0.2013 -0.2865  0.9343
 1429TIP3   OH225701   3.858   4.355  16.206  0.2471 -0.0687 -0.5429
 1429TIP3    H125702   3.885   4.437  16.247 -2.1377  0.8774 -0.7490
 1429TIP3    H225703   3.789   4.379  16.145 -1.6677 -2.3957  0.5399
 1430TIP3   OH225704   0.557   0.343  14.511 -0.0425 -0.0668 -0.0245
 1430TIP3    H125705   0.507   0.313  14.435 -0.0290 -2.3514  0.7789
 1430TIP3    H225706   0.647   0.318  14.490  0.2067  0.7076  0.1029
 1431TIP3   OH225707   3.336   3.390   5.335 -0.3185  0.6159  0.6160
 1431TIP3    H125708   3.327   3.377   5.430  0.2381  0.4590  0.6542
 1431TIP3    H225709   3.329   3.302   5.298  1.6999  0.3493  0.7229
 1432TIP3   OH225710   1.734   1.987   4.842 -0.2266  0.1995  0.0997
 1432TIP3    H125711   1.777   1.942   4.915 -0.7609 -0.9070 -0.2393
 1432TIP3    H225712   1.704   2.070   4.879  1.2441  0.5360  0.6059
 1433TIP3   OH225713   1.756   4.705   2.894 -0.1200  0.1801 -0.2955
 1433TIP3    H125714   1.721   4.717   2.806 -1.6551  0.1836  0.2708
 1433TIP3    H225715   1.811   4.627   2.888  1.5358  1.3723 -1.6964
 1434TIP3   OH225716   6.330   3.621   0.304  0.0475 -0.6867 -0.3268
 1434TIP3    H125717   6.238   3.604   0.284 -0.8633  0.1466  2.5441
 1434TIP3    H225718   6.327   3.669   0.387  3.1010 -0.7793 -0.0612
 1435TIP3   OH225719   1.531   1.783   5.101  0.0853 -0.3033  0.1359
 1435TIP3    H125720   1.590   1.854   5.126  0.3336 -0.9725  1.5426
 1435TIP3    H225721   1.513   1.737   5.182  0.3129 -2.1604 -0.8196
 1436TIP3   OH225722   0.086   0.446   0.056  0.2888  0.0891  0.6490
 1436TIP3    H125723   0.054   0.483   0.138 -1.8183  1.1700 -0.5713
 1436TIP3    H225724   0.035   0.366   0.045  1.5160 -0.7543  1.0226
 1437TIP3   OH225725   2.304   6.760   3.705 -0.0040 -0.0917 -0.5519
 1437TIP3    H125726   2.287   6.798   3.619  0.3029  1.0823 -0.1193
 1437TIP3    H225727   2.266   6.823   3.767  0.6804 -0.3941  0.1999
 1438TIP3   OH225728   5.276   2.772  12.388  0.2231 -0.1166 -0.1228
 1438TIP3    H125729   5.240   2.698  12.338  0.5040  0.8728 -1.8726
 1438TIP3    H225730   5.370   2.754  12.393  0.3143  0.1598 -0.6799
 1439TIP3   OH225731   3.869   0.452   4.531  0.2813 -0.4580 -0.3886
 1439TIP3    H125732   3.851   0.546   4.529 -0.9879 -0.5965  1.4681
 1439TIP3    H225733   3.794   0.412   4.485  1.1633 -0.5640 -1.7934
 1440TIP3   OH225734   4.750   6.317   5.218 -0.5852  0.0688  0.2076
 1440TIP3    H125735   4.818   6.294   5.282  2.6188 -0.6216 -3.1603
 1440TIP3    H225736   4.706   6.234   5.200 -2.1990  0.4432  2.0887
 1441TIP3   OH225737   6.219   5.984  15.614 -0.5057 -0.3755 -0.5455
 1441TIP3    H125738   6.181   6.072  15.622  1.0654  0.1807  1.9539
 1441TIP3    H225739   6.308   5.999  15.584  0.1115 -0.9631  0.8881
 1442TIP3   OH225740   4.357   1.236   1.907 -0.3184 -0.5225 -0.3335
 1442TIP3    H125741   4.352   1.191   1.992 -2.2777  1.4454  0.6968
 1442TIP3    H225742   4.382   1.326   1.929 -2.1759  0.3860 -1.6621
 1443TIP3   OH225743   6.587   5.829  16.988 -0.2657 -0.0930 -0.1718
 1443TIP3    H125744   6.493   5.848  16.982 -0.3942  0.0827  1.7306
 1443TIP3    H225745   6.594   5.770  17.063  1.0911 -0.5836 -0.6658
 1444TIP3   OH225746   1.120   5.593  12.763  0.0009 -0.3534 -0.3487
 1444TIP3    H125747   1.084   5.672  12.803 -0.8080 -0.4893 -0.7876
 1444TIP3    H225748   1.158   5.544  12.836  0.1671  0.2541 -0.0181
 1445TIP3   OH225749   4.956   2.194   5.107 -0.2206 -0.1578  0.5318
 1445TIP3    H125750   4.998   2.245   5.038 -1.2216 -0.2801 -0.1970
 1445TIP3    H225751   4.953   2.253   5.182 -1.6099  0.9944 -0.3816
 1446TIP3   OH225752   3.716   1.153   2.627 -0.0414 -0.1553  0.6527
 1446TIP3    H125753   3.767   1.108   2.559 -0.1048 -2.0294  1.7491
 1446TIP3    H225754   3.780   1.208   2.672  0.9946 -2.0348  1.6364
 1447TIP3   OH225755   5.700   4.615   2.342 -0.0859  0.2463  0.0028
 1447TIP3    H125756   5.714   4.539   2.399  2.4085  1.6661  1.4105
 1447TIP3    H225757   5.672   4.685   2.401 -1.3302  0.7476 -1.1317
 1448TIP3   OH225758   0.915   3.210  15.265  0.1787 -0.2238  1.0296
 1448TIP3    H125759   0.947   3.122  15.286 -0.9782 -1.3147 -1.3174
 1448TIP3    H225760   0.827   3.195  15.229 -0.6639  2.0741  1.9626
 1449TIP3   OH225761   3.270   2.304  13.084  0.0564  0.4912 -0.0511
 1449TIP3    H125762   3.255   2.232  13.024  1.5686 -0.2938  0.4618
 1449TIP3    H225763   3.297   2.377  13.028 -0.3692  0.3231 -0.4771
 1450TIP3   OH225764   5.764   6.709  10.732 -0.3353 -0.3858 -0.2362
 1450TIP3    H125765   5.756   6.797  10.769 -2.1987 -0.4738 -0.3243
 1450TIP3    H225766   5.803   6.722  10.646  3.6226 -0.1208  1.3743
 1451TIP3   OH225767   1.209   4.579  12.099  0.0480 -0.5511  0.6056
 1451TIP3    H125768   1.255   4.641  12.155  0.6606  0.6985 -1.2066
 1451TIP3    H225769   1.250   4.589  12.013 -2.0276 -1.1239 -0.5051
 1452TIP3   OH225770   4.615   0.586   0.233  0.6138  0.5053  0.0722
 1452TIP3    H125771   4.558   0.646   0.185 -2.7396 -1.8189  0.7262
 1452TIP3    H225772   4.644   0.522   0.168 -0.8652 -0.5135  0.3476
 1453TIP3   OH225773   6.489   3.074  12.505 -0.0927  0.1398  0.1047
 1453TIP3    H125774   6.515   3.025  12.427 -1.3799  0.8003 -0.7743
 1453TIP3    H225775   6.393   3.079  12.500 -0.0309  2.9371  0.0077
 1454TIP3   OH225776   5.438   1.036  14.791  0.2963 -0.3244  0.0019
 1454TIP3    H125777   5.351   1.027  14.829 -0.5031 -1.7109 -1.9657
 1454TIP3    H225778   5.483   0.955  14.816  0.0732 -0.8256 -1.1282
 1455TIP3   OH225779   5.959   4.546   2.652 -0.2324 -0.5120  0.9915
 1455TIP3    H125780   5.869   4.536   2.623  0.3041  1.6526 -1.8345
 1455TIP3    H225781   5.993   4.457   2.658 -2.0307 -1.2820  0.4212
 1456TIP3   OH225782   1.831   4.647  14.959 -0.6854  0.5087 -0.4188
 1456TIP3    H125783   1.752   4.668  15.008 -0.7758  0.4012 -0.5183
 1456TIP3    H225784   1.872   4.732  14.942 -0.1926  0.4929  0.6053
 1457TIP3   OH225785   3.111   4.397   1.922  0.6125 -0.1735 -0.0547
 1457TIP3    H125786   3.026   4.431   1.894  0.2151 -0.7292  0.4361
 1457TIP3    H225787   3.175   4.444   1.868  0.0355  0.6859 -0.0210
 1458TIP3   OH225788   3.565   4.315  11.628 -0.6603  0.8235  0.2279
 1458TIP3    H125789   3.617   4.244  11.665 -1.3206 -0.3872 -1.0946
 1458TIP3    H225790   3.624   4.391  11.628  1.0306 -0.4295 -0.9832
 1459TIP3   OH225791   6.026   3.367  11.458  0.5450  0.2223 -0.2108
 1459TIP3    H125792   6.096   3.321  11.412  0.3745  0.9181 -1.1962
 1459TIP3    H225793   6.071   3.413  11.529  0.8850 -0.4497  0.0179
 1460TIP3   OH225794   3.988   6.642  12.236  0.1710 -0.6604 -0.1120
 1460TIP3    H125795   4.054   6.588  12.194  0.5108  1.2183 -2.1677
 1460TIP3    H225796   3.907   6.592  12.226  0.5286 -0.9869 -1.6444
 1461TIP3   OH225797   3.230   5.111   1.364 -0.3240  0.7691  0.5656
 1461TIP3    H125798   3.153   5.101   1.419 -0.8055  0.3875 -0.1561
 1461TIP3    H225799   3.235   5.029   1.315  0.7132  0.6704  0.8103
 1462TIP3   OH225800   0.756   0.764   0.563 -0.1398  1.2162 -0.1155
 1462TIP3    H125801   0.696   0.807   0.502  0.0653  2.9537  0.8370
 1462TIP3    H225802   0.796   0.836   0.612  3.1025  0.2152 -0.9970
 1463TIP3   OH225803   0.989   4.235  13.660  0.2382 -0.4192 -0.2470
 1463TIP3    H125804   0.929   4.187  13.602 -0.5490 -0.2492  0.4030
 1463TIP3    H225805   1.006   4.174  13.732  0.2913 -0.2111 -0.0834
 1464TIP3   OH225806   4.152   6.661  12.600 -0.2963 -0.5454 -0.0524
 1464TIP3    H125807   4.204   6.637  12.523  0.5834  1.8151 -0.2892
 1464TIP3    H225808   4.214   6.654  12.673  0.0433  0.9647 -0.1523
 1465TIP3   OH225809   6.569   3.989  14.538  0.3940 -0.0282 -0.2615
 1465TIP3    H125810   6.660   4.019  14.537  0.6838 -0.8866 -0.4647
 1465TIP3    H225811   6.574   3.898  14.509 -0.1212 -1.2910  3.1896
 1466TIP3   OH225812   4.083   1.242   1.578 -0.6328 -0.0923  0.1970
 1466TIP3    H125813   4.107   1.293   1.655 -0.4058  0.3810 -0.1814
 1466TIP3    H225814   4.071   1.307   1.509 -1.6438 -0.4411  0.0337
 1467TIP3   OH225815   5.564   5.907   3.827  0.1312  0.0441 -0.0429
 1467TIP3    H125816   5.518   5.948   3.754  0.7294  0.4759 -0.1815
 1467TIP3    H225817   5.631   5.971   3.852  1.2434 -0.9456 -0.4262
 1468TIP3   OH225818   4.208   3.479  15.217 -0.0792 -0.1417  0.1784
 1468TIP3    H125819   4.219   3.395  15.261  1.3521  0.6001  1.3299
 1468TIP3    H225820   4.293   3.522  15.226 -0.1742  0.6792 -2.0513
 1469TIP3   OH225821   4.745   5.303  11.379  0.5760  0.1532  0.9852
 1469TIP3    H125822   4.723   5.274  11.468  0.4225 -1.3538  0.4837
 1469TIP3    H225823   4.839   5.289  11.371  0.5057 -0.2240  0.7515
 1470TIP3   OH225824   0.335   2.892   5.206 -0.2062 -0.4725 -0.2138
 1470TIP3    H125825   0.425   2.891   5.176  0.1481  1.5011  0.6576
 1470TIP3    H225826   0.288   2.839   5.142  1.6339 -2.0566 -0.3494
 1471TIP3   OH225827   5.459   2.149   4.694 -0.2237  0.3182 -0.1154
 1471TIP3    H125828   5.388   2.088   4.717 -1.1061  0.9473 -1.1118
 1471TIP3    H225829   5.469   2.203   4.772 -1.1585  0.5194 -0.1203
 1472TIP3   OH225830   2.693   3.375   4.488  0.2345  0.3896 -0.3613
 1472TIP3    H125831   2.763   3.428   4.448  0.9226 -0.5395 -0.4369
 1472TIP3    H225832   2.731   3.342   4.569 -0.3101  0.3076 -0.1351
 1473TIP3   OH225833   3.113   3.750   5.562  0.4922 -0.4250 -0.4051
 1473TIP3    H125834   3.201   3.728   5.590  0.3936  0.1093  0.3381
 1473TIP3    H225835   3.056   3.695   5.615  0.2780  1.0520  0.9749
 1474TIP3   OH225836   4.853   4.089   6.285  0.4884  0.2307  0.2436
 1474TIP3    H125837   4.846   4.183   6.301  2.3663  0.2478  1.2078
 1474TIP3    H225838   4.811   4.048   6.360  1.4388  0.3221  0.8404
 1475TIP3   OH225839   6.342   6.310   3.529 -0.2591 -0.9533  0.2977
 1475TIP3    H125840   6.410   6.260   3.572 -1.0434 -0.8852  1.6551
 1475TIP3    H225841   6.355   6.400   3.558  0.6829 -0.4461 -1.5383
 1476TIP3   OH225842   3.201   0.734   2.655  0.0109 -0.4766 -0.0187
 1476TIP3    H125843   3.129   0.781   2.614  0.7603  1.8686  1.1644
 1476TIP3    H225844   3.260   0.713   2.583  0.1446  1.3973 -0.5073
 1477TIP3   OH225845   0.959   5.974  14.638 -1.1283  0.4091 -0.3999
 1477TIP3    H125846   0.928   5.927  14.561 -0.0377 -1.4939  0.2687
 1477TIP3    H225847   0.882   5.982  14.694 -1.4877  0.1076 -0.8475
 1478TIP3   OH225848   0.433   0.037   3.122 -0.0144  0.2749 -0.0441
 1478TIP3    H125849   0.350   0.074   3.094 -0.0094  0.6739  0.4585
 1478TIP3    H225850   0.436  -0.049   3.080 -0.4532  0.4574 -0.4582
 1479TIP3   OH225851   4.441   1.777   5.141  0.4785  0.6035  0.2354
 1479TIP3    H125852   4.449   1.870   5.118 -0.7731  0.3183 -1.5365
 1479TIP3    H225853   4.456   1.775   5.236  1.6160  2.4519  0.1502
 1480TIP3   OH225854   5.399   2.178  16.273 -0.1950 -0.0089  0.1784
 1480TIP3    H125855   5.419   2.085  16.287 -0.1646 -0.0891 -0.3591
 1480TIP3    H225856   5.362   2.208  16.356 -0.9830 -0.7171  0.1011
 1481TIP3   OH225857   6.121   0.502  13.010  0.0838  0.4058  0.8437
 1481TIP3    H125858   6.187   0.442  13.045  0.1871 -2.0747 -2.9879
 1481TIP3    H225859   6.038   0.472  13.048  0.3028 -1.5123 -0.0766
 1482TIP3   OH225860   4.082   5.710   1.867  0.4712  0.4799 -0.4305
 1482TIP3    H125861   4.047   5.764   1.796 -2.7820  0.2182  0.8243
 1482TIP3    H225862   4.133   5.771   1.921  1.2996  1.0900 -1.8479
 1483TIP3   OH225863   3.675   4.312  15.104 -0.0976  0.1123 -0.1528
 1483TIP3    H125864   3.666   4.265  15.021 -2.2893  0.4242 -0.1494
 1483TIP3    H225865   3.758   4.359  15.096  0.8875 -1.7070 -1.1878
 1484TIP3   OH225866   2.028   2.076  11.984 -0.5752 -0.0252  0.4536
 1484TIP3    H125867   2.115   2.036  11.986 -0.0583  1.0930  1.8403
 1484TIP3    H225868   2.042   2.166  12.013 -1.9884  0.6348 -0.7343
 1485TIP3   OH225869   3.131   2.276   5.615  0.0228 -0.3434 -0.0208
 1485TIP3    H125870   3.158   2.368   5.618 -0.5480 -0.1775  0.2829
 1485TIP3    H225871   3.116   2.252   5.706 -0.8224 -0.4220 -0.1668
 1486TIP3   OH225872   2.875   3.383   5.884  0.0047  0.3916 -0.0793
 1486TIP3    H125873   2.938   3.313   5.898  1.8120  1.9595  0.0706
 1486TIP3    H225874   2.851   3.411   5.973 -0.1594  0.4209 -0.1328
 1487TIP3   OH225875   6.203   0.507  12.466  0.1634  0.4279 -0.1167
 1487TIP3    H125876   6.283   0.517  12.517 -0.5171  0.7025  0.9276
 1487TIP3    H225877   6.220   0.432  12.410  0.3418 -0.9670  1.7073
 1488TIP3   OH225878   0.325   5.800  16.197 -0.0147 -0.7540  0.4402
 1488TIP3    H125879   0.394   5.829  16.257  0.1507  1.5920 -0.7638
 1488TIP3    H225880   0.369   5.743  16.135  0.0796 -2.1051  1.6835
 1489TIP3   OH225881   3.447   2.235  14.713  0.6784 -0.2226 -0.0899
 1489TIP3    H125882   3.461   2.326  14.740  0.3134 -0.1284 -0.2254
 1489TIP3    H225883   3.535   2.203  14.693  0.6379  0.6659 -1.8468
 1490TIP3   OH225884   0.412   2.991   1.549  0.2742 -0.3630  0.4378
 1490TIP3    H125885   0.318   2.998   1.535  0.3600  0.8342  0.3361
 1490TIP3    H225886   0.421   2.949   1.634 -0.4436  2.3492  1.9749
 1491TIP3   OH225887   1.377   0.147  15.377 -0.2295  0.5889 -0.6030
 1491TIP3    H125888   1.362   0.233  15.416  0.0846  1.2068 -1.8005
 1491TIP3    H225889   1.443   0.162  15.310  0.4237 -0.7440 -0.2953
 1492TIP3   OH225890   5.507   3.500  13.001 -0.1387  0.5215 -0.1054
 1492TIP3    H125891   5.445   3.504  13.074 -1.5835 -2.7149 -0.9604
 1492TIP3    H225892   5.487   3.577  12.949 -2.1164  0.6117  0.6939
 1493TIP3   OH225893   1.118   6.562  17.036  0.7810  0.5797 -0.1831
 1493TIP3    H125894   1.112   6.544  16.942  0.1075 -0.2731  0.0110
 1493TIP3    H225895   1.033   6.536  17.071  1.3047  0.1374  0.7891
 1494TIP3   OH225896   6.646   6.704  15.407  0.0957 -0.1010  0.2402
 1494TIP3    H125897   6.613   6.614  15.396  0.9622 -0.5981  1.4710
 1494TIP3    H225898   6.567   6.758  15.415 -0.4366 -0.8140 -0.1088
 1495TIP3   OH225899   3.110   3.374   4.255 -0.7914  0.2006  0.2680
 1495TIP3    H125900   3.176   3.380   4.325  0.0533 -2.0045 -0.2464
 1495TIP3    H225901   3.123   3.286   4.218 -3.3137  0.1245 -0.5948
 1496TIP3   OH225902   4.878   2.412  12.293 -0.3849 -0.1062  0.2112
 1496TIP3    H125903   4.785   2.433  12.300 -0.7172 -1.0115 -1.1390
 1496TIP3    H225904   4.922   2.478  12.347 -1.7830  0.4677  0.6860
 1497TIP3   OH225905   6.226   0.888  14.563  0.2313  0.2062 -0.2279
 1497TIP3    H125906   6.252   0.832  14.637 -1.6868  0.6025  0.7982
 1497TIP3    H225907   6.283   0.860  14.491  0.6246 -1.7531  0.7736
 1498TIP3   OH225908   4.160   0.098  15.659  0.1160  0.3145  0.2896
 1498TIP3    H125909   4.109   0.079  15.579 -0.1347 -0.4128  0.6148
 1498TIP3    H225910   4.239   0.141  15.627 -0.0065  0.0755 -0.3576
 1499TIP3   OH225911   3.677   3.523   4.475  0.4390  0.0835 -0.7208
 1499TIP3    H125912   3.603   3.462   4.472 -1.2983  2.0996 -2.7013
 1499TIP3    H225913   3.733   3.490   4.546 -2.9646 -0.8841  1.8019
 1500TIP3   OH225914   0.057   5.850  11.897 -0.2935 -0.1527  0.4105
 1500TIP3    H125915   0.049   5.923  11.835 -1.1553 -1.1088 -0.6409
 1500TIP3    H225916   0.104   5.887  11.971 -0.7126  1.4740 -0.0976
 1501TIP3   OH225917   0.941   5.093  16.608 -0.4701  0.0821 -0.0773
 1501TIP3    H125918   0.952   5.003  16.578 -0.8637  0.0391 -0.0966
 1501TIP3    H225919   0.965   5.147  16.533 -0.9580 -0.0175 -0.3104
 1502TIP3   OH225920   3.062   2.155  11.559 -0.1911  0.2710  0.6801
 1502TIP3    H125921   3.041   2.064  11.538 -0.4429  0.4831 -0.0088
 1502TIP3    H225922   3.137   2.176  11.502  0.5686  0.1598  1.6216
 1503TIP3   OH225923   3.299   4.655   6.665 -0.0438 -0.2691  0.2864
 1503TIP3    H125924   3.262   4.570   6.687  0.1580 -0.0550  1.5111
 1503TIP3    H225925   3.227   4.716   6.675  0.0968 -0.1444  0.5443
 1504TIP3   OH225926   5.082   0.353  13.616  0.0103  0.3181 -0.3897
 1504TIP3    H125927   5.136   0.275  13.631  0.0953  0.1618 -1.4318
 1504TIP3    H225928   5.051   0.344  13.526 -0.7057  1.0552 -0.2330
 1505TIP3   OH225929   0.714   3.096   4.400 -0.5119 -0.1341 -0.3560
 1505TIP3    H125930   0.622   3.073   4.410 -1.2451  1.5543 -2.5894
 1505TIP3    H225931   0.737   3.140   4.482 -1.2220 -1.8298  0.8036
 1506TIP3   OH225932   2.941   4.362  13.048  0.2001 -0.1516  0.0252
 1506TIP3    H125933   2.918   4.401  13.133  0.9074  0.1601  0.0808
 1506TIP3    H225934   3.031   4.389  13.033  0.1284 -0.3284 -0.7652
 1507TIP3   OH225935   4.283   1.469   1.104 -0.1154 -0.3798 -0.1712
 1507TIP3    H125936   4.371   1.442   1.078  0.0714  0.7817 -0.7899
 1507TIP3    H225937   4.227   1.395   1.079  0.3341 -0.1305 -2.0704
 1508TIP3   OH225938   2.283   1.691   0.569 -0.0812 -0.0086  0.6460
 1508TIP3    H125939   2.187   1.696   0.571 -0.0625  0.1790  1.2341
 1508TIP3    H225940   2.311   1.780   0.544 -0.0667 -0.2042 -0.0801
 1509TIP3   OH225941   3.508   1.682  11.559  0.4922  0.4103  0.2804
 1509TIP3    H125942   3.515   1.588  11.576 -0.5789  0.3065  0.2631
 1509TIP3    H225943   3.441   1.689  11.490 -1.5196  1.3054  2.1972
 1510TIP3   OH225944   1.775   0.519  14.129  0.6419 -0.5279 -0.2307
 1510TIP3    H125945   1.860   0.542  14.167  0.8182 -0.3031 -0.7556
 1510TIP3    H225946   1.738   0.454  14.190  1.0715 -0.4306  0.1370
 1511TIP3   OH225947   5.511   0.412  15.208  0.1484 -0.2063 -0.1574
 1511TIP3    H125948   5.524   0.377  15.120  0.7012 -1.3556  0.3609
 1511TIP3    H225949   5.596   0.447  15.234 -0.0544  0.2851 -0.1304
 1512TIP3   OH225950   2.190   0.446   2.360  0.1351  0.2213 -0.2552
 1512TIP3    H125951   2.212   0.496   2.281  1.2067 -1.8988 -1.3983
 1512TIP3    H225952   2.221   0.500   2.432  0.4776  1.5627 -1.3634
 1513TIP3   OH225953   4.748   6.619  12.551 -0.1504  0.0653  0.2894
 1513TIP3    H125954   4.783   6.657  12.632 -0.4318  0.7194  0.1167
 1513TIP3    H225955   4.727   6.695  12.497  2.9612 -0.3213 -1.6864
 1514TIP3   OH225956   4.733   4.311  15.762  0.5085  0.3626  0.3179
 1514TIP3    H125957   4.754   4.282  15.673 -0.6097  0.1224  0.1205
 1514TIP3    H225958   4.638   4.305  15.767  0.5047  1.0837  1.2954
 1515TIP3   OH225959   4.887   6.174   0.335  0.5730 -0.3296 -0.0254
 1515TIP3    H125960   4.923   6.235   0.400  1.9650 -1.5456  0.4114
 1515TIP3    H225961   4.792   6.185   0.342  0.7435  0.7452  1.0385
 1516TIP3   OH225962   4.612   0.113   0.548  0.3572  0.7596 -1.0172
 1516TIP3    H125963   4.693   0.162   0.555  1.2000 -0.6249 -0.6485
 1516TIP3    H225964   4.637   0.032   0.504 -0.7362  0.1360 -0.5273
 1517TIP3   OH225965   4.110   3.944   2.925 -0.7992  0.1483 -0.3800
 1517TIP3    H125966   4.054   3.996   2.983 -0.1168 -0.4420  0.8498
 1517TIP3    H225967   4.064   3.944   2.841 -0.1398  3.9925 -0.9407
 1518TIP3   OH225968   4.148   0.180  13.889 -0.4876  0.2491  0.5720
 1518TIP3    H125969   4.169   0.099  13.842 -0.7026 -0.0142  0.9286
 1518TIP3    H225970   4.060   0.165  13.923 -0.0846  0.1869  1.6022
 1519TIP3   OH225971   6.166   2.933   1.425  0.0896  0.0515  0.0400
 1519TIP3    H125972   6.238   2.996   1.417 -0.3471  0.4577 -0.7763
 1519TIP3    H225973   6.093   2.974   1.379 -0.5085 -0.5989  0.3945
 1520TIP3   OH225974   1.953   0.045   3.561  0.5375 -0.3582  0.7167
 1520TIP3    H125975   2.017  -0.017   3.526 -1.2038 -2.9208  1.7371
 1520TIP3    H225976   1.892   0.060   3.488  1.2765  0.6525  0.2931
 1521TIP3   OH225977   3.201   4.423  11.515  0.4030 -0.1571  0.8228
 1521TIP3    H125978   3.270   4.429  11.450 -0.1075 -0.5343  0.2406
 1521TIP3    H225979   3.165   4.335  11.504  0.0750 -0.0958  1.3699
 1522TIP3   OH225980   4.034   4.352   2.940  0.2544 -0.3084  0.2948
 1522TIP3    H125981   4.031   4.344   2.845 -1.5535 -1.3356  0.3851
 1522TIP3    H225982   4.123   4.381   2.959  1.1469 -1.6145 -1.5900
 1523TIP3   OH225983   3.338   4.466  13.582  0.5380  0.5307 -0.1578
 1523TIP3    H125984   3.428   4.441  13.560 -0.0484  0.5615 -2.9231
 1523TIP3    H225985   3.304   4.506  13.502 -2.3560 -0.6527  0.3730
 1524TIP3   OH225986   5.699   6.261   3.296 -0.2328  0.0661  0.1229
 1524TIP3    H125987   5.695   6.168   3.316 -0.5864 -0.1605 -0.9587
 1524TIP3    H225988   5.623   6.299   3.341  0.3331 -0.0371  1.1817
 1525TIP3   OH225989   6.610   4.409   4.681  0.1241 -0.4627 -0.0211
 1525TIP3    H125990   6.658   4.340   4.636  0.8536 -0.3119  0.5192
 1525TIP3    H225991   6.610   4.483   4.620 -2.2168 -1.4535 -1.3922
 1526TIP3   OH225992   0.647   2.090   5.683 -0.6411 -0.5304 -0.6582
 1526TIP3    H125993   0.586   2.023   5.714 -1.4474  0.7644  0.7107
 1526TIP3    H225994   0.732   2.047   5.684 -1.2019 -1.6812 -0.3075
 1527TIP3   OH225995   5.313   3.407  13.922 -0.1022 -0.2918  0.5169
 1527TIP3    H125996   5.380   3.366  13.977 -0.1973  1.4414  2.0438
 1527TIP3    H225997   5.285   3.484  13.973 -1.9442  0.0392 -0.9123
 1528TIP3   OH225998   1.494   3.478  14.645 -0.4949  0.0148 -0.2858
 1528TIP3    H125999   1.417   3.463  14.700 -1.6614  0.0887 -1.8185
 1528TIP3    H226000   1.466   3.546  14.583  1.0255  0.5067 -0.4846
 1529TIP3   OH226001   3.340   6.452  16.169  0.5833  0.4154  0.0478
 1529TIP3    H126002   3.342   6.548  16.173 -2.2473  0.5010  2.6657
 1529TIP3    H226003   3.294   6.432  16.088 -0.2007  1.3279  0.2560
 1530TIP3   OH226004   4.002   4.144  11.634 -0.3051  0.2060 -0.4549
 1530TIP3    H126005   3.980   4.237  11.629  0.0022  0.2830 -0.3735
 1530TIP3    H226006   3.986   4.111  11.546 -0.5676  0.3018 -0.4430
 1531TIP3   OH226007   6.696   4.643  15.092 -0.4051 -0.0452 -0.1080
 1531TIP3    H126008   6.737   4.681  15.170  0.6942 -1.7037  0.1812
 1531TIP3    H226009   6.769   4.627  15.032 -0.6552 -2.4690  0.1441
 1532TIP3   OH226010   3.495   1.378   0.671 -0.3140 -0.2547  0.2658
 1532TIP3    H126011   3.501   1.330   0.588 -0.6184  0.0587  0.0606
 1532TIP3    H226012   3.474   1.311   0.736  0.4383 -0.5809  0.1759
 1533TIP3   OH226013   6.279   6.521   1.931  0.5419 -0.3596  0.4028
 1533TIP3    H126014   6.248   6.598   1.979  0.5526  0.2009 -0.4594
 1533TIP3    H226015   6.374   6.520   1.946  0.3754 -0.9713  1.4826
 1534TIP3   OH226016   4.310   1.859   1.919  0.2064  0.6273  0.0959
 1534TIP3    H126017   4.365   1.934   1.897 -0.3582  0.1499 -3.4550
 1534TIP3    H226018   4.371   1.788   1.935  0.6729  1.0018 -0.0034
 1535TIP3   OH226019   0.454   6.011  15.778  0.1927  0.6906  0.1670
 1535TIP3    H126020   0.375   5.958  15.774  0.3630  0.2969  1.4301
 1535TIP3    H226021   0.437   6.085  15.719 -0.5903 -0.0510 -0.5538
 1536TIP3   OH226022   4.707   3.419  12.642  0.7692 -0.1640  0.0324
 1536TIP3    H126023   4.729   3.330  12.671  0.4689 -0.5700 -0.9638
 1536TIP3    H226024   4.629   3.409  12.588  0.2191  0.8253  0.6044
 1537TIP3   OH226025   5.798   3.223   5.655  0.1828  0.6886 -0.0198
 1537TIP3    H126026   5.790   3.128   5.670 -2.5815  0.8335 -0.0238
 1537TIP3    H226027   5.799   3.260   5.743  3.3925  0.6438  0.0695
 1538TIP3   OH226028   4.302   6.719   5.011 -0.1633 -0.0238  0.0329
 1538TIP3    H126029   4.216   6.729   4.970 -0.3204 -0.9160  0.1263
 1538TIP3    H226030   4.364   6.721   4.938 -0.3028  0.1053 -0.0835
 1539TIP3   OH226031   1.415   3.996  13.884 -0.8759  0.2490  0.1206
 1539TIP3    H126032   1.480   4.057  13.918  0.0548  0.4440 -1.9003
 1539TIP3    H226033   1.428   3.916  13.935  1.0473  0.2449 -0.3207
 1540TIP3   OH226034   1.549   4.340  12.570  0.6153  0.4646 -0.0467
 1540TIP3    H126035   1.516   4.287  12.498 -0.3591 -0.4092  1.0036
 1540TIP3    H226036   1.501   4.310  12.647  0.7000  2.2309  0.7680
 1541TIP3   OH226037   2.995   5.239   4.890  0.0540  0.7827 -0.0442
 1541TIP3    H126038   2.990   5.207   4.799  0.8622 -1.2481  0.5696
 1541TIP3    H226039   3.064   5.306   4.887 -0.9219  1.8076 -1.1625
 1542TIP3   OH226040   6.547   4.603   4.917 -0.4382 -0.0821  0.3437
 1542TIP3    H126041   6.573   4.679   4.865 -1.3339  0.8952  1.2726
 1542TIP3    H226042   6.539   4.637   5.006 -1.6393 -1.0935  0.6441
 1543TIP3   OH226043   4.155   0.026  13.480 -0.4195 -0.2544 -0.2677
 1543TIP3    H126044   4.198  -0.056  13.503  0.1251 -0.7313 -2.7172
 1543TIP3    H226045   4.065   0.001  13.458 -0.3227 -0.1653 -0.7759
 1544TIP3   OH226046   1.927   0.938   4.138  0.5035 -0.4354 -0.0656
 1544TIP3    H126047   1.920   0.928   4.043  0.3917  2.3494 -0.4500
 1544TIP3    H226048   2.013   0.977   4.151  0.3261 -0.3543  0.9273
 1545TIP3   OH226049   6.419   1.010  13.699 -0.2694  0.0072  0.0968
 1545TIP3    H126050   6.441   1.056  13.618 -1.3902 -0.3238 -0.4104
 1545TIP3    H226051   6.365   1.072  13.748  0.6132  0.3041  0.7333
 1546TIP3   OH226052   1.209   5.985  11.044 -0.2295  0.5258  0.9842
 1546TIP3    H126053   1.290   6.008  11.089  0.7662  1.0818 -0.9739
 1546TIP3    H226054   1.203   5.890  11.053  0.7117  0.4591  1.0498
 1547TIP3   OH226055   5.261   4.282   4.508 -0.2922  0.6612  0.8419
 1547TIP3    H126056   5.249   4.369   4.469  1.1386  1.1557  1.4460
 1547TIP3    H226057   5.172   4.253   4.528 -0.8224  1.8242  0.2997
 1548TIP3   OH226058   1.328   3.786  16.795  0.2516  0.2866  0.2973
 1548TIP3    H126059   1.320   3.696  16.825  1.3814 -0.4117 -1.3797
 1548TIP3    H226060   1.238   3.820  16.796 -0.5709 -1.6661 -1.4565
 1549TIP3   OH226061   6.313   1.365   2.291 -0.0308  0.4222  0.8291
 1549TIP3    H126062   6.373   1.439   2.296  0.2828  0.3893 -1.5059
 1549TIP3    H226063   6.354   1.296   2.343  2.1973  0.2714 -1.0079
 1550TIP3   OH226064   0.421   2.317   2.922  0.1563  0.0149 -0.0849
 1550TIP3    H126065   0.382   2.288   3.004 -0.0986  1.4532  0.3248
 1550TIP3    H226066   0.515   2.306   2.936  0.0250 -1.6988 -0.3898
 1551TIP3   OH226067   3.513   2.011  10.960  0.4824 -0.1649  0.3357
 1551TIP3    H126068   3.429   2.005  11.006 -0.0693 -3.0436 -0.8284
 1551TIP3    H226069   3.569   2.061  11.019 -1.3951 -0.1433  2.2049
 1552TIP3   OH226070   0.769   2.852   1.572  0.2948 -0.3063 -0.1021
 1552TIP3    H126071   0.804   2.872   1.485  1.4415 -1.0260  0.1695
 1552TIP3    H226072   0.813   2.914   1.630  0.5392 -0.6995  0.1387
 1553TIP3   OH226073   3.026   1.571   5.130 -0.0088 -0.0337  0.2990
 1553TIP3    H126074   3.023   1.611   5.217 -0.9740 -3.1385  1.8607
 1553TIP3    H226075   3.119   1.570   5.108  0.2183  1.1855  1.0682
 1554TIP3   OH226076   1.622   2.749   0.613 -0.1532 -0.2578  0.4712
 1554TIP3    H126077   1.605   2.843   0.602  1.2546  0.0465  0.7384
 1554TIP3    H226078   1.630   2.737   0.707 -2.3538 -1.0506  0.5999
 1555TIP3   OH226079   4.189   1.513   0.440  0.2383 -0.5865  0.1807
 1555TIP3    H126080   4.195   1.433   0.492 -0.2526 -0.6257  0.1820
 1555TIP3    H226081   4.128   1.568   0.488  0.0825 -0.4645 -0.1537
 1556TIP3   OH226082   4.394   2.647   6.377 -0.7633  0.0479 -0.0378
 1556TIP3    H126083   4.458   2.581   6.402 -1.2790 -1.4482 -2.3989
 1556TIP3    H226084   4.341   2.605   6.309 -4.2762  1.1940  1.7339
 1557TIP3   OH226085   5.798   4.329  14.199 -0.0532  0.1682 -0.0158
 1557TIP3    H126086   5.849   4.381  14.262 -2.8444  3.2700 -0.0082
 1557TIP3    H226087   5.762   4.257  14.250  2.6589 -1.0108  0.3767
 1558TIP3   OH226088   2.987   3.463   2.245  0.5551  0.8758  0.1345
 1558TIP3    H126089   2.920   3.518   2.206 -1.3487 -0.7780  0.8587
 1558TIP3    H226090   3.038   3.522   2.301  0.4677  2.3856 -1.3111
 1559TIP3   OH226091   0.450   2.250  14.351  0.4357  0.0628 -0.2208
 1559TIP3    H126092   0.528   2.259  14.407  0.6039  3.8689 -0.7882
 1559TIP3    H226093   0.483   2.262  14.262 -0.6131  0.2301 -0.5960
 1560TIP3   OH226094   0.395   4.107   5.820 -0.5598  1.0194  0.4565
 1560TIP3    H126095   0.418   4.074   5.733  1.0479 -0.4048  1.3584
 1560TIP3    H226096   0.395   4.202   5.811 -0.3900  0.8945 -1.0830
 1561TIP3   OH226097   5.161   2.337   4.212  0.2818 -0.5937  0.1286
 1561TIP3    H126098   5.104   2.330   4.136  0.9362 -0.7929 -0.3486
 1561TIP3    H226099   5.215   2.259   4.210 -0.6221 -1.3192  1.5934
 1562TIP3   OH226100   2.876   4.722  12.586  0.4435  0.0763 -0.1952
 1562TIP3    H126101   2.865   4.817  12.595  0.1149  0.1127 -0.9405
 1562TIP3    H226102   2.971   4.709  12.592  0.5408  0.5181 -0.6582
 1563TIP3   OH226103   3.699   2.238  11.491  0.0485  0.4865 -0.0459
 1563TIP3    H126104   3.635   2.172  11.466  0.0223  0.9517 -1.2639
 1563TIP3    H226105   3.706   2.295  11.415  0.0421  1.9208  0.9931
 1564TIP3   OH226106   6.295   0.421   1.620 -0.0638 -0.1606 -0.2515
 1564TIP3    H126107   6.246   0.389   1.544  0.2443  0.4505 -0.7211
 1564TIP3    H226108   6.352   0.489   1.585  1.0073 -0.7345  0.3146
 1565TIP3   OH226109   1.181   2.666  11.850  0.2296 -0.2491  0.8458
 1565TIP3    H126110   1.168   2.728  11.778 -0.4422 -0.7134  0.5589
 1565TIP3    H226111   1.273   2.677  11.874  0.7582 -0.8251 -0.7818
 1566TIP3   OH226112   4.662   2.659   0.938  0.4970  0.1270  0.4765
 1566TIP3    H126113   4.696   2.706   1.014  2.7300 -0.0354 -0.3392
 1566TIP3    H226114   4.687   2.568   0.954  1.7430  0.2077 -0.7663
 1567TIP3   OH226115   5.259   1.166   4.847  0.2474 -0.0155  0.5207
 1567TIP3    H126116   5.351   1.187   4.861  0.0281  1.3370  0.0940
 1567TIP3    H226117   5.260   1.086   4.794  1.2205  0.9709 -1.0257
 1568TIP3   OH226118   1.477   4.536  13.009  0.2179  0.6201  0.0686
 1568TIP3    H126119   1.438   4.525  12.922  0.5464 -3.3722  0.2277
 1568TIP3    H226120   1.504   4.628  13.013 -1.9222  1.5268 -3.0896
 1569TIP3   OH226121   3.388   4.456   0.972  1.0130 -0.0362 -0.2982
 1569TIP3    H126122   3.442   4.440   0.895  1.2999  0.8157 -0.2831
 1569TIP3    H226123   3.447   4.501   1.034  1.5477 -2.8821  1.4409
 1570TIP3   OH226124   3.008   5.051   4.267  0.0958  0.5357 -0.6554
 1570TIP3    H126125   2.968   5.137   4.276 -0.3831  0.4176 -1.5982
 1570TIP3    H226126   2.934   4.990   4.270  0.2487  0.2755 -1.7859
 1571TIP3   OH226127   4.104   0.881   1.730  0.1184 -0.0621  0.4385
 1571TIP3    H126128   4.194   0.904   1.705 -0.1945 -0.0375 -0.7081
 1571TIP3    H226129   4.115   0.813   1.797  1.0144  1.5879  2.0648
 1572TIP3   OH226130   0.541   5.758  14.753  0.0702  0.2725 -0.1349
 1572TIP3    H126131   0.517   5.688  14.691 -1.3012  0.0156  0.6398
 1572TIP3    H226132   0.575   5.712  14.829 -0.4114  0.4514  0.1987
 1573TIP3   OH226133   5.110   5.609  15.393  0.3488 -0.2418  0.2428
 1573TIP3    H126134   5.094   5.579  15.482 -3.0324 -0.4605 -0.3013
 1573TIP3    H226135   5.062   5.691  15.386  1.2660  0.2192 -1.1832
 1574TIP3   OH226136   0.839   0.705   5.592 -1.0096 -0.1919  0.3777
 1574TIP3    H126137   0.863   0.617   5.621 -0.1900  0.2205  1.0109
 1574TIP3    H226138   0.869   0.709   5.501 -2.3685 -1.0375 -0.1356
 1575TIP3   OH226139   6.056   4.837  16.269 -0.4246  0.3426 -0.0334
 1575TIP3    H126140   6.010   4.884  16.338 -2.0555 -2.0627  0.6256
 1575TIP3    H226141   6.140   4.812  16.309 -0.7209  0.2793  0.5584
 1576TIP3   OH226142   5.873   3.196  16.061 -0.0523 -0.2057  0.3512
 1576TIP3    H126143   5.853   3.278  16.014  0.5947 -0.3145 -0.1253
 1576TIP3    H226144   5.909   3.139  15.994  2.5182  0.2128  1.2848
 1577TIP3   OH226145   5.405   4.506  13.276  0.6562 -0.2052  0.1501
 1577TIP3    H126146   5.435   4.486  13.187  0.1687  1.6540 -0.4829
 1577TIP3    H226147   5.312   4.485  13.275  0.1218  1.9408 -0.5445
 1578TIP3   OH226148   3.309   1.015  13.974  0.1690  0.1260  0.3315
 1578TIP3    H126149   3.353   1.084  14.023 -2.6401  1.0473  1.8039
 1578TIP3    H226150   3.228   1.056  13.943 -0.5490 -1.9067 -0.6323
 1579TIP3   OH226151   5.724   1.111   4.787 -0.5172 -0.8459 -0.6640
 1579TIP3    H126152   5.723   1.021   4.820  0.2507 -0.3310  0.8905
 1579TIP3    H226153   5.812   1.123   4.754  0.5030  0.2666  2.1294
 1580TIP3   OH226154   2.773   3.136  16.613  0.2830 -0.2962 -0.0939
 1580TIP3    H126155   2.826   3.136  16.533 -0.7442  1.0870 -0.8140
 1580TIP3    H226156   2.683   3.149  16.582 -0.2048 -0.3364  1.2557
 1581TIP3   OH226157   4.086   0.910   1.296 -0.0830  0.4172 -0.3529
 1581TIP3    H126158   4.099   0.878   1.207  1.1467 -1.1862  0.3456
 1581TIP3    H226159   4.008   0.965   1.291  0.3692  0.9232 -2.5320
 1582TIP3   OH226160   3.289   4.925   2.743 -0.2647 -0.0929  0.2039
 1582TIP3    H126161   3.288   5.012   2.703  1.9960 -0.5703 -1.0874
 1582TIP3    H226162   3.248   4.938   2.828  0.2671  2.3184  0.1864
 1583TIP3   OH226163   0.461   0.295   0.521  0.6648  0.1451 -0.4816
 1583TIP3    H126164   0.432   0.315   0.432  0.6941  1.1720 -0.2715
 1583TIP3    H226165   0.556   0.306   0.518  0.6554  0.2792 -0.3031
 1584TIP3   OH226166   3.398   5.912   5.976 -0.0465 -0.4130 -0.0790
 1584TIP3    H126167   3.475   5.969   5.978 -0.5107  0.2079  0.7065
 1584TIP3    H226168   3.362   5.917   6.065 -1.5241  0.0324 -0.6829
 1585TIP3   OH226169   1.276   5.784  17.327 -0.3497 -0.4727  0.3758
 1585TIP3    H126170   1.215   5.857  17.334 -1.2352 -0.8728 -2.0815
 1585TIP3    H226171   1.230   5.710  17.366 -0.8460 -0.4367 -0.1282
 1586TIP3   OH226172   5.628   2.241  12.574  0.1933  0.4546 -0.5887
 1586TIP3    H126173   5.659   2.199  12.655  0.6651  1.1494 -0.4025
 1586TIP3    H226174   5.656   2.332  12.582  0.5291  0.4532 -1.6918
 1587TIP3   OH226175   3.927   6.002  15.612 -0.0507  0.3697 -0.1032
 1587TIP3    H126176   3.880   5.954  15.681 -2.2655  0.7251 -1.2856
 1587TIP3    H226177   3.871   5.994  15.535  2.3802 -0.0459 -1.9281
 1588TIP3   OH226178   0.614   6.596   5.430 -0.4050 -0.2196 -0.2007
 1588TIP3    H126179   0.556   6.528   5.465  1.2235 -2.3178 -1.3297
 1588TIP3    H226180   0.605   6.589   5.335 -0.4024  1.3851 -0.3547
 1589TIP3   OH226181   3.825   4.306  10.986 -0.0694 -0.2029  0.3595
 1589TIP3    H126182   3.793   4.392  10.958  0.3969  0.5371  1.9431
 1589TIP3    H226183   3.777   4.288  11.067 -0.2735 -1.5282 -0.0302
 1590TIP3   OH226184   4.157   0.515  15.732 -0.2699  0.3505  0.2549
 1590TIP3    H126185   4.089   0.460  15.695  0.1334  0.1914 -0.2544
 1590TIP3    H226186   4.113   0.597  15.753 -0.2543  0.9375 -1.7911
 1591TIP3   OH226187   3.964   0.013  17.029  0.2899  0.1918  0.3173
 1591TIP3    H126188   3.875   0.044  17.042  0.8032  1.5314  0.8521
 1591TIP3    H226189   3.989  -0.028  17.112 -0.8006 -2.9495 -0.7519
 1592TIP3   OH226190   0.978   1.420   2.960 -0.2823  0.0781 -0.5079
 1592TIP3    H126191   1.066   1.383   2.959  0.1019  0.9300  0.2090
 1592TIP3    H226192   0.921   1.347   2.934  0.4440 -1.0145  0.7930
 1593TIP3   OH226193   6.637   5.460   1.026 -0.1458  0.2658  0.1469
 1593TIP3    H126194   6.705   5.450   1.093 -0.1154  1.4719  0.3109
 1593TIP3    H226195   6.564   5.408   1.058 -0.0612  0.6701  1.0241
 1594TIP3   OH226196   1.505   3.045  14.745  0.3380 -0.0059 -0.2125
 1594TIP3    H126197   1.522   3.120  14.802  1.9245  0.2140 -0.9020
 1594TIP3    H226198   1.533   2.970  14.797  0.0475  0.0135 -0.0259
 1595TIP3   OH226199   2.241   0.666  10.596 -0.3003  0.3946 -0.0577
 1595TIP3    H126200   2.332   0.676  10.568 -0.6268  0.8545 -0.9901
 1595TIP3    H226201   2.196   0.742  10.559 -0.6153  1.5240  2.4256
 1596TIP3   OH226202   1.637   1.185  12.947 -0.2763  0.0338 -0.0747
 1596TIP3    H126203   1.620   1.091  12.952  2.4921 -0.5140  1.4957
 1596TIP3    H226204   1.724   1.196  12.987  0.4525  3.0034 -2.0788
 1597TIP3   OH226205   5.181   0.540  14.739  0.5754 -0.1209 -0.1784
 1597TIP3    H126206   5.111   0.505  14.684  0.4144 -0.8808  0.4890
 1597TIP3    H226207   5.208   0.620  14.695 -3.7136  2.7729  1.8226
 1598TIP3   OH226208   0.302   1.780   2.226 -0.1123 -0.6120 -0.0687
 1598TIP3    H126209   0.254   1.839   2.284 -0.2000 -0.5053 -0.2475
 1598TIP3    H226210   0.346   1.838   2.164  3.0337 -0.4737  2.1135
 1599TIP3   OH226211   1.409   2.844  16.395 -0.5524  0.3122  0.4407
 1599TIP3    H126212   1.466   2.767  16.393  0.3943  1.0202 -0.3088
 1599TIP3    H226213   1.330   2.816  16.348  0.1255  0.0580 -0.5745
 1600TIP3   OH226214   0.445   1.454  17.157  0.2093 -0.1763  0.2072
 1600TIP3    H126215   0.453   1.487  17.247  1.9817  0.8601 -0.2808
 1600TIP3    H226216   0.370   1.501  17.121  1.4879  1.9259  0.1578
 1601TIP3   OH226217   3.120   5.940   3.278  0.0007  0.3012 -0.4074
 1601TIP3    H126218   3.123   5.974   3.368 -0.2478  1.3591 -0.7791
 1601TIP3    H226219   3.168   5.858   3.281  0.7149  0.7433  0.5213
 1602TIP3   OH226220   6.501   1.459  14.223 -0.0271 -0.3523  1.4212
 1602TIP3    H126221   6.433   1.479  14.288  0.0063  1.9622  0.8383
 1602TIP3    H226222   6.512   1.541  14.174  0.0659 -1.9476 -1.4329
 1603TIP3   OH226223   1.435   5.014  12.901  0.2260 -0.4566 -0.0340
 1603TIP3    H126224   1.485   5.051  12.828  2.2892 -2.9491 -0.0196
 1603TIP3    H226225   1.368   4.960  12.859 -0.1713  0.0629 -0.0698
 1604TIP3   OH226226   5.505   4.105   4.521 -0.1747  0.5073 -0.5982
 1604TIP3    H126227   5.433   4.159   4.489 -2.2318 -2.1560 -0.8797
 1604TIP3    H226228   5.493   4.101   4.616 -1.4571 -1.1414 -0.7700
 1605TIP3   OH226229   3.134   5.599   4.927 -0.2008 -0.1365  0.3912
 1605TIP3    H126230   3.147   5.610   4.832 -0.7647 -0.2932  0.2902
 1605TIP3    H226231   3.040   5.590   4.937 -0.1671  0.1441  1.0043
 1606TIP3   OH226232   4.561   1.399   3.572 -0.1788 -0.1039 -0.1174
 1606TIP3    H126233   4.625   1.377   3.505  2.8095 -1.8173  2.9623
 1606TIP3    H226234   4.554   1.319   3.625 -2.2454  1.1510  1.6852
 1607TIP3   OH226235   1.951   1.868   1.140 -0.4292 -0.1851 -0.1218
 1607TIP3    H126236   1.889   1.922   1.093  1.2761  0.5063 -1.7178
 1607TIP3    H226237   1.910   1.782   1.145 -1.5952  0.3088 -0.9186
 1608TIP3   OH226238   2.705   3.434   1.346 -0.1861 -0.5749 -0.2186
 1608TIP3    H126239   2.665   3.364   1.398 -1.2141  0.7112  0.7939
 1608TIP3    H226240   2.774   3.469   1.403  1.3233 -1.6312 -1.2803
 1609TIP3   OH226241   3.370   3.659  16.189  0.5737 -0.1725  0.0087
 1609TIP3    H126242   3.292   3.696  16.148 -0.1612 -3.1675 -1.6040
 1609TIP3    H226243   3.441   3.716  16.163 -0.8832  2.0438  0.6358
 1610TIP3   OH226244   4.604   2.170  14.147 -1.1376  0.1637 -0.3011
 1610TIP3    H126245   4.652   2.230  14.089 -1.9398  2.2570  1.1085
 1610TIP3    H226246   4.524   2.149  14.098 -1.9628  2.1698  0.1109
 1611TIP3   OH226247   5.921   1.420   4.174  0.0364  0.7587  0.4870
 1611TIP3    H126248   5.877   1.472   4.106  0.7172  0.5492 -0.1240
 1611TIP3    H226249   6.014   1.430   4.155  0.1943 -0.3972  0.5829
 1612TIP3   OH226250   3.856   2.040  13.088 -0.1912  0.1708  0.4290
 1612TIP3    H126251   3.909   2.010  13.014 -1.6504 -2.0552  0.1917
 1612TIP3    H226252   3.771   1.998  13.076 -0.5609 -0.1329  3.2565
 1613TIP3   OH226253   5.585   2.455   0.482 -0.2762 -0.1407  0.6601
 1613TIP3    H126254   5.640   2.495   0.415 -0.4532  1.5514  1.4731
 1613TIP3    H226255   5.644   2.444   0.557 -0.1674 -1.6853  0.3737
 1614TIP3   OH226256   0.633   4.179  15.168  0.7620 -0.8265  0.5587
 1614TIP3    H126257   0.583   4.171  15.087  0.2283  0.2078  0.7715
 1614TIP3    H226258   0.573   4.153  15.237  1.1287 -1.4379  0.6515
 1615TIP3   OH226259   6.461   3.858   3.034  0.4583  0.3584  0.0055
 1615TIP3    H126260   6.374   3.836   2.999 -0.3619  1.8835  0.9673
 1615TIP3    H226261   6.507   3.900   2.962  1.0353 -1.8558 -1.0046
 1616TIP3   OH226262   1.501   4.541  11.446  0.9439  0.1214  0.7972
 1616TIP3    H126263   1.459   4.484  11.510  1.2568  0.1035  0.9862
 1616TIP3    H226264   1.435   4.552  11.377  1.7798 -2.5936 -0.5660
 1617TIP3   OH226265   2.714   0.492  12.425 -0.6372  0.2187  0.9592
 1617TIP3    H126266   2.631   0.506  12.469 -0.3966  1.3484  1.0805
 1617TIP3    H226267   2.755   0.420  12.473 -0.2936  1.5360  2.7452
 1618TIP3   OH226268   1.118   0.280   1.496 -0.5306 -0.1175  0.1962
 1618TIP3    H126269   1.135   0.372   1.517 -0.4055 -0.6519  2.7366
 1618TIP3    H226270   1.185   0.232   1.544  0.5934 -1.5303 -2.5528
 1619TIP3   OH226271   3.633   4.493   5.119 -0.0538  0.3570  0.6665
 1619TIP3    H126272   3.546   4.530   5.130  0.1674  1.5410 -1.2459
 1619TIP3    H226273   3.644   4.437   5.196 -1.7570  1.5951  1.9057
 1620TIP3   OH226274   0.129   3.907  15.887  0.4030 -0.1595 -0.4150
 1620TIP3    H126275   0.130   3.980  15.949 -1.2303 -1.1590  0.8894
 1620TIP3    H226276   0.221   3.887  15.872  0.9089 -0.8130  2.8916
 1621TIP3   OH226277   1.301   4.550   0.010  0.6000  0.4499  0.0057
 1621TIP3    H126278   1.288   4.555   0.105  0.0785  3.0605 -0.1282
 1621TIP3    H226279   1.390   4.583  -0.003  0.3398  0.9806 -0.4582
 1622TIP3   OH226280   6.111   1.310  16.986 -0.2237  0.0564 -0.1742
 1622TIP3    H126281   6.048   1.351  16.927 -0.2099  2.4425  1.3440
 1622TIP3    H226282   6.196   1.324  16.944 -0.3790  0.0080 -0.5089
 1623TIP3   OH226283   1.913   5.279  15.756 -0.0736  0.7970 -0.0175
 1623TIP3    H126284   1.995   5.250  15.715  0.5213  0.2173  1.4975
 1623TIP3    H226285   1.941   5.332  15.831 -1.0325 -0.2549  1.1380
 1624TIP3   OH226286   2.594   2.120  16.245 -0.4240 -0.2313  0.4618
 1624TIP3    H126287   2.635   2.108  16.331  1.6450 -2.1146 -0.6626
 1624TIP3    H226288   2.550   2.038  16.227  1.2172 -0.8405 -1.2020
 1625TIP3   OH226289   3.656   5.020   2.670  0.1684 -0.2289  0.5086
 1625TIP3    H126290   3.664   4.946   2.730  1.5540  0.0966  0.7688
 1625TIP3    H226291   3.746   5.050   2.657 -0.1275 -0.0304 -1.4241
 1626TIP3   OH226292   5.015   5.395  16.394 -0.2218 -0.1782  0.0783
 1626TIP3    H126293   5.095   5.437  16.426  0.1302  0.3557 -1.4386
 1626TIP3    H226294   5.043   5.310  16.362  0.1600  0.7453 -2.2571
 1627TIP3   OH226295   4.460   4.856   4.579  0.1661 -0.4984  0.0408
 1627TIP3    H126296   4.520   4.891   4.645  1.0409 -3.2610  0.8520
 1627TIP3    H226297   4.422   4.778   4.620 -0.0770 -1.7092 -2.3019
 1628TIP3   OH226298   3.104   1.010  12.442  0.2221  0.1287  0.2749
 1628TIP3    H126299   3.199   1.017  12.430  0.0969  0.8851 -0.4140
 1628TIP3    H226300   3.068   1.020  12.353 -0.5344  0.8501  0.6425
 1629TIP3   OH226301   4.765   1.149  12.913  0.2043 -0.7816  0.2682
 1629TIP3    H126302   4.775   1.240  12.887 -0.5141 -0.6926  0.2832
 1629TIP3    H226303   4.799   1.146  13.002 -2.2287  0.0930  1.3363
 1630TIP3   OH226304   2.623   5.459   5.657 -0.2386 -0.3163 -0.6236
 1630TIP3    H126305   2.666   5.386   5.703 -1.3634 -0.8520 -0.3960
 1630TIP3    H226306   2.695   5.508   5.618  0.5321 -1.6888 -0.9757
 1631TIP3   OH226307   6.040   2.384   0.371  1.0571  0.4133  0.2812
 1631TIP3    H126308   6.040   2.367   0.466 -2.7176 -1.2114  0.1835
 1631TIP3    H226309   5.984   2.461   0.361  1.4123  0.5583 -0.6481
 1632TIP3   OH226310   5.106   4.394   3.695  1.0416 -0.1788 -0.8547
 1632TIP3    H126311   5.195   4.409   3.727  0.6931 -1.1228  0.6658
 1632TIP3    H226312   5.050   4.421   3.768  0.1508 -1.1974 -1.1469
 1633TIP3   OH226313   4.078   5.978  12.697 -0.3889 -0.6794 -0.1028
 1633TIP3    H126314   4.065   6.011  12.608 -3.5702  0.6807  0.7423
 1633TIP3    H226315   4.144   6.036  12.735  0.4700 -0.8328 -1.3139
 1634TIP3   OH226316   4.332   0.871  11.423 -0.3753 -0.0613 -0.0355
 1634TIP3    H126317   4.243   0.899  11.400 -1.1045 -1.2278  1.1638
 1634TIP3    H226318   4.334   0.876  11.519  0.6741 -0.5434 -0.0268
 1635TIP3   OH226319   5.566   5.081   4.426  0.0164 -0.3211  0.3743
 1635TIP3    H126320   5.647   5.132   4.429 -0.1540  0.0364 -0.6617
 1635TIP3    H226321   5.583   5.013   4.360 -0.7125  0.1032 -0.2655
 1636TIP3   OH226322   5.925   4.879   3.340 -0.6081 -0.1840 -0.4477
 1636TIP3    H126323   5.911   4.794   3.382  0.4104 -1.8008 -3.1402
 1636TIP3    H226324   5.875   4.874   3.259 -1.6155  2.3795 -0.0810
 1637TIP3   OH226325   5.959   2.135  17.177 -0.0647 -0.3249  0.1111
 1637TIP3    H126326   6.025   2.070  17.152  0.5519 -0.4397  1.8980
 1637TIP3    H226327   6.008   2.216  17.191 -0.6189  0.1468 -0.5894
 1638TIP3   OH226328   3.864   1.322   2.804  0.3188 -0.1017  0.1575
 1638TIP3    H126329   3.885   1.318   2.897  0.2149  1.0791  0.2483
 1638TIP3    H226330   3.804   1.396   2.796  1.8561  1.0899 -1.1067
 1639TIP3   OH226331   3.783   3.505  13.560 -0.0340 -0.5963  0.3063
 1639TIP3    H126332   3.784   3.599  13.539 -0.6321 -0.4419  0.9154
 1639TIP3    H226333   3.726   3.466  13.494 -1.1506 -0.2581  1.0334
 1640TIP3   OH226334   6.111   6.177   4.067 -0.3845  0.0935 -0.2220
 1640TIP3    H126335   6.179   6.111   4.061  0.9815  1.5430 -1.3013
 1640TIP3    H226336   6.050   6.142   4.132  1.7656 -0.9024  1.3869
 1641TIP3   OH226337   3.886   0.246  12.617 -0.4713 -0.7183  0.0353
 1641TIP3    H126338   3.908   0.204  12.534  0.7269  2.2417 -1.2876
 1641TIP3    H226339   3.971   0.263  12.658 -0.9755 -0.5663  1.0323
 1642TIP3   OH226340   6.317   1.757  10.629  0.0956 -0.3829  0.0823
 1642TIP3    H126341   6.333   1.680  10.575  1.3451  0.9844 -1.6306
 1642TIP3    H226342   6.332   1.727  10.719 -0.1638 -2.2811 -0.4750
 1643TIP3   OH226343   5.117   4.975   2.033 -0.3904  0.0925  0.2144
 1643TIP3    H126344   5.096   4.882   2.043 -0.8202  0.1037 -0.5134
 1643TIP3    H226345   5.160   4.998   2.115  1.2837 -1.1605 -0.2658
 1644TIP3   OH226346   5.889   3.198  13.476 -0.1746 -0.2425  0.5879
 1644TIP3    H126347   5.970   3.157  13.509  1.1268  0.8234 -1.1611
 1644TIP3    H226348   5.900   3.291  13.494 -1.0617 -0.0936  0.4007
 1645TIP3   OH226349   5.100   4.828  12.843 -0.1240  0.3900  0.0654
 1645TIP3    H126350   5.189   4.844  12.813 -0.4753 -0.1453 -1.3207
 1645TIP3    H226351   5.111   4.781  12.926  0.8742  0.6511  0.0982
 1646TIP3   OH226352   6.596   3.845  11.903 -0.0505 -0.0370 -0.6629
 1646TIP3    H126353   6.601   3.937  11.929  0.3153 -0.3246  0.3542
 1646TIP3    H226354   6.503   3.825  11.903 -0.0698 -0.2337  1.3675
 1647TIP3   OH226355   0.046   6.437   1.298 -0.0184  0.1690  0.5050
 1647TIP3    H126356   0.030   6.375   1.369  0.6520  0.1844  0.6784
 1647TIP3    H226357  -0.004   6.403   1.224 -1.1839  0.4627  1.1345
 1648TIP3   OH226358   1.542   0.337   1.720 -0.2038 -0.0166 -0.1655
 1648TIP3    H126359   1.553   0.398   1.793  1.5367 -0.0138 -0.3964
 1648TIP3    H226360   1.494   0.263   1.758 -0.7633  0.6911  0.5563
 1649TIP3   OH226361   3.505   1.988  17.170  0.0314  0.0036 -0.3415
 1649TIP3    H126362   3.412   1.975  17.188  0.1666 -1.0654 -0.3641
 1649TIP3    H226363   3.541   2.024  17.251 -0.5849  1.4633 -0.6760
 1650TIP3   OH226364   3.295   3.098   5.096 -0.1956  0.0602 -0.0955
 1650TIP3    H126365   3.327   3.187   5.079  0.2370  0.2702  1.6394
 1650TIP3    H226366   3.353   3.064   5.164 -1.2557 -1.0227  0.3131
 1651TIP3   OH226367   4.579   4.594   1.107  0.7099 -0.3196  0.1919
 1651TIP3    H126368   4.505   4.633   1.153  0.5852 -1.4373  0.9741
 1651TIP3    H226369   4.623   4.668   1.065 -2.0521  0.2131 -2.1298
 1652TIP3   OH226370   3.349   2.509  14.685  0.5563 -0.4801 -0.4637
 1652TIP3    H126371   3.258   2.482  14.674  1.1870 -2.5832 -1.0191
 1652TIP3    H226372   3.367   2.563  14.608  0.0867 -1.0434 -0.9850
 1653TIP3   OH226373   5.256   4.872   4.714  0.3327 -0.1551  0.1229
 1653TIP3    H126374   5.209   4.834   4.788  1.6492 -0.9162  0.6059
 1653TIP3    H226375   5.243   4.810   4.642  2.0270 -1.3214  0.7593
 1654TIP3   OH226376   2.015   1.789  13.217 -0.0310 -0.3706 -0.4302
 1654TIP3    H126377   2.098   1.818  13.253  0.5108 -1.3499 -0.8346
 1654TIP3    H226378   2.034   1.702  13.180 -0.8380  0.0565 -1.9465
 1655TIP3   OH226379   4.041   0.888  15.234 -0.1439  0.1443  0.2927
 1655TIP3    H126380   3.981   0.961  15.221 -2.9935 -1.8805  0.8952
 1655TIP3    H226381   4.093   0.911  15.311 -0.4818  1.7784  0.0544
 1656TIP3   OH226382   5.679   5.702   3.386  0.3002  0.1246  0.3966
 1656TIP3    H126383   5.598   5.672   3.344  2.2749  1.0062 -4.6730
 1656TIP3    H226384   5.742   5.633   3.367  1.5206  0.9014  1.4998
 1657TIP3   OH226385   0.241   1.412  13.509  0.3733 -0.3921  0.7391
 1657TIP3    H126386   0.180   1.346  13.476  0.2523 -0.0001  0.1648
 1657TIP3    H226387   0.218   1.492  13.461  1.3673 -0.2491  0.4858
 1658TIP3   OH226388   6.070   5.328   3.065 -0.2973  0.9514 -0.1373
 1658TIP3    H126389   6.096   5.401   3.120 -3.3113  1.0636  1.3270
 1658TIP3    H226390   6.103   5.251   3.110  0.9014  1.2536 -0.4695
 1659TIP3   OH226391   0.475   6.390  14.807 -0.3097  0.5884 -0.1323
 1659TIP3    H126392   0.566   6.415  14.821  0.6243 -1.5443 -1.7151
 1659TIP3    H226393   0.455   6.423  14.719  0.1350 -1.7339 -1.1986
 1660TIP3   OH226394   4.019   2.203  14.587 -0.1913 -0.5944  0.4425
 1660TIP3    H126395   4.007   2.282  14.533 -1.4843 -1.2145 -0.2179
 1660TIP3    H226396   4.103   2.168  14.560  0.4755  0.6294  0.8483
 1661TIP3   OH226397   1.604   2.001  15.743  0.3277  0.0575  0.0666
 1661TIP3    H126398   1.582   1.927  15.687 -0.0168  0.9357 -1.0217
 1661TIP3    H226399   1.615   1.964  15.830  0.6119 -1.3243 -0.5331
 1662TIP3   OH226400   1.916   2.113   4.648 -0.2227  0.0318 -0.0434
 1662TIP3    H126401   1.864   2.193   4.661 -0.5214  0.1359 -1.6466
 1662TIP3    H226402   1.883   2.052   4.713 -0.0466  1.1638  1.1710
 1663TIP3   OH226403   6.699   1.675  17.023 -0.0758 -0.0565 -0.1554
 1663TIP3    H126404   6.623   1.630  17.059 -0.1756 -0.1028 -0.4246
 1663TIP3    H226405   6.713   1.634  16.937  0.2350 -0.0306 -0.1177
 1664TIP3   OH226406   0.874   4.445   5.585  0.4109 -0.1363 -0.4569
 1664TIP3    H126407   0.837   4.421   5.671 -0.8532 -0.6912 -1.1245
 1664TIP3    H226408   0.946   4.384   5.572  0.9748  0.3153  0.4440
 1665TIP3   OH226409   6.465   4.544  17.263  0.2578  0.2178  0.1892
 1665TIP3    H126410   6.539   4.602  17.249  0.9627 -0.7730 -0.3440
 1665TIP3    H226411   6.391   4.602  17.280  1.3026  1.2106  1.5153
 1666TIP3   OH226412   1.041   5.085  12.840 -0.3139  0.0287  0.0828
 1666TIP3    H126413   1.046   5.082  12.936 -0.0991  1.5667  0.1449
 1666TIP3    H226414   0.983   5.159  12.822  1.2984  1.0910 -0.9742
 1667TIP3   OH226415   6.165   5.924  14.039 -0.5085 -0.0192  0.3284
 1667TIP3    H126416   6.221   5.933  14.116 -0.0936 -0.4619  0.0860
 1667TIP3    H226417   6.151   5.829  14.031 -0.8350  0.0493  0.0624
 1668TIP3   OH226418   4.680   6.741   5.567 -0.2814 -0.1076  0.0493
 1668TIP3    H126419   4.705   6.649   5.558  1.8673  0.5494 -1.4151
 1668TIP3    H226420   4.679   6.756   5.661  2.5353 -0.8958  0.3020
 1669TIP3   OH226421   3.210   4.052  16.533  0.2949 -0.5016  0.4634
 1669TIP3    H126422   3.298   4.043  16.496  0.3864  1.3299  0.1420
 1669TIP3    H226423   3.151   4.042  16.458  0.3526  0.5040  0.2732
 1670TIP3   OH226424   0.054   3.767  13.471  0.9587  0.1385 -0.6146
 1670TIP3    H126425   0.060   3.861  13.490 -1.3281  0.2525 -0.1248
 1670TIP3    H226426   0.140   3.744  13.437  2.9429  1.5657  2.8167
 1671TIP3   OH226427   5.145   2.743   3.905  0.1599 -0.1233 -0.2362
 1671TIP3    H126428   5.081   2.791   3.853  0.7903 -1.4177 -2.3384
 1671TIP3    H226429   5.145   2.786   3.990 -0.5491  2.4467 -1.4504
 1672TIP3   OH226430   0.430   6.410  16.012 -0.3838 -0.4183  0.1438
 1672TIP3    H126431   0.450   6.444  15.924 -2.7474 -1.3220 -0.8311
 1672TIP3    H226432   0.395   6.323  15.997 -0.1064 -0.9183  2.0981
 1673TIP3   OH226433   3.188   2.812  15.229  0.1263 -0.5095 -0.2363
 1673TIP3    H126434   3.105   2.831  15.185 -0.4719 -3.6682 -0.6782
 1673TIP3    H226435   3.164   2.759  15.304  1.7676 -2.6114 -1.1031
 1674TIP3   OH226436   4.770   5.996  14.152 -0.3742  0.2018  0.1297
 1674TIP3    H126437   4.796   5.984  14.061  1.0594  0.6532  0.4524
 1674TIP3    H226438   4.795   5.914  14.195 -0.5769  0.1857  0.2162
 1675TIP3   OH226439   1.483   0.258   1.022  0.4037  0.0864 -0.6596
 1675TIP3    H126440   1.458   0.327   0.960  0.4914  1.9283  1.2727
 1675TIP3    H226441   1.557   0.214   0.980  1.0464  1.8755 -1.4807
 1676TIP3   OH226442   0.555   0.581   4.950  0.3724  0.2487  0.2340
 1676TIP3    H126443   0.486   0.612   5.008 -0.1208  0.2718 -0.3609
 1676TIP3    H226444   0.583   0.659   4.902  1.5374  0.4539  1.2020
 1677TIP3   OH226445   5.817   5.167   2.459  0.6279 -0.7358 -0.3575
 1677TIP3    H126446   5.900   5.206   2.488  0.2374 -1.9188  2.7658
 1677TIP3    H226447   5.842   5.087   2.413  1.2379 -0.1740 -1.0209
 1678TIP3   OH226448   5.332   2.923   6.185  0.0480 -0.1128 -0.3261
 1678TIP3    H126449   5.253   2.924   6.131 -0.7404 -1.3997  0.7570
 1678TIP3    H226450   5.396   2.973   6.134 -1.3160  0.5776 -1.4290
 1679TIP3   OH226451   4.997   3.824  17.081  0.4797  0.1202  0.0847
 1679TIP3    H126452   4.993   3.887  17.153 -0.0158  1.1631 -0.8185
 1679TIP3    H226453   4.935   3.755  17.105 -1.3274  1.5190 -0.2705
 1680TIP3   OH226454   3.745   3.054   2.136  0.2061  0.3366  0.2274
 1680TIP3    H126455   3.765   2.986   2.200 -0.7842  0.6321  0.8808
 1680TIP3    H226456   3.810   3.122   2.152 -1.5364  1.5769  2.7547
 1681TIP3   OH226457   5.725   0.357  16.566 -0.5763  0.3306 -0.0267
 1681TIP3    H126458   5.788   0.388  16.501 -0.0331 -3.4947 -1.5899
 1681TIP3    H226459   5.642   0.354  16.520 -0.5637 -0.5973 -0.0257
 1682TIP3   OH226460   0.400   0.343   0.232 -0.1590 -0.0975  0.2396
 1682TIP3    H126461   0.368   0.311   0.148 -1.4213  0.1577  0.5964
 1682TIP3    H226462   0.481   0.390   0.211 -0.0789 -0.6478 -0.7252
 1683TIP3   OH226463   1.409   1.977  12.741 -0.0052 -0.0305 -0.5162
 1683TIP3    H126464   1.354   2.020  12.806 -0.1306 -1.0947  0.0910
 1683TIP3    H226465   1.458   1.911  12.790  0.1071 -0.6576 -1.4473
 1684TIP3   OH226466   5.752   4.394   5.407 -0.1689 -0.3460  0.1661
 1684TIP3    H126467   5.786   4.425   5.323 -2.0061  0.7809 -0.2137
 1684TIP3    H226468   5.743   4.472   5.460 -1.9617 -0.5959  0.2939
 1685TIP3   OH226469   0.076   4.322   6.164  0.2630  0.5615  0.1591
 1685TIP3    H126470   0.157   4.356   6.203  0.9966 -1.4849  0.5385
 1685TIP3    H226471   0.105   4.272   6.088 -0.5927 -0.6096  0.5860
 1686TIP3   OH226472   1.744   2.161   2.655 -0.1422  0.6900 -0.1788
 1686TIP3    H126473   1.704   2.109   2.724 -1.8000  2.1156 -0.0020
 1686TIP3    H226474   1.681   2.158   2.583  0.6058  0.9078 -0.8639
 1687TIP3   OH226475   1.183   0.564  15.609 -0.0100  0.4137  0.0114
 1687TIP3    H126476   1.179   0.617  15.530  1.0836  0.8420  0.2219
 1687TIP3    H226477   1.115   0.601  15.666  0.9035  1.7966  0.2603
 1688TIP3   OH226478   5.947   4.695  10.878 -0.3577 -0.7310 -0.0002
 1688TIP3    H126479   6.029   4.738  10.903  0.0180 -1.4495  0.0507
 1688TIP3    H226480   5.939   4.623  10.941 -2.7909  1.2927  2.2271
 1689TIP3   OH226481   3.914   4.405   1.667 -0.5343  0.1952 -0.3075
 1689TIP3    H126482   3.930   4.468   1.597  0.3082  0.8150  0.4130
 1689TIP3    H226483   3.882   4.457   1.740  0.0443 -0.2126  0.2558
 1690TIP3   OH226484   2.567   0.372   1.601  0.8743  0.0641  0.2670
 1690TIP3    H126485   2.600   0.289   1.635 -1.0910 -0.6932  0.4972
 1690TIP3    H226486   2.523   0.348   1.519  0.8823  1.0080 -0.0314
 1691TIP3   OH226487   4.545   5.353   1.716  0.2401  0.2566 -0.4203
 1691TIP3    H126488   4.490   5.422   1.680  0.4712  0.0299 -1.2353
 1691TIP3    H226489   4.634   5.377   1.689  0.4987  0.3934  0.5165
 1692TIP3   OH226490   1.933   1.530   6.732 -0.4891 -0.2456 -0.1324
 1692TIP3    H126491   1.909   1.504   6.643  0.5221 -0.3353 -0.3883
 1692TIP3    H226492   1.902   1.459   6.787 -0.9262 -0.2927 -0.4350
 1693TIP3   OH226493   1.277   6.069   3.054 -0.4679  0.1198 -0.0616
 1693TIP3    H126494   1.235   6.071   3.140  1.0601 -0.0441  0.7305
 1693TIP3    H226495   1.261   6.156   3.017  0.5979  0.9408  1.3113
 1694TIP3   OH226496   5.794   6.377  14.598  0.0878 -0.3994  0.5280
 1694TIP3    H126497   5.784   6.344  14.688 -0.8428 -0.5527  0.3811
 1694TIP3    H226498   5.725   6.334  14.549  1.4972 -1.4707 -0.6101
 1695TIP3   OH226499   5.398   5.416   3.391 -0.3642  0.0564 -0.2553
 1695TIP3    H126500   5.426   5.479   3.457 -0.4018 -0.1275 -0.0614
 1695TIP3    H226501   5.351   5.468   3.326  1.1971  0.5137 -1.0665
 1696TIP3   OH226502   2.645   0.910   6.307 -0.3542  0.4978 -0.2154
 1696TIP3    H126503   2.651   1.003   6.331 -0.3481  1.3326 -3.0375
 1696TIP3    H226504   2.553   0.896   6.288 -0.6681 -0.6246  1.9323
 1697TIP3   OH226505   5.929   3.146  11.262 -0.3900  0.0079 -0.1890
 1697TIP3    H126506   5.898   3.159  11.172 -1.6425 -2.0652 -0.1042
 1697TIP3    H226507   5.901   3.224  11.309 -0.1369  0.9035 -1.4728
 1698TIP3   OH226508   2.874   5.732  15.717 -0.4980 -0.5217  0.4811
 1698TIP3    H126509   2.897   5.765  15.630 -1.7305 -0.6567  0.0868
 1698TIP3    H226510   2.867   5.638  15.706  1.0338 -0.7567  1.1529
 1699TIP3   OH226511   1.212   6.435   2.590  0.8859 -0.2628 -0.0599
 1699TIP3    H126512   1.148   6.385   2.641  1.4510  0.0123  0.9324
 1699TIP3    H226513   1.256   6.490   2.654 -0.4972  2.4036 -1.2201
 1700TIP3   OH226514   2.738   6.618   5.148 -0.2816 -0.2747 -0.3061
 1700TIP3    H126515   2.770   6.532   5.119 -0.3791 -0.0814 -0.9958
 1700TIP3    H226516   2.818   6.671   5.154 -0.4347  0.1710 -1.9034
 1701TIP3   OH226517   0.592   0.251  13.943  1.3185 -0.9785  0.3367
 1701TIP3    H126518   0.513   0.245  13.889  0.8541 -2.6978  1.1333
 1701TIP3    H226519   0.656   0.296  13.888 -0.8354  2.7092  0.4776
 1702TIP3   OH226520   3.530   3.198  14.859  0.4080 -0.0383 -0.8569
 1702TIP3    H126521   3.508   3.105  14.850 -0.8634  0.3432 -1.8997
 1702TIP3    H226522   3.495   3.222  14.945  1.5092 -0.7034 -0.1958
 1703TIP3   OH226523   0.410   1.478  16.121  0.1951  0.3527 -0.3407
 1703TIP3    H126524   0.506   1.476  16.122  0.1930 -1.3887 -1.0794
 1703TIP3    H226525   0.387   1.541  16.190  1.8516 -0.5755  1.1465
 1704TIP3   OH226526   2.845   3.720  16.753  0.4874 -0.0485  0.0939
 1704TIP3    H126527   2.935   3.750  16.764  0.5717 -0.5004  0.7104
 1704TIP3    H226528   2.804   3.786  16.698  0.7769  0.9431  1.0554
 1705TIP3   OH226529   0.547   0.552  17.118  0.0320 -0.0860  0.3629
 1705TIP3    H126530   0.643   0.555  17.127  0.0407  1.6316  0.0108
 1705TIP3    H226531   0.515   0.621  17.176 -1.1680 -1.8971  1.9760
 1706TIP3   OH226532   5.368   0.948   6.146 -0.1213  0.3473 -0.3046
 1706TIP3    H126533   5.428   0.879   6.117 -1.0639 -0.8426  0.4919
 1706TIP3    H226534   5.423   1.026   6.153  1.3577 -0.7119  0.4463
 1707TIP3   OH226535   1.183   5.716   0.747 -1.1416  0.0780 -0.3355
 1707TIP3    H126536   1.156   5.807   0.734 -3.0206 -0.3959 -0.0154
 1707TIP3    H226537   1.240   5.719   0.824 -1.2203  0.9837 -0.3031
 1708TIP3   OH226538   3.203   1.832   3.510 -0.3627 -0.5657 -0.1031
 1708TIP3    H126539   3.189   1.927   3.504  1.2434 -0.3864 -2.0757
 1708TIP3    H226540   3.156   1.806   3.589  1.4872  2.3188  2.1352
 1709TIP3   OH226541   0.600   1.154  15.868  0.3748  0.0919  0.3893
 1709TIP3    H126542   0.635   1.239  15.844 -1.7418  0.9266  0.0467
 1709TIP3    H226543   0.639   1.135  15.953  1.7689  0.8477 -0.0554
 1710TIP3   OH226544   5.571   5.842  14.957 -0.2750 -0.7459  0.0274
 1710TIP3    H126545   5.523   5.777  15.008 -1.8258 -0.3379 -0.8477
 1710TIP3    H226546   5.572   5.920  15.013  0.1125 -1.0128  0.3939
 1711TIP3   OH226547   1.124   4.887   2.795 -0.0040  0.5425  0.3592
 1711TIP3    H126548   1.212   4.892   2.757 -0.2013  0.2134 -0.1529
 1711TIP3    H226549   1.138   4.867   2.887  0.4640  0.7494  0.3349
 1712TIP3   OH226550   1.959   1.809   6.712 -0.6367  0.8621 -0.1685
 1712TIP3    H126551   1.866   1.829   6.721 -1.0694 -0.5889 -1.0604
 1712TIP3    H226552   1.963   1.713   6.714  0.9990  0.9076  1.2126
 1713TIP3   OH226553   4.351   3.397   0.795 -0.6502 -0.5684 -0.4899
 1713TIP3    H126554   4.260   3.414   0.822 -1.4510 -3.1669 -1.2680
 1713TIP3    H226555   4.370   3.310   0.829  2.4925  0.8066  1.7554
 1714TIP3   OH226556   3.940   4.503  15.337 -0.3321  0.3280 -0.3625
 1714TIP3    H126557   3.960   4.588  15.375 -0.0248 -0.2237  0.7386
 1714TIP3    H226558   3.904   4.523  15.250  2.0297  1.4892 -1.1536
 1715TIP3   OH226559   5.639   1.134   3.032 -0.0841  0.4930 -1.1657
 1715TIP3    H126560   5.640   1.166   2.942  1.9112  2.5321 -0.5073
 1715TIP3    H226561   5.699   1.060   3.032  0.4279  0.9067 -1.3841
 1716TIP3   OH226562   0.745   4.349   6.497  0.2777 -0.2756  0.0842
 1716TIP3    H126563   0.692   4.333   6.419  0.1030  0.9025 -0.0560
 1716TIP3    H226564   0.706   4.293   6.564 -0.8306  0.1710 -0.1619
 1717TIP3   OH226565   0.720   2.430  13.818 -0.4590  0.1654 -0.4287
 1717TIP3    H126566   0.638   2.392  13.786 -0.7133  0.9461 -0.7410
 1717TIP3    H226567   0.778   2.355  13.831 -1.8939 -0.6654  1.8876
 1718TIP3   OH226568   4.089   0.512   4.803 -0.0619 -0.4632  0.4516
 1718TIP3    H126569   4.150   0.442   4.825  0.5204  0.0761  0.5969
 1718TIP3    H226570   4.145   0.586   4.778 -0.6608 -0.0399  0.3259
 1719TIP3   OH226571   3.144   5.280  10.506 -0.4340  0.7828  0.3670
 1719TIP3    H126572   3.240   5.281  10.512 -0.3869  0.4432 -0.2516
 1719TIP3    H226573   3.115   5.340  10.575  0.2397  1.3712  0.1500
 1720TIP3   OH226574   0.911   4.269   0.769  0.0322  0.1035  0.0003
 1720TIP3    H126575   0.945   4.183   0.794 -3.4847 -1.0718  1.2820
 1720TIP3    H226576   0.945   4.282   0.680  0.9747 -2.4683 -0.1190
 1721TIP3   OH226577   0.340   6.405  17.088 -0.1596 -0.4409 -0.3685
 1721TIP3    H126578   0.356   6.495  17.116 -0.5307 -0.0525 -1.3509
 1721TIP3    H226579   0.269   6.374  17.144 -1.2144  0.4735 -1.1511
 1722TIP3   OH226580   6.180   4.270   1.902  0.1367  0.2408  0.1252
 1722TIP3    H126581   6.188   4.193   1.959  1.0045 -3.0921 -3.9417
 1722TIP3    H226582   6.269   4.287   1.871 -0.2988  1.8357 -0.3431
 1723TIP3   OH226583   3.441   4.338  10.953 -0.2215  0.0301 -0.1506
 1723TIP3    H126584   3.415   4.360  10.864  0.1007 -1.4767 -0.6475
 1723TIP3    H226585   3.424   4.244  10.961  0.2867  0.0261  1.1837
 1724TIP3   OH226586   4.068   5.857  12.182 -0.3583 -0.0453 -0.4489
 1724TIP3    H126587   4.040   5.766  12.172 -1.3331  0.0691  0.9616
 1724TIP3    H226588   4.150   5.862  12.132  0.0592 -1.8547 -0.0476
 1725TIP3   OH226589   1.132   2.203  13.969  0.0239  0.0870 -0.3881
 1725TIP3    H126590   1.103   2.186  14.059 -0.5673  0.9465 -0.4000
 1725TIP3    H226591   1.227   2.197  13.974  0.0497  0.9219  0.4837
 1726TIP3   OH226592   2.440   4.161   6.360  1.0702  0.1269  0.1817
 1726TIP3    H126593   2.476   4.082   6.319  0.0496 -0.9383  1.2786
 1726TIP3    H226594   2.453   4.229   6.295 -2.7243 -1.9184 -3.1628
 1727TIP3   OH226595   0.708   6.737  11.845  0.1660  0.5808 -0.0614
 1727TIP3    H126596   0.614   6.743  11.858  0.3475  1.0475  1.1540
 1727TIP3    H226597   0.741   6.824  11.869  1.0563 -0.0271  1.0188
 1728TIP3   OH226598   3.814   6.018  12.777  0.5757  0.3714  0.2251
 1728TIP3    H126599   3.907   6.012  12.798  1.5563  0.0379 -3.4469
 1728TIP3    H226600   3.792   5.932  12.742 -1.0601  0.5396  0.7714
 1729TIP3   OH226601   2.544   4.897   5.667 -0.0056 -0.6006 -0.1549
 1729TIP3    H126602   2.607   4.880   5.598  0.8698  2.9552 -0.4370
 1729TIP3    H226603   2.459   4.877   5.628  0.5784 -0.0700 -1.7510
 1730TIP3   OH226604   3.683   6.257  14.791  0.3961 -0.5747  0.0400
 1730TIP3    H126605   3.766   6.210  14.799 -0.1006 -1.6652 -0.8684
 1730TIP3    H226606   3.649   6.230  14.705  0.2727  1.7949 -0.7195
 1731TIP3   OH226607   6.127   1.786  15.186 -0.4324  0.5648  0.3671
 1731TIP3    H126608   6.173   1.869  15.172  1.6847 -0.6534 -0.3310
 1731TIP3    H226609   6.098   1.759  15.099 -0.9513  0.4805  0.5639
 1732TIP3   OH226610   3.656   5.661   5.086 -0.3936  0.0689  0.0447
 1732TIP3    H126611   3.669   5.571   5.115 -0.1996  0.2953  0.6628
 1732TIP3    H226612   3.561   5.669   5.076 -0.5270  0.1890  1.2887
 1733TIP3   OH226613   3.285   1.980  16.985 -0.0798  0.1293  0.7315
 1733TIP3    H126614   3.315   1.969  16.895  1.9370 -1.6035  1.5175
 1733TIP3    H226615   3.215   1.917  16.996  1.2146 -1.3324  0.9494
 1734TIP3   OH226616   0.553   4.533  12.522 -0.0918  0.1996  0.0764
 1734TIP3    H126617   0.625   4.487  12.566  0.5572  2.5718  1.6576
 1734TIP3    H226618   0.474   4.493  12.558  0.4166 -1.0460 -0.1373
 1735TIP3   OH226619   5.619   4.391   1.240 -0.4649  0.4613 -0.1480
 1735TIP3    H126620   5.581   4.354   1.160  0.2098  0.7641 -0.6190
 1735TIP3    H226621   5.549   4.443   1.278 -0.8301  0.2210 -0.4856
 1736TIP3   OH226622   1.193   3.058  12.540  0.1183  0.4994 -0.1115
 1736TIP3    H126623   1.272   3.056  12.486  0.2102 -0.6903  0.0398
 1736TIP3    H226624   1.154   3.144  12.522  0.8194  0.6331 -1.0758
 1737TIP3   OH226625   4.745   0.458   3.275  0.6060 -0.5363  0.1232
 1737TIP3    H126626   4.655   0.439   3.250  0.8860 -2.5164  0.4174
 1737TIP3    H226627   4.738   0.506   3.357 -0.1878  1.5548 -1.0927
 1738TIP3   OH226628   1.007   0.159  15.491  0.4860 -0.0096  0.3565
 1738TIP3    H126629   1.079   0.127  15.546 -0.4163 -0.6044  1.2346
 1738TIP3    H226630   0.928   0.122  15.532 -0.2462 -0.1597 -1.1267
 1739TIP3   OH226631   2.838   0.822  13.207 -0.2021  0.8732 -0.1412
 1739TIP3    H126632   2.749   0.802  13.236 -0.1585  0.0663 -0.5453
 1739TIP3    H226633   2.886   0.841  13.288 -0.0736 -1.3559  0.3674
 1740TIP3   OH226634   5.630   4.912   3.813  0.6502  0.4509 -0.0448
 1740TIP3    H126635   5.622   5.007   3.808  1.9684  0.5940  0.2136
 1740TIP3    H226636   5.724   4.896   3.807  0.8959 -0.5569  3.8316
 1741TIP3   OH226637   3.217   4.705  12.847 -0.0383  0.0975  0.6605
 1741TIP3    H126638   3.170   4.786  12.867  0.0204  0.0948  0.8127
 1741TIP3    H226639   3.300   4.734  12.808 -1.0049  0.0863 -1.5628
 1742TIP3   OH226640   4.833   2.605  16.623 -0.2130  0.1523 -0.1285
 1742TIP3    H126641   4.856   2.513  16.632 -2.5511 -0.4321  0.7714
 1742TIP3    H226642   4.789   2.610  16.538  1.6389  0.9011 -1.0886
 1743TIP3   OH226643   1.206   2.990  13.043  0.1785  0.6173 -0.0484
 1743TIP3    H126644   1.264   2.987  12.967  2.5505  0.5136  1.6604
 1743TIP3    H226645   1.219   3.077  13.081 -1.4537  0.9074 -0.0608
 1744TIP3   OH226646   5.385   0.386  15.897  0.2629 -0.1112 -0.1839
 1744TIP3    H126647   5.342   0.456  15.946  0.6993  1.5902 -2.1183
 1744TIP3    H226648   5.477   0.392  15.923  0.5770  1.0909 -1.4690
 1745TIP3   OH226649   5.360   2.866   5.806 -0.2232 -0.1391  0.3047
 1745TIP3    H126650   5.442   2.818   5.819  0.2976  0.0029 -2.0594
 1745TIP3    H226651   5.334   2.845   5.716 -1.7124  1.4231  0.3303
 1746TIP3   OH226652   4.816   1.414   2.954 -0.0347 -0.1248 -0.5133
 1746TIP3    H126653   4.851   1.494   2.993 -1.3888  0.8268 -1.1470
 1746TIP3    H226654   4.853   1.343   3.007  2.3191  0.7958 -0.8046
 1747TIP3   OH226655   6.021   3.974   3.353  0.0934  0.3242  0.0303
 1747TIP3    H126656   6.014   3.910   3.282  0.1714  0.5899 -0.2216
 1747TIP3    H226657   6.066   3.928   3.423 -0.2360 -0.0301  0.0091
 1748TIP3   OH226658   2.720   4.471   3.276 -0.1806 -0.2044 -0.3179
 1748TIP3    H126659   2.714   4.525   3.197  0.3525 -0.1615 -0.3296
 1748TIP3    H226660   2.704   4.381   3.245 -1.4608 -0.0323 -0.2403
 1749TIP3   OH226661   1.215   1.054  13.205 -0.0284 -0.1733  0.8092
 1749TIP3    H126662   1.190   1.056  13.112 -1.0558  0.4181  1.0944
 1749TIP3    H226663   1.264   0.971  13.214  2.2743  0.8905 -0.7915
 1750TIP3   OH226664   2.961   5.524   4.713  0.2599 -0.5808 -0.6307
 1750TIP3    H126665   3.055   5.536   4.698  0.4280  1.0069  1.3143
 1750TIP3    H226666   2.919   5.574   4.643  0.8881 -0.0109 -0.6068
 1751TIP3   OH226667   2.359   0.709   3.570 -0.0667  0.9813  0.2038
 1751TIP3    H126668   2.331   0.641   3.508  0.6886  1.1572 -0.3397
 1751TIP3    H226669   2.368   0.663   3.654 -1.8022  0.8866  0.3723
 1752TIP3   OH226670   6.421   0.122  15.504 -0.1517 -0.7956  0.5544
 1752TIP3    H126671   6.339   0.097  15.460 -0.0778  2.3493 -1.6729
 1752TIP3    H226672   6.393   0.176  15.578 -0.1199 -0.6402  0.4529
 1753TIP3   OH226673   1.249   5.753  17.037  0.1061  0.4484 -0.2718
 1753TIP3    H126674   1.307   5.806  17.093  0.5399  1.2132 -1.4135
 1753TIP3    H226675   1.309   5.699  16.985 -0.3248 -1.9924  1.5488
 1754TIP3   OH226676   2.493   2.409   6.127  0.5133 -1.1202 -0.2047
 1754TIP3    H126677   2.564   2.466   6.156 -0.4335 -0.1796  0.3437
 1754TIP3    H226678   2.479   2.350   6.201 -0.4036 -0.1775  0.4051
 1755TIP3   OH226679   6.297   6.494  14.929  0.1327 -0.1597 -0.1119
 1755TIP3    H126680   6.356   6.500  15.004 -0.7916 -0.2488  0.6464
 1755TIP3    H226681   6.211   6.517  14.965 -0.2021  0.5252 -1.3083
 1756TIP3   OH226682   3.269   5.993  10.624  0.1322  0.5600 -0.0794
 1756TIP3    H126683   3.219   5.965  10.700 -0.6431  1.5270 -0.2078
 1756TIP3    H226684   3.203   6.024  10.562  0.4954 -2.4087 -2.1792
 1757TIP3   OH226685   3.365   1.435  15.648  0.2895 -0.2015 -0.1863
 1757TIP3    H126686   3.391   1.523  15.676  1.6287 -0.3101 -0.9909
 1757TIP3    H226687   3.446   1.394  15.619 -0.4041 -1.5235 -0.3387
 1758TIP3   OH226688   0.830   5.070  15.796  0.1779  0.0078 -0.1828
 1758TIP3    H126689   0.848   5.024  15.878 -1.5305 -1.4270 -0.5775
 1758TIP3    H226690   0.766   5.137  15.820  1.1770  0.9276  0.0036
 1759TIP3   OH226691   3.653   4.100  11.758  0.1123 -0.3687 -0.1250
 1759TIP3    H126692   3.704   4.067  11.832 -0.6793 -2.3279 -0.4113
 1759TIP3    H226693   3.673   4.040  11.686 -1.9752 -0.7394 -0.4637
 1760TIP3   OH226694   5.815   5.982  14.852  0.5472 -0.1935  0.0789
 1760TIP3    H126695   5.736   5.950  14.808  0.9191 -1.0353 -0.0047
 1760TIP3    H226696   5.869   5.903  14.863  2.1120  0.6186 -1.3530
 1761TIP3   OH226697   4.241   4.513   4.972 -0.6122  0.1153 -0.4123
 1761TIP3    H126698   4.165   4.550   5.018 -1.7864 -1.8533 -0.6787
 1761TIP3    H226699   4.225   4.419   4.971  2.6218 -0.5675  0.8637
 1762TIP3   OH226700   6.728   0.780  11.969 -0.2180 -0.1400  0.0288
 1762TIP3    H126701   6.662   0.822  12.024 -0.4770 -0.2081 -0.2257
 1762TIP3    H226702   6.769   0.853  11.922 -1.7826 -0.2681 -1.6406
 1763TIP3   OH226703   1.195   0.452   5.587 -0.3315 -0.2775  0.0189
 1763TIP3    H126704   1.135   0.455   5.512 -1.4053  0.8190  0.8714
 1763TIP3    H226705   1.186   0.538   5.628  1.7441 -0.1379  0.2867
 1764TIP3   OH226706   4.503   6.297   1.475 -0.2819  0.0206 -0.0115
 1764TIP3    H126707   4.520   6.358   1.547  0.6437  1.1420 -1.1550
 1764TIP3    H226708   4.547   6.216   1.502  0.9802  0.7556  0.2124
 1765TIP3   OH226709   2.129   4.579  16.300 -0.4413 -0.5900  0.0771
 1765TIP3    H126710   2.127   4.552  16.392  0.8426 -0.2898  0.2138
 1765TIP3    H226711   2.037   4.578  16.273 -0.6843 -2.6615  0.7716
 1766TIP3   OH226712   3.844   4.319  17.187 -0.2380  0.2332  0.1875
 1766TIP3    H126713   3.828   4.378  17.260  1.4632 -0.4912  1.1866
 1766TIP3    H226714   3.939   4.315  17.178 -0.2003 -2.8665  0.6688
 1767TIP3   OH226715   2.111   5.721  16.942 -0.4579 -0.9425  0.3211
 1767TIP3    H126716   2.092   5.747  17.032  1.1467 -1.1359  0.7574
 1767TIP3    H226717   2.033   5.744  16.893 -1.3118 -0.7032  1.7418
 1768TIP3   OH226718   2.151   1.499   1.026  0.3148  0.2506 -0.0057
 1768TIP3    H126719   2.110   1.454   0.952 -0.2073  0.8130 -0.0647
 1768TIP3    H226720   2.160   1.590   0.997 -0.4489  0.6070  0.8375
 1769TIP3   OH226721   0.795   1.669  16.739 -0.3369  0.5061  0.1547
 1769TIP3    H126722   0.789   1.711  16.824  0.7658  1.0362 -0.0241
 1769TIP3    H226723   0.795   1.575  16.759 -1.0362  0.6058  0.6621
 1770TIP3   OH226724   6.223   5.063   3.435 -0.3225 -0.1509  0.5877
 1770TIP3    H126725   6.278   5.135   3.467  0.2736 -0.0497 -0.6064
 1770TIP3    H226726   6.283   4.990   3.426 -0.2250  0.1249 -1.2947
 1771TIP3   OH226727   2.338   6.127   5.115  0.1518 -0.1767  0.0825
 1771TIP3    H126728   2.404   6.059   5.133 -1.5528 -2.5088 -1.8136
 1771TIP3    H226729   2.327   6.124   5.020 -2.2144  0.5782  0.2744
 1772TIP3   OH226730   1.826   3.357   3.043  0.0595 -0.0371  0.0939
 1772TIP3    H126731   1.835   3.268   3.008 -0.2722  0.4627 -1.3417
 1772TIP3    H226732   1.917   3.387   3.054  0.2053  0.0971 -1.2376
 1773TIP3   OH226733   1.205   0.041  17.156 -1.0347 -0.1834  0.0791
 1773TIP3    H126734   1.166   0.116  17.111 -0.6455  0.4340  0.7478
 1773TIP3    H226735   1.172  -0.035  17.109 -0.3062  0.4542 -1.5140
 1774TIP3   OH226736   5.249   0.290  13.231  0.7001 -0.1107  0.0434
 1774TIP3    H126737   5.203   0.374  13.240 -1.8897 -1.3617 -0.5925
 1774TIP3    H226738   5.324   0.310  13.175  0.7540  1.9692  0.7743
 1775TIP3   OH226739   1.748   1.797  11.428 -0.1651  0.3254 -0.5222
 1775TIP3    H126740   1.748   1.709  11.466  2.8241 -0.1285 -1.3355
 1775TIP3    H226741   1.763   1.783  11.335 -0.7401  1.6794 -0.8481
 1776TIP3   OH226742   6.524   1.587  10.615 -0.4821 -0.0300  0.0962
 1776TIP3    H126743   6.570   1.523  10.560 -2.3139 -0.7264 -0.7197
 1776TIP3    H226744   6.515   1.544  10.700  0.7326  0.2946  0.4004
 1777TIP3   OH226745   0.727   0.842  15.311 -0.0240 -0.0137 -0.3782
 1777TIP3    H126746   0.725   0.821  15.404 -2.2926  0.2970 -0.3022
 1777TIP3    H226747   0.737   0.757  15.267 -2.4763 -0.5964  0.0899
 1778TIP3   OH226748   1.524   0.481  15.924 -0.3855 -0.1634 -0.0554
 1778TIP3    H126749   1.444   0.429  15.916 -0.2562 -0.3456 -0.1751
 1778TIP3    H226750   1.493   0.571  15.931 -0.5616 -0.1190 -1.2432
 1779TIP3   OH226751   3.436   5.742   0.185 -0.5958 -0.1864 -0.3760
 1779TIP3    H126752   3.476   5.737   0.099  1.7310  1.7072  0.4952
 1779TIP3    H226753   3.376   5.667   0.188  1.0797 -1.7615 -2.6907
 1780TIP3   OH226754   0.139   4.694   4.506  0.0393 -0.3911  0.0937
 1780TIP3    H126755   0.068   4.735   4.456  0.0045 -0.5531  0.0089
 1780TIP3    H226756   0.213   4.754   4.497  0.1621 -0.6212 -0.5035
 1781TIP3   OH226757   3.582   5.036  13.006  0.2882 -0.1643 -0.3102
 1781TIP3    H126758   3.620   4.949  13.024  0.8845  0.0952 -0.2832
 1781TIP3    H226759   3.625   5.064  12.926 -0.6519 -0.3182 -0.8808
 1782TIP3   OH226760   4.452   3.392  11.637  0.0458  0.5155  0.2426
 1782TIP3    H126761   4.358   3.375  11.629  0.3194 -0.9037 -0.1728
 1782TIP3    H226762   4.485   3.320  11.690  1.2799 -0.3757 -1.6327
 1783TIP3   OH226763   2.209   0.158   6.439  0.0577  0.0413 -0.0505
 1783TIP3    H126764   2.302   0.140   6.452 -0.2019 -0.4491  1.3127
 1783TIP3    H226765   2.204   0.250   6.415  0.9022  0.0017 -0.3955
 1784TIP3   OH226766   1.264   1.796   4.169 -0.1552 -0.4503  0.1919
 1784TIP3    H126767   1.315   1.724   4.133 -1.0078 -0.9613 -0.0125
 1784TIP3    H226768   1.173   1.770   4.156 -0.4749  0.6346  0.1662
 1785TIP3   OH226769   3.949   4.159  13.926  0.0447  0.5416  0.2112
 1785TIP3    H126770   4.009   4.228  13.953  1.8895 -0.4572 -1.0923
 1785TIP3    H226771   3.951   4.095  13.997 -0.0407  0.8368  0.4815
 1786TIP3   OH226772   2.924   3.717  16.097 -0.1398  0.1172  0.4880
 1786TIP3    H126773   2.937   3.733  16.191  0.1125  0.7052  0.3553
 1786TIP3    H226774   2.935   3.803  16.056  3.7544 -0.6757 -0.5045
 1787TIP3   OH226775   0.692   1.045  12.252  0.3614 -0.1323  0.3861
 1787TIP3    H126776   0.693   1.140  12.241 -1.4355  0.0623  1.5886
 1787TIP3    H226777   0.618   1.015  12.198 -0.4904 -0.5652  1.7515
 1788TIP3   OH226778   1.463   0.416  16.260 -0.8330  0.1228  0.3510
 1788TIP3    H126779   1.537   0.356  16.272 -1.1171 -0.2118  0.4392
 1788TIP3    H226780   1.469   0.442  16.168 -0.3859  0.3904  0.4536
 1789TIP3   OH226781   3.352   5.767   3.269 -0.0306  0.0851  0.1947
 1789TIP3    H126782   3.330   5.680   3.234  0.5450 -0.0366  0.1157
 1789TIP3    H226783   3.406   5.806   3.200  0.0866  0.3272  0.4273
 1790TIP3   OH226784   3.788   1.202  11.880 -0.2267  0.5128 -0.2562
 1790TIP3    H126785   3.770   1.228  11.789 -1.2908 -0.6669 -0.4254
 1790TIP3    H226786   3.713   1.148  11.903  0.3073  0.3547  1.1594
 1791TIP3   OH226787   2.158   5.280   3.421 -0.3619  0.0247  0.7759
 1791TIP3    H126788   2.213   5.304   3.347 -3.7025 -0.9725 -2.3478
 1791TIP3    H226789   2.163   5.184   3.425 -1.8211 -0.0913  0.3949
 1792TIP3   OH226790   4.146   1.824   2.146  0.1996  0.4465 -0.5723
 1792TIP3    H126791   4.193   1.852   2.067  0.4669 -2.4175 -1.5753
 1792TIP3    H226792   4.207   1.840   2.217  0.5574  1.6898 -1.1296
 1793TIP3   OH226793   3.009   4.517   2.443  0.5458 -0.3934  0.1256
 1793TIP3    H126794   3.059   4.436   2.451 -0.7273 -1.2373 -0.1843
 1793TIP3    H226795   2.920   4.489   2.420  0.4878  1.1630 -1.8615
 1794TIP3   OH226796   5.716   5.943   4.766 -0.3418  0.1815  0.2621
 1794TIP3    H126797   5.643   5.985   4.722 -0.8161 -0.0394  0.8318
 1794TIP3    H226798   5.729   5.994   4.846 -0.4324 -0.2946  0.5861
 1795TIP3   OH226799   3.203   0.904  15.904  0.0002  0.1220 -0.6677
 1795TIP3    H126800   3.189   0.923  15.812 -2.6618 -0.3637 -0.4465
 1795TIP3    H226801   3.117   0.875  15.936  1.4361 -2.4052  1.3214
 1796TIP3   OH226802   5.485   5.195  13.434  0.3733  0.0566 -0.2809
 1796TIP3    H126803   5.444   5.150  13.361  1.1428  0.8919 -1.2652
 1796TIP3    H226804   5.434   5.170  13.511 -1.6621  0.6857 -1.3775
 1797TIP3   OH226805   3.307   6.232   2.857  0.2420  0.6642  0.3195
 1797TIP3    H126806   3.236   6.234   2.921  0.1843 -1.0547  0.3551
 1797TIP3    H226807   3.377   6.183   2.900  1.3115  1.9851  0.1298
 1798TIP3   OH226808   4.206   5.581  13.761 -0.3565 -0.2850 -0.3103
 1798TIP3    H126809   4.145   5.623  13.700  0.5886 -0.2465 -1.2604
 1798TIP3    H226810   4.166   5.594  13.848 -0.1013  2.6978 -0.5206
 1799TIP3   OH226811   0.803   2.213   0.669 -0.1911  0.0453  0.0584
 1799TIP3    H126812   0.807   2.192   0.576  1.5093 -0.3636  0.1708
 1799TIP3    H226813   0.810   2.127   0.713  0.0787  0.3065  0.5407
 1800TIP3   OH226814   3.608   2.325   1.479  0.0254 -0.1145 -0.2539
 1800TIP3    H126815   3.625   2.235   1.452 -0.7054 -0.0128 -1.1235
 1800TIP3    H226816   3.513   2.330   1.489 -0.0110  0.7115 -0.8510
 1801TIP3   OH226817   3.225   5.231  11.290  0.3146  0.8058  0.1693
 1801TIP3    H126818   3.198   5.319  11.266  1.8381  0.9645 -1.0776
 1801TIP3    H226819   3.321   5.235  11.293  0.6244 -1.3975 -2.6095
 1802TIP3   OH226820   1.018   3.359  13.640 -0.1792  0.2224  0.1202
 1802TIP3    H126821   1.032   3.320  13.726 -0.7491  2.1756  1.1798
 1802TIP3    H226822   1.099   3.405  13.621  0.5925 -1.5927 -1.2397
 1803TIP3   OH226823   3.067   4.071  11.866  0.8089  0.5488 -0.3589
 1803TIP3    H126824   3.096   4.133  11.932  0.2660  0.0311  0.3820
 1803TIP3    H226825   3.145   4.054  11.813  0.8222  2.3205 -0.9742
 1804TIP3   OH226826   6.461   3.489  16.734 -0.5490 -0.2061  0.3332
 1804TIP3    H126827   6.549   3.455  16.751 -0.4965 -0.6938 -0.8287
 1804TIP3    H226828   6.473   3.554  16.665 -1.0783 -0.1472  0.2951
 1805TIP3   OH226829   2.133   1.265  12.940  0.3023  0.0134 -0.8377
 1805TIP3    H126830   2.224   1.256  12.911  0.9626 -0.5722  1.2716
 1805TIP3    H226831   2.126   1.208  13.016 -1.6388  0.6370 -0.4939
 1806TIP3   OH226832   5.125   5.446   0.158 -0.7721  0.3990  0.4293
 1806TIP3    H126833   5.192   5.401   0.210  0.5401 -1.1610 -2.4177
 1806TIP3    H226834   5.061   5.475   0.223  2.1529  1.2098  3.2126
 1807TIP3   OH226835   2.703   3.235   2.368  0.1126 -0.1541  0.2316
 1807TIP3    H126836   2.645   3.195   2.432 -2.1053 -0.4583 -1.8321
 1807TIP3    H226837   2.701   3.176   2.292  3.1345 -0.1449  0.0217
 1808TIP3   OH226838   5.802   2.365   6.315 -0.3032  0.8811  0.3374
 1808TIP3    H126839   5.796   2.270   6.309 -0.0230  0.9422 -2.1396
 1808TIP3    H226840   5.711   2.395   6.310 -0.3354  0.7429  0.0178
 1809TIP3   OH226841   3.172   3.890  12.335  0.1810  0.0677  0.1248
 1809TIP3    H126842   3.220   3.930  12.263  0.8876 -0.6882  0.1694
 1809TIP3    H226843   3.183   3.951  12.408  1.4702 -0.3219  0.2709
 1810TIP3   OH226844   4.488   0.939   2.924 -0.2834 -0.4019  0.0183
 1810TIP3    H126845   4.513   0.968   2.836  0.8735 -2.3575 -0.3477
 1810TIP3    H226846   4.549   0.985   2.982 -0.9710  0.8027 -0.1750
 1811TIP3   OH226847   3.417   2.556  17.130  0.0759 -0.5732  0.5240
 1811TIP3    H126848   3.367   2.545  17.049 -2.9520  1.5370  1.9222
 1811TIP3    H226849   3.469   2.635  17.115  0.1795 -0.6716  0.3566
 1812TIP3   OH226850   6.648   3.151   4.440 -0.0702 -0.0008 -0.0554
 1812TIP3    H126851   6.635   3.075   4.497  0.9306  1.2456  1.9824
 1812TIP3    H226852   6.710   3.121   4.374  0.2891 -0.9867  0.6967
 1813TIP3   OH226853   3.340   2.461  12.355  0.0094 -0.8924  0.6256
 1813TIP3    H126854   3.284   2.399  12.307  0.6643  0.4039 -1.9670
 1813TIP3    H226855   3.294   2.545  12.348  1.3459 -0.1810  0.0678
 1814TIP3   OH226856   3.373   4.091   0.595 -0.1794 -0.5972 -0.1431
 1814TIP3    H126857   3.330   4.173   0.571  0.5204 -0.3369 -0.5475
 1814TIP3    H226858   3.316   4.023   0.561 -0.0572 -0.2502 -1.0570
 1815TIP3   OH226859   3.940   3.025  10.793 -0.0749  0.0759  0.3929
 1815TIP3    H126860   3.876   2.992  10.729  0.1870  0.5585 -0.1311
 1815TIP3    H226861   3.941   2.959  10.862 -0.3855 -0.4500 -0.0914
 1816TIP3   OH226862   6.499   4.089  11.963 -0.2153  0.1277 -0.4466
 1816TIP3    H126863   6.434   4.125  11.904 -0.0603 -0.7555 -1.1747
 1816TIP3    H226864   6.458   4.093  12.050  0.2583  3.1567 -0.2599
 1817TIP3   OH226865   1.668   2.283  17.316  0.4035 -1.1564 -0.4509
 1817TIP3    H126866   1.672   2.378  17.309 -0.8105 -1.0243  0.3800
 1817TIP3    H226867   1.744   2.259  17.368  1.7015 -0.8449 -2.0955
 1818TIP3   OH226868   3.059   1.891  12.122 -0.0924 -0.8019  0.0330
 1818TIP3    H126869   3.151   1.899  12.148  0.0387 -1.2119 -0.2899
 1818TIP3    H226870   3.047   1.798  12.106 -0.0815 -0.5406 -1.6564
 1819TIP3   OH226871   3.893   4.939   0.786 -0.3009 -0.7053 -0.1406
 1819TIP3    H126872   3.836   4.929   0.709  1.6653 -2.1681 -1.4976
 1819TIP3    H226873   3.877   4.861   0.838  0.3486 -1.0569 -0.4601
 1820TIP3   OH226874   5.353   2.373  15.661  0.2735 -0.0307  0.0970
 1820TIP3    H126875   5.346   2.430  15.737  0.6014  0.1675 -0.0171
 1820TIP3    H226876   5.381   2.289  15.697 -1.3188 -0.4569  0.3943
 1821TIP3   OH226877   6.253   4.810  13.046 -0.1682  0.5556 -0.0939
 1821TIP3    H126878   6.321   4.874  13.067  1.1547 -1.6800  3.2063
 1821TIP3    H226879   6.266   4.791  12.953  2.3134  1.7411 -0.0699
 1822TIP3   OH226880   6.651   0.713  11.126  0.6595  0.2185 -0.2838
 1822TIP3    H126881   6.602   0.786  11.087 -0.7181  0.3125  1.4990
 1822TIP3    H226882   6.694   0.671  11.052 -1.5020  0.6147 -1.8803
 1823TIP3   OH226883   5.941   3.474  16.265  0.5520 -0.1173  0.6998
 1823TIP3    H126884   5.926   3.435  16.180  0.3118  0.1735  0.6064
 1823TIP3    H226885   5.907   3.410  16.328 -1.2586  0.5743  0.4904
 1824TIP3   OH226886   3.780   2.131   0.955 -0.3494  0.4667  0.5808
 1824TIP3    H126887   3.748   2.218   0.933  1.9103  1.0634 -0.5627
 1824TIP3    H226888   3.874   2.135   0.940 -0.2288 -2.3032  0.1053
 1825TIP3   OH226889   2.478   0.474   3.193 -0.2734 -0.8009  0.5029
 1825TIP3    H126890   2.503   0.448   3.282  0.0377 -1.2480  0.2870
 1825TIP3    H226891   2.561   0.499   3.152 -0.5333  0.3217  0.6332
 1826TIP3   OH226892   5.182   2.490  11.435  0.1046  0.2829  0.4655
 1826TIP3    H126893   5.203   2.532  11.519  1.5351  1.5716 -0.4987
 1826TIP3    H226894   5.123   2.552  11.392 -0.5952 -0.3587  0.4806
 1827TIP3   OH226895   6.236   4.527  16.602 -0.2738  0.0916 -0.3591
 1827TIP3    H126896   6.252   4.606  16.550 -0.7410  0.3057 -0.1794
 1827TIP3    H226897   6.248   4.455  16.540  0.5817  0.2735 -0.4295
 1828TIP3   OH226898   4.101   6.404   0.752 -0.3459  0.6313  0.3043
 1828TIP3    H126899   4.155   6.406   0.831  0.1203  0.0623  0.0170
 1828TIP3    H226900   4.142   6.467   0.693 -0.5698  0.9043  0.4410
 1829TIP3   OH226901   2.786   0.218   5.375  0.5512 -0.0953 -0.0289
 1829TIP3    H126902   2.848   0.251   5.310  0.9917  0.7057  0.7748
 1829TIP3    H226903   2.799   0.124   5.375 -0.9973 -0.4098 -2.6477
 1830TIP3   OH226904   2.450   1.844   1.959 -0.3158 -0.0411 -0.2368
 1830TIP3    H126905   2.371   1.840   2.012 -0.5828 -1.3334 -0.6948
 1830TIP3    H226906   2.511   1.898   2.010 -1.4099  0.8362  0.1971
 1831TIP3   OH226907   5.234   2.765  15.388 -0.2034  0.1026 -0.4776
 1831TIP3    H126908   5.177   2.831  15.427  0.4470  0.2701  0.2090
 1831TIP3    H226909   5.322   2.800  15.400  0.1053 -0.6077 -0.6596
 1832TIP3   OH226910   3.396   0.007  10.949 -0.1301  0.2943  0.1849
 1832TIP3    H126911   3.388   0.079  10.887 -0.7776 -0.4461 -0.6220
 1832TIP3    H226912   3.323   0.019  11.010  0.2152  0.7472  0.5095
 1833TIP3   OH226913   1.862   4.775  14.097  0.0250  0.4437  0.4428
 1833TIP3    H126914   1.832   4.811  14.014  0.0232 -1.1426 -0.2781
 1833TIP3    H226915   1.957   4.786  14.095  0.1660 -0.7502 -0.3739
 1834TIP3   OH226916   6.052   1.636   0.808 -0.3740  0.0950 -0.6275
 1834TIP3    H126917   6.046   1.730   0.825 -1.5563 -0.2597  1.1601
 1834TIP3    H226918   5.961   1.608   0.797 -0.1247 -1.0321  0.0750
 1835TIP3   OH226919   2.350   3.244  13.602  0.1438 -0.1987  0.0265
 1835TIP3    H126920   2.272   3.193  13.578 -1.2025  1.7670 -0.0599
 1835TIP3    H226921   2.423   3.184  13.590 -0.8524 -0.9248 -4.2368
 1836TIP3   OH226922   2.262   5.528  11.341 -0.1960  0.6694 -0.1152
 1836TIP3    H126923   2.239   5.550  11.431  2.1323 -0.5651  0.8722
 1836TIP3    H226924   2.183   5.490  11.304 -1.0429  0.7052  1.5715
 1837TIP3   OH226925   1.054   0.141   5.497 -0.4845 -0.2824 -0.1308
 1837TIP3    H126926   1.088   0.124   5.585  0.6811  0.3759 -0.4416
 1837TIP3    H226927   0.975   0.087   5.492 -1.2582  0.5872  1.7499
 1838TIP3   OH226928   0.101   3.609  15.907  0.0634  0.1063  0.0425
 1838TIP3    H126929   0.051   3.590  15.986 -0.1977 -0.5688 -0.2803
 1838TIP3    H226930   0.036   3.640  15.844  0.4708  2.1859  0.5586
 1839TIP3   OH226931   0.472   6.472  14.555  0.0046  0.3150 -0.5341
 1839TIP3    H126932   0.491   6.437  14.469 -1.6131 -0.0208 -0.7875
 1839TIP3    H226933   0.506   6.562  14.553  2.6009 -0.5685 -0.4687
 1840TIP3   OH226934   2.450   5.851   0.110  0.3494 -0.4902 -0.4095
 1840TIP3    H126935   2.457   5.920   0.176  1.4169 -1.0402  0.0744
 1840TIP3    H226936   2.541   5.826   0.092  0.1848  0.3782 -2.8945
 1841TIP3   OH226937   1.731   3.607   2.800 -0.1643  0.1690  0.2596
 1841TIP3    H126938   1.646   3.645   2.776 -0.6363 -0.4359  0.9453
 1841TIP3    H226939   1.756   3.556   2.723 -0.5417  0.1422  0.1508
 1842TIP3   OH226940   0.058   4.050   0.392  0.0296  0.5974  0.2532
 1842TIP3    H126941   0.084   3.958   0.383  0.3090  0.7801 -1.0004
 1842TIP3    H226942   0.035   4.077   0.303 -1.7788  1.2541  0.8731
 1843TIP3   OH226943   2.938   3.928  15.972  0.3062 -0.4062  0.6761
 1843TIP3    H126944   2.872   3.949  15.906  0.2575 -0.2253  0.7826
 1843TIP3    H226945   2.969   4.013  16.004  1.4903 -0.4727 -0.2511
 1844TIP3   OH226946   3.093   1.461   4.104  0.0625 -0.6211  0.1344
 1844TIP3    H126947   3.042   1.445   4.184 -0.7164  1.0518  0.0183
 1844TIP3    H226948   3.089   1.378   4.057  0.7830 -1.7379  1.9410
 1845TIP3   OH226949   1.796   5.277   2.554 -0.0528  0.2747  0.4539
 1845TIP3    H126950   1.828   5.364   2.531 -1.2176  0.3896 -0.8011
 1845TIP3    H226951   1.850   5.217   2.503 -1.2138  0.4261 -0.9919
 1846TIP3   OH226952   0.517   3.515  13.597  0.4605  0.1942 -0.9018
 1846TIP3    H126953   0.566   3.445  13.554  1.6236  0.6231 -0.3478
 1846TIP3    H226954   0.584   3.581  13.618 -0.6683  1.7179 -1.8710
 1847TIP3   OH226955   0.846   1.481   1.958 -1.0477  0.1454  0.4797
 1847TIP3    H126956   0.876   1.540   2.027  1.0446 -1.5682  1.1498
 1847TIP3    H226957   0.886   1.514   1.878  1.7058 -1.2836  1.1411
 1848TIP3   OH226958   1.356   1.617  15.075 -0.4431  0.3204  0.3027
 1848TIP3    H126959   1.444   1.629  15.041 -1.1125  0.2340 -1.5882
 1848TIP3    H226960   1.366   1.618  15.170  1.4964  0.8864  0.1242
 1849TIP3   OH226961   1.793   3.443  14.735  0.0219 -0.2302 -0.3542
 1849TIP3    H126962   1.832   3.525  14.765 -2.4613  0.8394  0.1548
 1849TIP3    H226963   1.702   3.465  14.714 -0.8417 -2.9153  0.1719
 1850TIP3   OH226964   6.005   0.489   3.316  0.2535 -0.0554 -0.2964
 1850TIP3    H126965   6.067   0.555   3.287  0.5756 -0.0663  0.3420
 1850TIP3    H226966   6.052   0.441   3.384 -0.3271 -0.2927 -0.0597
 1851TIP3   OH226967   0.953   4.789  15.611 -0.0773  0.9215 -0.2528
 1851TIP3    H126968   0.943   4.710  15.558 -1.5321  0.8111  0.1472
 1851TIP3    H226969   0.866   4.807  15.644  0.5643  1.7308  1.0736
 1852TIP3   OH226970   4.205   4.864   0.491  0.4628 -0.0092  0.1422
 1852TIP3    H126971   4.244   4.912   0.564  0.1361 -0.4327  0.6004
 1852TIP3    H226972   4.128   4.915   0.467  0.9749  0.5301 -0.4024
 1853TIP3   OH226973   2.847   1.378   1.101 -0.1840 -0.8050  0.3760
 1853TIP3    H126974   2.795   1.352   1.025 -0.9558 -0.5321  0.7992
 1853TIP3    H226975   2.923   1.320   1.099  0.7124  0.3715 -1.5807
 1854TIP3   OH226976   0.640   0.257   0.835 -0.3003 -0.3759  0.3801
 1854TIP3    H126977   0.723   0.210   0.835 -0.2711 -0.4447  2.5818
 1854TIP3    H226978   0.654   0.330   0.775  0.3736 -1.8961 -1.4211
 1855TIP3   OH226979   0.969   5.277  17.193  0.2172  0.3520 -0.8475
 1855TIP3    H126980   0.898   5.325  17.235  0.8631  0.9181 -0.3860
 1855TIP3    H226981   1.033   5.344  17.170  1.3225 -0.3144  0.1915
 1856TIP3   OH226982   2.134   4.022  16.603 -0.2101  0.2168 -0.1425
 1856TIP3    H126983   2.174   3.984  16.525  1.0048  0.4337  0.3526
 1856TIP3    H226984   2.123   4.115  16.582 -0.5338  0.1395 -0.3133
 1857TIP3   OH226985   5.586   4.447  13.778  0.1636  0.2889  0.1297
 1857TIP3    H126986   5.653   4.436  13.846 -0.5875  1.4308  1.0976
 1857TIP3    H226987   5.624   4.404  13.701  2.4341  1.6646  0.3695
 1858TIP3   OH226988   1.898   2.872   4.756 -0.1418 -1.0081  0.1105
 1858TIP3    H126989   1.865   2.783   4.771  0.0525 -1.1991 -0.5585
 1858TIP3    H226990   1.897   2.882   4.661  2.2286 -1.2411 -0.0136
 1859TIP3   OH226991   6.147   5.463  13.499  0.2250  0.1751 -0.1082
 1859TIP3    H126992   6.069   5.472  13.443  0.9069 -0.5343 -1.1975
 1859TIP3    H226993   6.192   5.386  13.466  1.0818  0.2065  0.9231
 1860TIP3   OH226994   6.553   6.384  11.282  0.7869 -0.1445 -0.5169
 1860TIP3    H126995   6.510   6.341  11.208  1.4060 -0.2904 -0.7969
 1860TIP3    H226996   6.530   6.330  11.358  2.2182 -1.4860 -0.9720
 1861TIP3   OH226997   6.704   6.033  16.446 -0.4709  0.4069 -0.1669
 1861TIP3    H126998   6.672   6.121  16.467  0.4779  0.4245  1.2866
 1861TIP3    H226999   6.778   6.048  16.388 -1.4872  0.4583 -1.5082
 1862TIP3   OH227000   0.598   4.257  16.844  0.2025  0.1928 -1.0275
 1862TIP3    H127001   0.613   4.164  16.826 -0.5373 -0.1163 -0.1083
 1862TIP3    H227002   0.683   4.290  16.873  0.2806 -0.3795 -0.5940
 1863TIP3   OH227003   4.332   0.472  12.029  0.6312  0.3954  0.1489
 1863TIP3    H127004   4.382   0.396  12.000 -1.0900 -0.8123  0.2343
 1863TIP3    H227005   4.248   0.465  11.984 -0.3587  1.0456  1.7888
 1864TIP3   OH227006   0.764   1.495  11.712  0.4785 -0.4871  0.1703
 1864TIP3    H127007   0.803   1.429  11.769  0.3979 -0.6150  0.0781
 1864TIP3    H227008   0.778   1.461  11.623  0.4520 -0.3716  0.1217
 1865TIP3   OH227009   1.132   5.667  10.788 -0.0111 -0.2052 -0.2161
 1865TIP3    H127010   1.215   5.704  10.758  0.9687 -1.8361  0.3626
 1865TIP3    H227011   1.071   5.683  10.717  1.6940 -2.0578 -2.2238
 1866TIP3   OH227012   5.221   3.776  11.797  0.3032 -0.8874  0.2728
 1866TIP3    H127013   5.224   3.741  11.885  0.5862  2.0535  1.5557
 1866TIP3    H227014   5.313   3.781  11.770  0.2969 -0.7134  0.2836
 1867TIP3   OH227015   2.018   0.600   3.021  0.2736 -0.4313 -0.7185
 1867TIP3    H127016   2.108   0.604   2.989 -0.2098 -0.8926 -2.2404
 1867TIP3    H227017   1.967   0.571   2.945 -0.7977 -2.7954  0.7704
 1868TIP3   OH227018   5.296   5.756   3.638 -0.2949  0.5771  0.3079
 1868TIP3    H127019   5.252   5.677   3.669 -2.4031  2.9565  4.1761
 1868TIP3    H227020   5.387   5.746   3.667 -0.0249 -1.1451 -0.9826
 1869TIP3   OH227021   0.169   4.546   4.735  0.1418 -0.1113  0.1378
 1869TIP3    H127022   0.169   4.580   4.646  0.7869 -0.1247  0.1279
 1869TIP3    H227023   0.261   4.542   4.759 -0.0387  0.1731  0.9147
 1870TIP3   OH227024   3.349   5.103  14.525 -0.1015  0.0211  0.0842
 1870TIP3    H127025   3.297   5.102  14.606  1.6783  0.1470  1.3062
 1870TIP3    H227026   3.363   5.196  14.507 -1.5676  0.0341 -1.1474
 1871TIP3   OH227027   5.859   4.698  17.085 -0.3048 -0.1625  0.2967
 1871TIP3    H127028   5.912   4.618  17.087 -0.5303 -0.2938  1.1033
 1871TIP3    H227029   5.828   4.709  17.174  1.2225  1.8331  0.6604
 1872TIP3   OH227030   0.235   0.497   1.553 -0.5040  0.0015  0.0691
 1872TIP3    H127031   0.238   0.410   1.513  2.2432 -0.6497  1.4613
 1872TIP3    H227032   0.161   0.492   1.614 -0.0856 -1.5498  0.4891
 1873TIP3   OH227033   0.815   2.671  13.952  0.0409 -0.3503  0.5514
 1873TIP3    H127034   0.723   2.681  13.975 -0.3014  0.4572 -1.0529
 1873TIP3    H227035   0.821   2.582  13.918 -0.3253 -0.1359 -0.0850
 1874TIP3   OH227036   0.737   3.512  14.178 -0.2187 -0.0937 -0.4873
 1874TIP3    H127037   0.708   3.554  14.097 -0.0812  1.0252  0.0191
 1874TIP3    H227038   0.687   3.555  14.247  2.1657  1.5340  0.3666
 1875TIP3   OH227039   3.219   3.554  10.800  0.4655  0.8840 -0.1768
 1875TIP3    H127040   3.271   3.577  10.723 -1.4255  2.0986 -1.1574
 1875TIP3    H227041   3.155   3.491  10.768  0.4271  0.4617  0.7043
 1876TIP3   OH227042   4.288   1.894   0.983  0.4573  0.0002  0.5588
 1876TIP3    H127043   4.196   1.870   0.969  0.9145 -1.0318 -0.9859
 1876TIP3    H227044   4.305   1.961   0.917  0.5721  0.9207  1.4966
 1877TIP3   OH227045   4.618   2.096  12.164  0.2055 -0.1392 -0.1512
 1877TIP3    H127046   4.706   2.063  12.145 -0.2045 -1.1205 -0.4031
 1877TIP3    H227047   4.577   2.027  12.216 -0.5793  0.0937 -0.4443
 1878TIP3   OH227048   4.308   4.664  17.280  0.1234 -0.2554 -0.2800
 1878TIP3    H127049   4.228   4.713  17.260 -1.2129 -1.8911  0.7937
 1878TIP3    H227050   4.378   4.729  17.274 -1.6601  2.1035  2.1619
 1879TIP3   OH227051   6.281   2.713   2.008  0.4440  0.0934  0.0463
 1879TIP3    H127052   6.204   2.769   2.023  0.1348 -0.3226  0.0284
 1879TIP3    H227053   6.267   2.676   1.921  0.5222 -0.2149  0.1661
 1880TIP3   OH227054   1.270   0.406  10.592  0.6205 -0.2984 -0.0525
 1880TIP3    H127055   1.345   0.401  10.533  0.7236 -0.8570  0.1160
 1880TIP3    H227056   1.307   0.395  10.679  0.5076  0.8603  0.1472
 1881TIP3   OH227057   4.482   5.478  11.892 -0.3415  0.2618  0.4415
 1881TIP3    H127058   4.485   5.405  11.955  1.6679  1.0191  1.3041
 1881TIP3    H227059   4.403   5.462  11.841 -2.0732 -0.3988  3.1495
 1882TIP3   OH227060   1.250   3.996   2.070 -0.1000 -0.2878  0.0491
 1882TIP3    H127061   1.298   4.076   2.047 -1.8169  0.4071 -1.3713
 1882TIP3    H227062   1.302   3.955   2.139  1.8267  1.0681 -0.5202
 1883TIP3   OH227063   4.399   1.046  15.725  0.2216  0.5076 -0.4008
 1883TIP3    H127064   4.466   1.115  15.726 -0.2752  0.9958  0.6299
 1883TIP3    H227065   4.331   1.078  15.784 -0.1204 -0.7784 -0.0749
 1884TIP3   OH227066   0.944   5.902  12.188 -0.3108  0.4619 -0.3114
 1884TIP3    H127067   1.014   5.962  12.216 -1.2732  0.4665  2.3040
 1884TIP3    H227068   0.867   5.958  12.178 -0.0953  0.4378 -3.0773
 1885TIP3   OH227069   0.736   4.848   5.285  0.9427  0.3326  0.2783
 1885TIP3    H127070   0.730   4.769   5.233  0.1212  0.0101  0.8349
 1885TIP3    H227071   0.827   4.876   5.277  1.0799 -0.2951 -0.4518
 1886TIP3   OH227072   0.762   4.633  10.634  0.1428 -0.5046  0.3859
 1886TIP3    H127073   0.847   4.601  10.604 -0.0172 -0.0236 -0.6347
 1886TIP3    H227074   0.750   4.716  10.588 -0.4626 -0.1085  1.2407
 1887TIP3   OH227075   0.430   5.313   2.242 -0.1536 -0.2127  0.0929
 1887TIP3    H127076   0.431   5.353   2.155  0.7739  1.5945  0.8839
 1887TIP3    H227077   0.367   5.241   2.234  0.0782 -0.2365 -2.1145
 1888TIP3   OH227078   4.454   4.946  14.933  0.6745  0.1346  0.0585
 1888TIP3    H127079   4.460   4.984  15.020  0.2545  0.2694  0.0305
 1888TIP3    H227080   4.471   4.853  14.947  1.3220  0.2697  0.1808
 1889TIP3   OH227081   4.891   0.149  11.681  0.5029 -0.3847  0.4310
 1889TIP3    H127082   4.926   0.234  11.654 -0.1640  0.3202  1.6978
 1889TIP3    H227083   4.823   0.129  11.617 -0.4427  0.8226  1.0326
 1890TIP3   OH227084   5.614   1.392  17.229 -0.5250  0.0526 -0.4580
 1890TIP3    H127085   5.646   1.399  17.139 -0.7677 -0.8551 -0.6210
 1890TIP3    H227086   5.574   1.478  17.246  1.4474  1.0233 -0.4368
 1891TIP3   OH227087   2.687   1.062   2.229 -0.4720 -0.3884  0.2357
 1891TIP3    H127088   2.636   1.126   2.278  1.3532 -0.0270  1.8161
 1891TIP3    H227089   2.681   0.982   2.281  0.9602 -0.1898  0.7384
 1892TIP3   OH227090   2.066   1.231  16.135 -0.3768 -0.5833 -0.1548
 1892TIP3    H127091   1.983   1.239  16.087 -0.1348 -1.1343 -0.6847
 1892TIP3    H227092   2.077   1.136  16.147 -0.2896 -0.4613  0.7482
 1893TIP3   OH227093   3.576   2.365   3.136 -0.3147  0.0538 -0.0168
 1893TIP3    H127094   3.647   2.305   3.115  0.0415  0.3165  0.4214
 1893TIP3    H227095   3.570   2.422   3.059 -0.2783 -0.1821 -0.1953
 1894TIP3   OH227096   5.151   6.485   2.173  0.1636 -0.1682  0.0996
 1894TIP3    H127097   5.096   6.453   2.102  0.6770  0.4605 -0.5886
 1894TIP3    H227098   5.104   6.460   2.253 -0.1986 -1.2838 -0.4392
 1895TIP3   OH227099   1.999   0.330   0.595  0.2688 -0.1846  0.5260
 1895TIP3    H127100   1.960   0.252   0.557 -0.1392  0.6897 -0.9595
 1895TIP3    H227101   1.945   0.350   0.671  0.8421 -1.7475  1.3917
 1896TIP3   OH227102   0.807   0.724  12.586  0.2358 -0.6976  0.2178
 1896TIP3    H127103   0.795   0.744  12.493 -1.0645 -2.1382  0.0310
 1896TIP3    H227104   0.752   0.787  12.632 -0.0164 -0.7087 -0.0632
 1897TIP3   OH227105   1.159   4.069  11.753  0.5140  0.4722  0.1480
 1897TIP3    H127106   1.127   4.132  11.818  0.7357  1.1388 -0.3806
 1897TIP3    H227107   1.090   4.065  11.688  1.1316  1.2973 -0.5784
 1898TIP3   OH227108   3.551   1.787   4.859 -0.6032  0.5725  0.5171
 1898TIP3    H127109   3.573   1.716   4.919  2.8551  1.0789  0.0405
 1898TIP3    H227110   3.516   1.856   4.915 -0.0062  0.0362  1.5701
 1899TIP3   OH227111   1.409   0.051   5.596 -0.3475  0.0643  0.3893
 1899TIP3    H127112   1.363   0.119   5.646  0.2651  0.1322  0.8727
 1899TIP3    H227113   1.454   0.099   5.526  0.4135  0.2252  0.9687
 1900TIP3   OH227114   5.448   5.602  13.663  0.2192 -0.2247 -0.1882
 1900TIP3    H127115   5.356   5.596  13.687  0.4475  0.3605  0.8846
 1900TIP3    H227116   5.495   5.596  13.746  1.1407 -0.2537 -0.6973
 1901TIP3   OH227117   6.703   2.578  15.339  0.0092  0.3761  0.4139
 1901TIP3    H127118   6.614   2.588  15.306 -0.5496  0.6528  1.8969
 1901TIP3    H227119   6.758   2.618  15.272 -0.8006 -1.2570 -1.3132
 1902TIP3   OH227120   0.030   1.881  13.300 -0.4326 -0.2038  0.1622
 1902TIP3    H127121   0.085   1.945  13.256  0.2293 -2.1022 -1.9352
 1902TIP3    H227122   0.006   1.819  13.232 -0.4609 -2.5968  2.2195
 1903TIP3   OH227123   2.911   5.924  11.385 -0.2642  0.2800 -0.3128
 1903TIP3    H127124   2.908   5.892  11.296 -0.2821  0.7691 -0.4932
 1903TIP3    H227125   2.938   5.849  11.438  0.7665  0.2476 -0.8603
 1904TIP3   OH227126   4.215   4.634  11.793  0.7249 -0.7234 -0.1540
 1904TIP3    H127127   4.209   4.636  11.697 -0.9049 -0.2584 -0.0741
 1904TIP3    H227128   4.124   4.623  11.822  0.8807  1.3643  1.3793
 1905TIP3   OH227129   2.356   0.889   5.599 -0.3064  0.2483 -0.2194
 1905TIP3    H127130   2.415   0.944   5.651  0.1504 -0.4436  0.0070
 1905TIP3    H227131   2.413   0.853   5.530  0.2021 -2.4768  1.4808
 1906TIP3   OH227132   1.278   6.639  12.055  0.6197 -0.0807  0.1967
 1906TIP3    H127133   1.247   6.713  12.106  1.2080  0.7855 -0.6729
 1906TIP3    H227134   1.263   6.665  11.964 -2.0219 -2.2510 -0.1375
 1907TIP3   OH227135   5.097   0.629   2.425  0.2330 -0.0842 -0.4511
 1907TIP3    H127136   5.126   0.566   2.490  0.9167 -0.0302 -0.6928
 1907TIP3    H227137   5.002   0.633   2.435 -0.1120 -2.6623 -1.7735
 1908TIP3   OH227138   0.192   5.830  14.557  0.5210  0.5685  0.1164
 1908TIP3    H127139   0.164   5.841  14.467  0.0931 -0.6501  0.0957
 1908TIP3    H227140   0.268   5.888  14.565  1.3993 -0.3123 -1.4152
 1909TIP3   OH227141   6.482   6.660  12.934 -0.3336 -0.2719 -0.3705
 1909TIP3    H127142   6.455   6.639  13.024 -0.0134 -0.9816 -0.4292
 1909TIP3    H227143   6.430   6.601  12.879 -1.8690  1.3966 -0.8092
 1910TIP3   OH227144   6.199   2.366   5.527  0.1962  0.0546  0.5063
 1910TIP3    H127145   6.112   2.399   5.548 -0.4402 -1.1356 -0.1357
 1910TIP3    H227146   6.248   2.371   5.609 -1.2453 -1.5772  1.5372
 1911TIP3   OH227147   2.904   1.696   3.177  0.2799 -0.6126 -0.4324
 1911TIP3    H127148   2.997   1.693   3.199  0.1281 -1.2189  0.1381
 1911TIP3    H227149   2.870   1.611   3.204 -1.1119  0.7152  2.3593
 1912TIP3   OH227150   3.274   0.330   5.232  0.0783  0.0149 -0.0617
 1912TIP3    H127151   3.296   0.419   5.204 -0.6732  0.1957 -0.0873
 1912TIP3    H227152   3.357   0.282   5.225 -0.0787 -0.0197 -2.7895
 1913TIP3   OH227153   4.297   6.220   1.274 -0.2114  0.2370 -0.0186
 1913TIP3    H127154   4.330   6.282   1.339  1.1641 -0.4459 -0.0405
 1913TIP3    H227155   4.244   6.274   1.215 -2.1663  0.7408  2.0708
 1914TIP3   OH227156   6.473   2.429  13.652 -0.0080 -0.1848  0.3642
 1914TIP3    H127157   6.546   2.417  13.591 -0.5244 -2.0113  0.0392
 1914TIP3    H227158   6.412   2.485  13.605 -0.6375 -1.9805 -1.0913
 1915TIP3   OH227159   5.618   5.133   1.062  0.2218 -0.3382 -0.3152
 1915TIP3    H127160   5.559   5.073   1.107 -1.0282  0.1860 -1.2199
 1915TIP3    H227161   5.563   5.205   1.034  1.4598  0.6112 -0.4122
 1916TIP3   OH227162   1.402   6.637   2.626  0.0316 -0.9049  0.6626
 1916TIP3    H127163   1.435   6.631   2.537  1.0621  0.3532  0.9262
 1916TIP3    H227164   1.321   6.688   2.617  0.3891 -0.3533  0.4881
 1917TIP3   OH227165   5.265   0.879  13.238  0.6761 -0.0881  0.4216
 1917TIP3    H127166   5.292   0.966  13.209  1.4665 -0.1334  1.0011
 1917TIP3    H227167   5.309   0.819  13.179 -1.0762 -0.0936 -0.9747
 1918TIP3   OH227168   5.019   1.790  12.604  0.3147 -0.6034 -0.0793
 1918TIP3    H127169   4.998   1.881  12.584 -0.9150 -0.6040  1.0567
 1918TIP3    H227170   5.111   1.791  12.631  0.2827  0.3176  0.0082
 1919TIP3   OH227171   5.869   2.417  14.469  0.0828 -0.3792  0.1865
 1919TIP3    H127172   5.831   2.402  14.556 -0.1463 -2.9485 -0.2803
 1919TIP3    H227173   5.963   2.424  14.485 -0.1102  1.2065  0.8166
 1920TIP3   OH227174   5.637   5.936   2.416 -0.0088 -0.3928 -0.6212
 1920TIP3    H127175   5.631   5.888   2.498 -0.7133 -0.4156 -0.6833
 1920TIP3    H227176   5.598   5.878   2.351  0.0019 -0.1284 -0.8672
 1921TIP3   OH227177   5.164   5.556  13.723  0.6945 -0.1014  0.2104
 1921TIP3    H127178   5.202   5.470  13.738  0.6160 -0.0670  0.6119
 1921TIP3    H227179   5.091   5.540  13.664  0.7339 -0.2978  0.2143
 1922TIP3   OH227180   5.872   4.551   4.384  0.5516  0.0116 -0.2735
 1922TIP3    H127181   5.861   4.489   4.456  1.0786 -0.9272 -0.9758
 1922TIP3    H227182   5.889   4.635   4.427 -0.9015 -0.1640  0.6999
 1923TIP3   OH227183   2.322   0.680  11.015 -0.4780  0.5173 -0.2133
 1923TIP3    H127184   2.397   0.680  10.955  0.1105  0.1690  0.5169
 1923TIP3    H227185   2.319   0.592  11.051  0.2034  1.1549  1.5224
 1924TIP3   OH227186   4.355   6.606  16.710  0.2078  0.0675  0.6695
 1924TIP3    H127187   4.417   6.546  16.751  0.1965  0.1133  0.7552
 1924TIP3    H227188   4.287   6.620  16.776  0.0033 -0.1413  0.5054
 1925TIP3   OH227189   6.144   2.180  14.762  0.2622  0.2678 -0.3136
 1925TIP3    H127190   6.135   2.258  14.708 -0.6260  0.7129  0.4595
 1925TIP3    H227191   6.063   2.176  14.812 -0.0996 -1.6218 -0.9466
 1926TIP3   OH227192   1.912   5.286  14.470 -0.0482 -0.0100  0.3598
 1926TIP3    H127193   2.002   5.318  14.461  0.0159 -0.0266  0.9123
 1926TIP3    H227194   1.882   5.275  14.380  0.3364  0.4643  0.1653
 1927TIP3   OH227195   0.831   3.952   2.221 -0.6055  0.3090 -0.0755
 1927TIP3    H127196   0.852   4.034   2.267 -3.2854  0.2090  1.5301
 1927TIP3    H227197   0.772   3.978   2.151  1.1823  0.0829 -1.7471
 1928TIP3   OH227198   4.572   5.477  12.218  0.1871  0.3563  0.4261
 1928TIP3    H127199   4.556   5.406  12.155  1.0552 -0.4623  1.0967
 1928TIP3    H227200   4.498   5.537  12.206 -0.6949 -0.7734 -0.0055
 1929TIP3   OH227201   2.058   5.723  15.834  0.2524 -0.0856 -0.2670
 1929TIP3    H127202   2.136   5.698  15.784 -0.0864 -0.8875 -0.4083
 1929TIP3    H227203   2.024   5.800  15.789  0.9351  0.2553 -0.2260
 1930TIP3   OH227204   6.060   3.931  13.126  0.9085  0.1211  0.7749
 1930TIP3    H127205   6.148   3.892  13.126  0.7315 -0.3185 -0.6883
 1930TIP3    H227206   6.026   3.914  13.039 -1.6200 -1.8959  2.0112
 1931TIP3   OH227207   4.444   6.658   2.234 -0.1539  0.2357  0.1522
 1931TIP3    H127208   4.453   6.726   2.300  1.4067 -0.1711  0.4030
 1931TIP3    H227209   4.350   6.642   2.228 -0.3889  0.9591  1.5828
 1932TIP3   OH227210   4.996   3.756   6.344  0.4630  0.1515  0.6422
 1932TIP3    H127211   4.927   3.748   6.409 -1.3448 -1.6127 -1.3551
 1932TIP3    H227212   5.034   3.668   6.338  1.2526  0.5181 -0.0234
 1933TIP3   OH227213   4.415   0.281  15.719 -0.6251  0.2167  0.4313
 1933TIP3    H127214   4.417   0.341  15.794 -2.8542  0.7311  0.1572
 1933TIP3    H227215   4.411   0.339  15.642  4.5136 -0.1661 -0.5283
 1934TIP3   OH227216   2.843   2.275  16.582  0.1014 -0.1974 -0.3374
 1934TIP3    H127217   2.793   2.293  16.502  1.7945  1.5809 -1.0956
 1934TIP3    H227218   2.799   2.325  16.650  0.7186  1.2898 -0.9803
 1935TIP3   OH227219   0.781   3.789   1.885 -0.7049 -0.4459 -0.6797
 1935TIP3    H127220   0.812   3.707   1.923 -0.1197  0.9133  2.0677
 1935TIP3    H227221   0.861   3.839   1.868 -1.1154  0.3716 -0.2585
 1936TIP3   OH227222   6.451   4.691   5.174 -0.4009  0.1704 -0.0258
 1936TIP3    H127223   6.408   4.668   5.257  0.3223 -1.8724 -0.1567
 1936TIP3    H227224   6.482   4.780   5.188  0.9352 -0.5728  2.4901
 1937TIP3   OH227225   1.379   1.618  15.863 -0.3407  0.1679  0.5514
 1937TIP3    H127226   1.377   1.698  15.810  0.7905  0.0305  0.2823
 1937TIP3    H227227   1.450   1.632  15.926  0.2711 -0.8518  0.1207
 1938TIP3   OH227228   1.622   5.680   6.217 -0.1005 -0.1948  0.0252
 1938TIP3    H127229   1.560   5.715   6.281  0.9742  0.8634  0.5405
 1938TIP3    H227230   1.637   5.753   6.157  0.3888 -0.5489 -0.2850
 1939TIP3   OH227231   4.853   3.368  14.632  0.0535 -0.1552 -0.3853
 1939TIP3    H127232   4.792   3.434  14.600  1.0731  1.4443  0.8016
 1939TIP3    H227233   4.828   3.354  14.723  1.0972  0.1240 -0.0445
 1940TIP3   OH227234   0.526   5.939   1.875  0.3484 -0.1012  0.6116
 1940TIP3    H127235   0.522   6.028   1.839 -2.4396 -0.0189  0.9411
 1940TIP3    H227236   0.519   5.952   1.970  0.5536 -0.6699  0.7057
 1941TIP3   OH227237   2.361   5.288  14.518 -0.1035 -0.2525  0.3382
 1941TIP3    H127238   2.387   5.266  14.607 -1.0287 -0.6147  0.5278
 1941TIP3    H227239   2.410   5.226  14.463  0.5470  0.0396  0.5758
 1942TIP3   OH227240   4.107   0.195  12.118  0.5659 -0.5444 -0.0339
 1942TIP3    H127241   4.069   0.281  12.101 -0.0592 -1.1146 -1.8156
 1942TIP3    H227242   4.059   0.162  12.194  0.9613  0.7537  0.7909
 1943TIP3   OH227243   3.799   5.336  10.740 -0.1200 -0.6644 -0.6531
 1943TIP3    H127244   3.852   5.384  10.804 -1.5921 -3.9671  3.4615
 1943TIP3    H227245   3.852   5.260  10.717 -1.0368 -1.3688 -0.4886
 1944TIP3   OH227246   4.324   0.296  11.717  0.5538 -0.5176  0.3854
 1944TIP3    H127247   4.230   0.286  11.702  0.8320 -3.7178  0.0982
 1944TIP3    H227248   4.347   0.224  11.776  3.2028 -1.4197 -1.5275
 1945TIP3   OH227249   3.350   0.327   1.884 -0.1893 -0.2059 -0.0591
 1945TIP3    H127250   3.348   0.412   1.839  0.1232 -0.2980 -0.2499
 1945TIP3    H227251   3.270   0.284   1.857 -0.9639  0.5223  1.0092
 1946TIP3   OH227252   0.980   2.028  13.129 -0.4041  0.5605 -0.0274
 1946TIP3    H127253   0.922   2.097  13.158 -0.4839  0.7826 -0.6892
 1946TIP3    H227254   1.019   1.993  13.209 -1.8743  0.0234  0.4778
 1947TIP3   OH227255   1.242   2.086   4.084  0.4129  0.0468 -0.3676
 1947TIP3    H127256   1.281   2.161   4.039  0.5706 -0.0095 -0.3264
 1947TIP3    H227257   1.300   2.071   4.159  1.5508 -1.3744 -1.4789
 1948TIP3   OH227258   5.364   6.281  15.310  0.2540  0.5640  0.0924
 1948TIP3    H127259   5.319   6.203  15.280  2.0271  0.0123 -1.2907
 1948TIP3    H227260   5.295   6.347  15.321 -1.1308 -0.8846  0.3173
 1949TIP3   OH227261   0.235   1.849  15.779  0.4843  0.1322  0.0307
 1949TIP3    H127262   0.293   1.783  15.816  0.2182  0.9230  1.9741
 1949TIP3    H227263   0.294   1.912  15.737  1.0858  0.8644  1.8700
 1950TIP3   OH227264   0.056   3.398   4.501  0.5286 -0.0548 -0.3425
 1950TIP3    H127265   0.014   3.471   4.457  0.0378  0.7182  1.3131
 1950TIP3    H227266   0.000   3.322   4.481 -0.8584  0.6726  0.5961
 1951TIP3   OH227267   4.218   3.174   5.750  0.4367  0.1567  0.1441
 1951TIP3    H127268   4.149   3.239   5.765 -1.7754 -2.4524  2.3150
 1951TIP3    H227269   4.270   3.175   5.831 -0.6428 -1.7990  0.9321
 1952TIP3   OH227270   5.314   6.190   1.534  0.0702 -0.3281 -0.4353
 1952TIP3    H127271   5.379   6.120   1.528  1.6439  0.9552  0.8663
 1952TIP3    H227272   5.278   6.183   1.622  1.2546  1.3239  0.2115
 1953TIP3   OH227273   2.122   4.184   4.584  0.2482  0.6029 -0.8070
 1953TIP3    H127274   2.058   4.115   4.569  1.5924 -1.0210  0.5557
 1953TIP3    H227275   2.073   4.255   4.625 -0.9673  0.0605 -1.3007
 1954TIP3   OH227276   6.213   4.083  14.178 -0.3963 -0.6294  0.3555
 1954TIP3    H127277   6.283   4.123  14.230 -0.5922 -0.5063  0.5296
 1954TIP3    H227278   6.163   4.158  14.145 -0.3948 -0.7144  0.1615
 1955TIP3   OH227279   0.387   3.355   1.612 -0.6549  0.0868 -0.2984
 1955TIP3    H127280   0.445   3.279   1.621 -2.0601 -1.1423 -1.2213
 1955TIP3    H227281   0.446   3.426   1.584  0.3554 -1.2379 -1.7237
 1956TIP3   OH227282   2.553   2.428   1.010  0.6174  0.2515  0.0485
 1956TIP3    H127283   2.630   2.469   0.971 -0.5404 -0.3583 -3.2006
 1956TIP3    H227284   2.481   2.455   0.954 -1.7200  1.1060  3.1677
 1957TIP3   OH227285   6.659   2.641  11.208  0.6308  0.7165 -0.4816
 1957TIP3    H127286   6.586   2.579  11.216  1.0260  0.4526  1.7388
 1957TIP3    H227287   6.642   2.687  11.126 -2.0499  0.6898 -0.0359
 1958TIP3   OH227288   4.085   0.970  10.685 -0.4764 -0.3520  0.1339
 1958TIP3    H127289   4.118   0.948  10.598 -2.2025  2.4274 -1.3886
 1958TIP3    H227290   4.155   1.022  10.725  0.1433 -1.2642  0.2677
 1959TIP3   OH227291   4.529   6.334   4.683  0.6007  0.4346 -0.2039
 1959TIP3    H127292   4.461   6.338   4.616 -1.0620  0.1245  1.3871
 1959TIP3    H227293   4.579   6.415   4.672 -0.0219  0.6756 -1.4030
 1960TIP3   OH227294   2.697   0.126   0.829  0.2354  0.3180  0.3028
 1960TIP3    H127295   2.645   0.052   0.799  0.7627  0.3317 -0.6585
 1960TIP3    H227296   2.711   0.179   0.751  1.4691  0.4545  0.6010
 1961TIP3   OH227297   6.576   5.339  15.142 -0.9107  0.1042  0.1216
 1961TIP3    H127298   6.512   5.269  15.155 -0.7810 -0.4074 -1.6955
 1961TIP3    H227299   6.524   5.415  15.116 -0.9936  0.5234  1.4479
 1962TIP3   OH227300   1.488   5.987  11.137  0.4024  0.2929 -0.0647
 1962TIP3    H127301   1.502   6.067  11.188 -2.2982  1.9816 -1.7402
 1962TIP3    H227302   1.570   5.975  11.089  2.4351 -0.4692  3.3158
 1963TIP3   OH227303   4.583   2.518  14.339  0.2697 -0.2128  0.8400
 1963TIP3    H127304   4.511   2.532  14.401 -0.0966  1.0369  0.1543
 1963TIP3    H227305   4.552   2.557  14.257 -1.0236 -5.2519 -1.4668
 1964TIP3   OH227306   1.029   5.159  11.912  0.5684  0.3400  0.3983
 1964TIP3    H127307   0.957   5.126  11.966 -0.6603  0.8292 -0.8889
 1964TIP3    H227308   1.089   5.199  11.975 -1.0973  1.4209  1.3864
 1965TIP3   OH227309   1.666   5.950  11.762  0.3266  0.6349 -0.4853
 1965TIP3    H127310   1.734   5.978  11.824 -0.6753  2.9224 -0.3281
 1965TIP3    H227311   1.651   6.026  11.707 -1.7037 -0.0162 -0.9055
 1966TIP3   OH227312   2.810   4.881  12.881  0.0367  0.5690 -0.1811
 1966TIP3    H127313   2.849   4.856  12.965  1.3879  1.5731 -0.4616
 1966TIP3    H227314   2.885   4.906  12.827 -0.9513  1.7500 -1.0575
 1967TIP3   OH227315   5.960   5.335  15.630  0.0934 -0.2002 -0.0975
 1967TIP3    H127316   5.919   5.388  15.562  1.7504 -0.3919 -1.3075
 1967TIP3    H227317   6.044   5.379  15.648 -0.2012 -0.2926  1.6670
 1968TIP3   OH227318   0.002   2.357   4.988  0.7051  0.4600 -0.1058
 1968TIP3    H127319   0.050   2.274   4.977 -1.5771 -1.6181  3.5279
 1968TIP3    H227320   0.057   2.409   5.046  0.6169 -0.0064  0.4035
 1969TIP3   OH227321   1.789   1.457   0.413 -0.5727  0.2756  0.4327
 1969TIP3    H127322   1.763   1.367   0.433 -1.3951  0.2255 -0.7430
 1969TIP3    H227323   1.716   1.511   0.444 -0.4469  0.4688  0.3953
 1970TIP3   OH227324   0.190   5.539   3.353  0.2215  0.7228  0.0078
 1970TIP3    H127325   0.103   5.572   3.334 -0.4192 -1.8475 -2.1156
 1970TIP3    H227326   0.186   5.446   3.330  2.8862 -0.0285  2.0621
 1971TIP3   OH227327   5.927   0.150  15.561  0.3456  0.5588 -0.2310
 1971TIP3    H127328   5.834   0.168  15.547  0.5647  1.6297 -0.4168
 1971TIP3    H227329   5.929   0.090  15.636 -0.5142  0.0169 -0.6268
 1972TIP3   OH227330   1.374   3.977   3.566  0.0922  0.1438 -0.4230
 1972TIP3    H127331   1.411   4.052   3.614 -1.3425  0.3457  0.4223
 1972TIP3    H227332   1.307   3.942   3.625 -0.4372 -0.7658 -1.5350
 1973TIP3   OH227333   1.070   3.716   4.549  0.0469  0.3383  0.4045
 1973TIP3    H127334   1.108   3.629   4.561  1.7704  1.0446  0.4035
 1973TIP3    H227335   1.014   3.728   4.626  1.5793  0.0733  1.6361
 1974TIP3   OH227336   4.604   1.774   1.859  0.6106  0.6768  0.4949
 1974TIP3    H127337   4.599   1.778   1.764 -0.9751 -0.5122  0.4790
 1974TIP3    H227338   4.693   1.746   1.878  0.5245 -0.4962 -0.7222
 1975TIP3   OH227339   1.152   0.150   2.925  0.0259  0.6703  0.3031
 1975TIP3    H127340   1.221   0.188   2.979 -0.4672  1.5638  0.3304
 1975TIP3    H227341   1.071   0.189   2.958 -0.6278 -1.1348  0.9634
 1976TIP3   OH227342   4.495   0.745  15.067 -0.4497  0.0736 -0.0344
 1976TIP3    H127343   4.590   0.751  15.066 -0.4217 -0.1988 -1.3940
 1976TIP3    H227344   4.474   0.707  15.152  0.6807 -0.2294  0.1253
 1977TIP3   OH227345   1.063   1.003  10.912 -0.2777 -0.3580  0.1504
 1977TIP3    H127346   0.980   0.957  10.919  0.2747 -1.1300  2.3732
 1977TIP3    H227347   1.129   0.938  10.934  0.5383  1.3485  3.5466
 1978TIP3   OH227348   4.485   0.639  11.063 -0.0376 -0.1051  0.1828
 1978TIP3    H127349   4.552   0.612  11.000  0.6793 -0.5917  1.1284
 1978TIP3    H227350   4.403   0.609  11.025  0.4535 -0.9796 -0.2140
 1979TIP3   OH227351   4.587   4.432  11.306 -0.3968  0.4213  0.5379
 1979TIP3    H127352   4.533   4.354  11.295  0.4485  0.0444 -1.3636
 1979TIP3    H227353   4.670   4.400  11.340 -0.5170  0.6874  1.0971
 1980TIP3   OH227354   4.029   1.167   0.366 -0.2086  0.9283 -0.1262
 1980TIP3    H127355   3.935   1.168   0.386  0.0998  0.2269  1.5715
 1980TIP3    H227356   4.034   1.184   0.272 -2.0848  0.1821 -0.4087
 1981TIP3   OH227357   1.015   2.519   3.880  0.2879 -0.5884 -0.1922
 1981TIP3    H127358   1.100   2.493   3.916 -0.5700 -0.8557  1.8027
 1981TIP3    H227359   0.961   2.440   3.887 -0.3742 -0.1905 -0.6452
 1982TIP3   OH227360   4.251   2.930   2.736  0.3479 -0.3089  0.6970
 1982TIP3    H127361   4.322   2.963   2.793  1.8647 -1.3061 -0.5336
 1982TIP3    H227362   4.202   2.870   2.792  1.8910 -1.3790  0.9534
 1983TIP3   OH227363   6.585   2.396  16.787  0.0813  0.3223 -0.2214
 1983TIP3    H127364   6.599   2.313  16.832  2.0942  0.7116 -0.0381
 1983TIP3    H227365   6.530   2.447  16.846  1.9252  0.4828  1.4574
 1984TIP3   OH227366   1.102   6.085  10.472 -0.1220 -0.0881  0.0007
 1984TIP3    H127367   1.120   5.992  10.488 -0.4991 -0.4948 -1.7410
 1984TIP3    H227368   1.073   6.088  10.381  1.1726  1.9068 -0.4103
 1985TIP3   OH227369   1.518   1.059   2.607 -0.2485 -0.9160  0.4509
 1985TIP3    H127370   1.438   1.036   2.655 -1.0141 -1.7738 -1.1364
 1985TIP3    H227371   1.537   1.149   2.634 -2.9773  0.1002 -0.6167
 1986TIP3   OH227372   5.807   1.532   3.122  0.3884 -0.8413  0.3921
 1986TIP3    H127373   5.833   1.462   3.062 -0.0857 -0.2927 -0.4670
 1986TIP3    H227374   5.885   1.586   3.133 -0.5403  1.5747 -3.2253
 1987TIP3   OH227375   5.713   4.340  13.071  0.1882  0.0495 -0.4520
 1987TIP3    H127376   5.633   4.297  13.041  1.3085 -2.0882 -0.5312
 1987TIP3    H227377   5.687   4.431  13.085 -2.2083 -0.5398 -0.6290
 1988TIP3   OH227378   6.329   4.502  12.082  0.2098  0.2057 -0.0365
 1988TIP3    H127379   6.259   4.457  12.035 -0.0701 -0.0430  0.6224
 1988TIP3    H227380   6.333   4.460  12.167  1.2582  0.1166 -0.1149
 1989TIP3   OH227381   3.857   4.552   1.923 -0.1892 -0.2931  0.3108
 1989TIP3    H127382   3.929   4.585   1.977 -0.5210 -1.0055  1.2270
 1989TIP3    H227383   3.825   4.475   1.971 -2.2738  0.6332  0.5061
 1990TIP3   OH227384   0.689   5.041   3.411 -0.1500  0.2539 -1.0016
 1990TIP3    H127385   0.706   5.135   3.421 -1.6551  0.5402 -0.9350
 1990TIP3    H227386   0.746   5.000   3.476  0.3334  1.1355 -0.8499
 1991TIP3   OH227387   1.556   2.008  13.037  0.4443  0.0287 -0.5219
 1991TIP3    H127388   1.541   2.096  13.072 -0.9426 -0.7191  0.8879
 1991TIP3    H227389   1.476   1.960  13.056  1.5434 -1.8454 -0.3201
 1992TIP3   OH227390   3.455   2.877  10.652 -0.8363  0.5694 -0.4231
 1992TIP3    H127391   3.544   2.904  10.676 -0.9961  1.9984 -1.2807
 1992TIP3    H227392   3.453   2.783  10.667  1.5954  0.0338 -2.6526
 1993TIP3   OH227393   1.377   1.027  12.340 -0.3065 -0.0374 -0.1201
 1993TIP3    H127394   1.306   1.080  12.377  1.7484  1.3460  2.1236
 1993TIP3    H227395   1.379   0.949  12.395  0.8801  0.6739  0.8937
 1994TIP3   OH227396   2.244   4.908  11.072  0.3505  0.5883 -0.3344
 1994TIP3    H127397   2.188   4.885  10.998 -0.3314  0.8948  0.0785
 1994TIP3    H227398   2.320   4.950  11.032  0.2089  0.3214 -0.8939
 1995TIP3   OH227399   3.838   3.991   1.228 -0.0186 -0.4310  0.5140
 1995TIP3    H127400   3.926   4.015   1.256  0.5063 -1.0914 -0.5258
 1995TIP3    H227401   3.788   3.984   1.309  0.5266  1.2698  1.0373
 1996TIP3   OH227402   4.708   0.134  11.485 -0.3282  0.4092 -0.0087
 1996TIP3    H127403   4.646   0.204  11.508 -1.9588 -0.9955  0.0934
 1996TIP3    H227404   4.653   0.057  11.472  1.2198 -0.4507 -1.9714
 1997TIP3   OH227405   5.956   5.836   2.035  0.5352 -0.5105 -0.2788
 1997TIP3    H127406   6.035   5.795   2.072 -0.6135 -1.7018  0.9796
 1997TIP3    H227407   5.891   5.765   2.034 -1.2739  1.0339  1.1201
 1998TIP3   OH227408   3.476   6.514  13.062  0.6476 -0.4922  0.3806
 1998TIP3    H127409   3.401   6.572  13.047 -0.4404 -1.6422  1.1631
 1998TIP3    H227410   3.513   6.500  12.974 -0.8714 -0.9651 -0.2202
 1999TIP3   OH227411   0.366   1.436   5.725  0.1476 -0.2680 -0.0956
 1999TIP3    H127412   0.330   1.442   5.636 -0.5600  0.1743  0.2148
 1999TIP3    H227413   0.295   1.400   5.777  0.9081 -1.5082  0.1026
 2000TIP3   OH227414   4.654   3.125   2.547  0.0136 -0.0243 -0.7831
 2000TIP3    H127415   4.715   3.199   2.546 -1.1331  1.0028  0.0550
 2000TIP3    H227416   4.630   3.115   2.640  0.3017 -1.6064 -0.8544
 2001TIP3   OH227417   2.054   2.526  13.647  0.4373 -0.6273 -0.5243
 2001TIP3    H127418   2.007   2.530  13.730  2.2449 -1.9833  0.6605
 2001TIP3    H227419   2.036   2.438  13.614  0.8745 -0.6073 -0.8320
 2002TIP3   OH227420   1.684   4.989   1.081 -0.0708  0.5060 -0.2978
 2002TIP3    H127421   1.589   5.001   1.074 -0.0736  0.8260  0.2819
 2002TIP3    H227422   1.695   4.895   1.096 -0.2674  0.4006 -0.7789
 2003TIP3   OH227423   3.830   0.238  15.025  0.2107  0.0363 -0.4259
 2003TIP3    H127424   3.832   0.143  15.037 -1.3990  0.0721  0.3603
 2003TIP3    H227425   3.799   0.251  14.936  0.6652 -0.1638 -0.6174
 2004TIP3   OH227426   1.230   3.156  16.590 -0.4988  0.0881 -0.0232
 2004TIP3    H127427   1.203   3.100  16.662 -0.1838  1.5916  1.3061
 2004TIP3    H227428   1.148   3.187  16.551 -0.6903  0.4218  0.6303
 2005TIP3   OH227429   3.941   1.763   1.609  0.3232  0.1191  0.5024
 2005TIP3    H127430   4.030   1.797   1.602 -0.2832  1.4852 -2.0152
 2005TIP3    H227431   3.895   1.828   1.661  0.4529  0.2178  0.4950
 2006TIP3   OH227432   5.513   4.114  16.872 -0.0859 -0.1481  0.3345
 2006TIP3    H127433   5.458   4.113  16.793 -1.4436 -0.4548  1.2438
 2006TIP3    H227434   5.492   4.198  16.915 -2.1661 -1.4991  2.1916
 2007TIP3   OH227435   5.200   6.612  14.297  0.1019 -0.3127 -0.8679
 2007TIP3    H127436   5.262   6.595  14.368 -0.0087 -0.6551 -0.8520
 2007TIP3    H227437   5.114   6.596  14.336 -0.1034  1.4249 -0.5052
 2008TIP3   OH227438   4.354   4.044  11.502  0.2649  0.3831  0.1105
 2008TIP3    H127439   4.369   4.124  11.450 -2.0881  0.5112 -0.4851
 2008TIP3    H227440   4.332   4.077  11.589 -0.4597  0.3869 -0.0704
 2009TIP3   OH227441   0.221   5.902  15.802 -0.0649 -0.1854  0.0247
 2009TIP3    H127442   0.160   5.969  15.832  0.6605 -0.1806  1.6296
 2009TIP3    H227443   0.182   5.819  15.832 -0.3180 -0.3634 -0.7956
 2010TIP3   OH227444   1.847   2.312  12.179  0.2129 -0.4917  0.3090
 2010TIP3    H127445   1.822   2.392  12.132  2.5344  0.6263  0.8499
 2010TIP3    H227446   1.943   2.310  12.175  0.2460 -3.6814 -0.3350
 2011TIP3   OH227447   2.828   1.007  13.828 -0.0070 -0.2593  0.7387
 2011TIP3    H127448   2.749   0.980  13.781  0.5268  0.2850 -0.5329
 2011TIP3    H227449   2.820   0.966  13.914 -0.2095 -2.7649 -0.3880
 2012TIP3   OH227450   0.592   1.264  13.762 -0.3528  0.4110 -0.6961
 2012TIP3    H127451   0.673   1.315  13.767  0.0219 -0.1518 -0.9347
 2012TIP3    H227452   0.554   1.271  13.850  0.3709  0.0061 -0.3430
 2013TIP3   OH227453   1.773   6.398   2.944 -0.3354 -0.4195  0.2895
 2013TIP3    H127454   1.803   6.402   3.035 -0.5192  0.8975  0.3108
 2013TIP3    H227455   1.806   6.479   2.904 -1.2500 -0.4199 -0.5023
 2014TIP3   OH227456   2.397   4.906   4.651 -0.2019 -0.0125 -0.0248
 2014TIP3    H127457   2.324   4.955   4.690 -2.3407 -2.7744 -0.2383
 2014TIP3    H227458   2.376   4.903   4.557  1.2439  0.7443 -0.3971
 2015TIP3   OH227459   5.202   2.121  11.955  0.1058  0.3993 -0.4358
 2015TIP3    H127460   5.262   2.048  11.966 -0.5977 -0.2158 -0.5771
 2015TIP3    H227461   5.256   2.193  11.925  0.5988 -0.4542 -1.6581
 2016TIP3   OH227462   2.605   5.460   1.531  0.0990  0.2375  0.7814
 2016TIP3    H127463   2.584   5.551   1.551 -1.3075  0.0374  0.2982
 2016TIP3    H227464   2.591   5.413   1.612 -1.3767  0.1132  0.4788
 2017TIP3   OH227465   0.086   4.034  14.467 -0.1347 -0.0894  0.2161
 2017TIP3    H127466   0.163   4.085  14.490 -0.1403  0.4543 -0.9440
 2017TIP3    H227467   0.042   4.085  14.400 -0.9356 -0.9136  0.0967
 2018TIP3   OH227468   2.993   0.323   5.199 -0.6375 -0.8248 -0.0748
 2018TIP3    H127469   2.971   0.325   5.106 -2.0128  0.5787  0.2397
 2018TIP3    H227470   3.088   0.336   5.201 -0.5398 -1.2692 -1.2938
 2019TIP3   OH227471   4.697   4.499   3.955  0.2648 -0.0091 -0.4074
 2019TIP3    H127472   4.698   4.584   3.999 -1.6273  0.7275 -1.6802
 2019TIP3    H227473   4.631   4.449   4.002  1.7658 -1.0248  0.6937
 2020TIP3   OH227474   5.136   0.273   0.775  0.2398 -0.1329  0.3996
 2020TIP3    H127475   5.075   0.320   0.832 -0.5410 -0.3729 -0.2180
 2020TIP3    H227476   5.204   0.242   0.834 -1.2923 -1.6395  1.4790
 2021TIP3   OH227477   5.060   1.880   0.359  0.7798 -0.4508 -0.1627
 2021TIP3    H127478   5.039   1.902   0.268  1.3269 -0.7837 -0.3740
 2021TIP3    H227479   5.070   1.965   0.402  0.6403 -0.2927 -0.4383
 2022TIP3   OH227480   3.784   1.881   6.170 -0.1579 -0.3219 -0.1059
 2022TIP3    H127481   3.746   1.930   6.243 -0.8068 -1.3121  0.2309
 2022TIP3    H227482   3.846   1.821   6.212  1.0371  0.5444 -0.5627
 2023TIP3   OH227483   3.231   5.292   2.294  0.4328  0.1108  0.8448
 2023TIP3    H127484   3.279   5.346   2.356 -0.9920  0.7270  1.4645
 2023TIP3    H227485   3.197   5.219   2.347  1.2689 -0.7091  0.2755
 2024TIP3   OH227486   1.613   6.189  11.282 -0.4400  0.4297  0.3187
 2024TIP3    H127487   1.544   6.255  11.280  0.9672  2.0750  1.7573
 2024TIP3    H227488   1.655   6.201  11.368  0.6075 -1.5745  0.1441
 2025TIP3   OH227489   4.789   0.153  12.440  0.2121  0.6419 -0.3419
 2025TIP3    H127490   4.811   0.149  12.347  0.4674  1.9798 -0.3690
 2025TIP3    H227491   4.872   0.173  12.484  0.6906 -2.7178  0.5341
 2026TIP3   OH227492   3.536   3.135   0.592 -0.0724 -0.3136 -0.0889
 2026TIP3    H127493   3.516   3.199   0.524  1.1791 -0.4789 -0.6291
 2026TIP3    H227494   3.508   3.177   0.673 -0.4879  0.3686 -0.5767
 2027TIP3   OH227495   0.736   6.727  15.314 -0.2198  0.1877 -0.0757
 2027TIP3    H127496   0.709   6.638  15.334 -1.7582  0.9688  1.6796
 2027TIP3    H227497   0.817   6.740  15.363 -0.7288  0.1559  0.7978
 2028TIP3   OH227498   0.923   1.246  13.676  0.8661 -0.3119 -0.0006
 2028TIP3    H127499   0.926   1.280  13.587 -0.0980 -0.0174  0.0666
 2028TIP3    H227500   0.905   1.153  13.666 -1.1877  0.0400 -0.1102
 2029TIP3   OH227501   5.601   6.170   4.099 -0.4705 -0.3336  0.1909
 2029TIP3    H127502   5.558   6.256   4.097 -0.3916 -0.2546  1.2998
 2029TIP3    H227503   5.582   6.136   4.186  1.6130 -0.3421  0.6986
 2030TIP3   OH227504   5.661   3.836   0.174  0.5256  0.8099  1.3375
 2030TIP3    H127505   5.640   3.772   0.106  0.7387  0.5441  1.5177
 2030TIP3    H227506   5.744   3.805   0.210  0.2566  0.7698  1.9365
 2031TIP3   OH227507   4.526   2.278   3.285  0.3740  0.3120 -0.5804
 2031TIP3    H127508   4.577   2.222   3.226 -0.3122 -1.5660  0.5179
 2031TIP3    H227509   4.591   2.322   3.339  0.8984 -0.4370 -0.5922
 2032TIP3   OH227510   5.286   1.897   3.269 -0.1890  0.1140 -0.2979
 2032TIP3    H127511   5.370   1.927   3.305 -0.1833  2.6971 -2.1257
 2032TIP3    H227512   5.266   1.817   3.317  3.5975 -0.9582 -0.1451
 2033TIP3   OH227513   4.570   2.313  15.636 -0.3450 -0.3241  0.4726
 2033TIP3    H127514   4.633   2.240  15.635  0.8854  0.6962  0.6946
 2033TIP3    H227515   4.579   2.354  15.550 -0.4255  0.0565  0.6430
 2034TIP3   OH227516   5.221   4.265   2.662 -0.5774 -0.2402  0.4946
 2034TIP3    H127517   5.230   4.355   2.632 -0.0143 -0.2346  0.6658
 2034TIP3    H227518   5.218   4.272   2.758  1.3361 -0.5238  0.6217
 2035TIP3   OH227519   4.132   0.045  14.734 -0.0836  0.6398 -0.1937
 2035TIP3    H127520   4.197   0.059  14.665 -1.0275  0.8541 -1.0626
 2035TIP3    H227521   4.085  -0.034  14.708  0.4359 -0.0639  0.9293
 2036TIP3   OH227522   5.451   3.410  16.133  0.2183  0.0884  0.4194
 2036TIP3    H127523   5.357   3.393  16.141  0.5233 -1.1352  1.5964
 2036TIP3    H227524   5.486   3.399  16.221  1.6989 -0.9376 -0.2586
 2037TIP3   OH227525   1.773   6.235  15.503  0.1188 -0.1156 -0.0758
 2037TIP3    H127526   1.842   6.175  15.474  0.3164 -0.0313  0.2097
 2037TIP3    H227527   1.696   6.180  15.515  0.3509 -0.3487  0.3756
 2038TIP3   OH227528   6.602   2.948   2.316  0.7228  0.0387 -0.3031
 2038TIP3    H127529   6.696   2.935   2.321  0.8818  1.0859 -0.3019
 2038TIP3    H227530   6.580   2.930   2.224  0.9195 -0.1955 -0.3064
 2039TIP3   OH227531   6.481   4.844   0.423 -0.1317  0.7006  0.2516
 2039TIP3    H127532   6.428   4.764   0.418  0.2305  0.5452 -2.1295
 2039TIP3    H227533   6.426   4.911   0.383  0.4500  1.1413  0.1829
 2040TIP3   OH227534   1.809   6.576  13.270  0.0485 -0.1991  0.1199
 2040TIP3    H127535   1.840   6.523  13.197  0.4614 -1.7158  1.3294
 2040TIP3    H227536   1.792   6.512  13.340 -1.4821  1.0666  0.9599
 2041TIP3   OH227537   5.125   5.594   5.674  0.2331  0.1335 -0.5562
 2041TIP3    H127538   5.208   5.546   5.669  0.2062  0.0859 -0.5456
 2041TIP3    H227539   5.069   5.540   5.729  0.4345  0.5255  0.0463
 2042TIP3   OH227540   2.048   3.849   3.050 -0.1939 -0.0514 -0.2907
 2042TIP3    H127541   2.142   3.848   3.034 -0.0752 -1.6627  0.3021
 2042TIP3    H227542   2.031   3.934   3.089  0.9402  0.4308 -0.8094
 2043TIP3   OH227543   4.717   2.360  13.299  0.2762 -0.3040  0.1180
 2043TIP3    H127544   4.677   2.411  13.369 -0.4107 -0.3605 -0.2264
 2043TIP3    H227545   4.769   2.293  13.344  0.3770  0.0794  0.5687
 2044TIP3   OH227546   1.575   1.807  12.575 -0.6493  0.1728  0.3066
 2044TIP3    H127547   1.667   1.834  12.577 -1.2769  2.6823 -0.4092
 2044TIP3    H227548   1.527   1.885  12.603 -2.6595 -0.2942 -1.5673
 2045TIP3   OH227549   0.942   6.652   1.417  0.2062  0.3014 -0.3203
 2045TIP3    H127550   0.898   6.568   1.404  2.0823 -1.0579  1.4798
 2045TIP3    H227551   0.988   6.667   1.335  1.7331 -1.6971  0.0801
 2046TIP3   OH227552   5.463   0.834  15.137 -0.2214 -0.1562  0.5448
 2046TIP3    H127553   5.519   0.767  15.176  1.4526  0.9480  0.1857
 2046TIP3    H227554   5.446   0.802  15.048 -0.2986 -0.5944  0.7185
 2047TIP3   OH227555   4.360   4.437   3.722  0.1154 -0.1559  0.0067
 2047TIP3    H127556   4.419   4.504   3.687 -0.8786  1.7728  1.8994
 2047TIP3    H227557   4.386   4.427   3.813 -0.5493 -1.5135  0.0764
 2048TIP3   OH227558   5.984   3.542   3.693  0.1081 -0.3439 -0.1879
 2048TIP3    H127559   5.906   3.495   3.664  0.2954 -0.3452 -0.6886
 2048TIP3    H227560   6.051   3.521   3.629  0.0779  0.9630 -0.6884
 2049TIP3   OH227561   3.595   5.918  14.740  0.0636  0.2515  0.4366
 2049TIP3    H127562   3.689   5.907  14.751  0.3074  3.0181  1.9296
 2049TIP3    H227563   3.556   5.871  14.814  0.1106 -1.7532 -0.7258
 2050TIP3   OH227564   0.773   5.146  10.867 -0.5270 -0.2569 -0.2410
 2050TIP3    H127565   0.829   5.088  10.919  0.6151  0.7545 -0.2846
 2050TIP3    H227566   0.804   5.134  10.777 -0.7634 -0.1123 -0.3421
 2051TIP3   OH227567   0.646   5.786  13.594 -0.4857 -0.3127  0.2243
 2051TIP3    H127568   0.589   5.843  13.543  0.7107  1.1854  0.5089
 2051TIP3    H227569   0.586   5.739  13.653 -1.5083  0.5488 -0.0959
 2052TIP3   OH227570   2.928   3.463  12.924  0.1853  0.0253 -0.0932
 2052TIP3    H127571   2.960   3.501  13.006  0.0025 -0.9236  0.4304
 2052TIP3    H227572   2.873   3.531  12.886  0.4055  0.5411  0.4891
 2053TIP3   OH227573   1.887   2.488  16.508  0.2132 -0.0549  0.0979
 2053TIP3    H127574   1.894   2.527  16.595  0.2332  0.5092 -0.1476
 2053TIP3    H227575   1.942   2.410  16.511 -1.4450 -1.2418  1.2345
 2054TIP3   OH227576   2.237   2.272   0.185 -0.6306 -0.1080 -0.1118
 2054TIP3    H127577   2.325   2.236   0.198 -0.8667 -0.8126 -0.4535
 2054TIP3    H227578   2.236   2.301   0.093 -0.8096 -0.2607 -0.1590
 2055TIP3   OH227579   6.761   4.993   5.456  0.5283 -0.0115 -0.3102
 2055TIP3    H127580   6.844   4.989   5.502 -1.4915 -3.8866  3.7220
 2055TIP3    H227581   6.735   5.085   5.461  2.9518  0.6686  1.4990
 2056TIP3   OH227582   3.709   3.742   0.307 -0.3732  0.1036 -0.4024
 2056TIP3    H127583   3.642   3.809   0.321 -0.1220  0.1397  0.7001
 2056TIP3    H227584   3.691   3.707   0.220 -1.2724  0.7376 -0.4750
 2057TIP3   OH227585   3.791   0.249   6.200 -0.0079 -0.4628  0.1321
 2057TIP3    H127586   3.819   0.273   6.288 -1.6182 -2.4693  1.2639
 2057TIP3    H227587   3.866   0.202   6.163  0.5071 -0.0135  0.5823
 2058TIP3   OH227588   1.294   0.907   2.655 -0.2653  0.1053  0.1943
 2058TIP3    H127589   1.373   0.859   2.631  0.3808 -0.7465  3.4785
 2058TIP3    H227590   1.223   0.843   2.642 -0.2458  0.3378 -1.2004
 2059TIP3   OH227591   4.040   4.845  15.616 -0.0200  0.0131  0.2386
 2059TIP3    H127592   4.035   4.907  15.544 -1.6112  0.6075  0.8395
 2059TIP3    H227593   4.069   4.897  15.691 -0.9970 -0.0216  0.6542
 2060TIP3   OH227594   0.096   5.347  14.120 -0.7329 -0.4712  0.2154
 2060TIP3    H127595   0.026   5.320  14.180 -1.8584  0.2945 -0.6943
 2060TIP3    H227596   0.122   5.434  14.152  0.8829 -1.3646  1.4397
 2061TIP3   OH227597   5.445   4.066   2.759 -0.3617  0.4536  0.7140
 2061TIP3    H127598   5.397   4.129   2.812 -2.1414 -0.3167  0.1174
 2061TIP3    H227599   5.435   4.098   2.669  1.1704  0.8321  0.6482
 2062TIP3   OH227600   3.525   0.567   6.039  0.1178  0.3201 -0.2893
 2062TIP3    H127601   3.448   0.551   5.984  0.1444 -0.2364 -0.1690
 2062TIP3    H227602   3.492   0.623   6.109  0.0327  0.8437 -0.7425
 2063TIP3   OH227603   3.377   0.322  11.764  0.4777  0.2821 -0.1778
 2063TIP3    H127604   3.298   0.340  11.713  0.9935  1.3204 -0.6511
 2063TIP3    H227605   3.399   0.407  11.804  1.7959  0.2176 -0.7208
 2064TIP3   OH227606   6.271   6.624   0.026 -0.5065  0.1738 -0.4673
 2064TIP3    H127607   6.221   6.585   0.098  1.4631  0.4029  1.1230
 2064TIP3    H227608   6.216   6.612  -0.051 -2.2562 -1.0241  0.8901
 2065TIP3   OH227609   2.154   2.190  15.619  0.1932  0.1933  0.5755
 2065TIP3    H127610   2.236   2.217  15.659  0.4545 -1.6841  1.4612
 2065TIP3    H227611   2.089   2.250  15.655  0.8585  0.2813  1.7017
 2066TIP3   OH227612   4.184   3.437   1.109 -0.0744 -0.1749  0.0878
 2066TIP3    H127613   4.246   3.510   1.118 -0.4539  0.2016 -0.3088
 2066TIP3    H227614   4.126   3.446   1.185  1.0713 -1.2462  1.1389
 2067TIP3   OH227615   2.090   2.798  15.464 -0.2239 -0.3417 -0.6435
 2067TIP3    H127616   2.018   2.736  15.455  0.8721 -1.5294 -1.4921
 2067TIP3    H227617   2.134   2.798  15.379 -0.1838  1.6153 -0.6732
 2068TIP3   OH227618   1.486   3.107   2.460  0.2975 -0.0735  0.0599
 2068TIP3    H127619   1.544   3.095   2.535  0.5544  1.7075  0.1857
 2068TIP3    H227620   1.406   3.144   2.496  0.9853  2.2760 -0.6601
 2069TIP3   OH227621   2.215   3.612   5.040  0.1788  0.0434  0.4173
 2069TIP3    H127622   2.230   3.706   5.044 -1.6622  0.4432 -0.7100
 2069TIP3    H227623   2.181   3.589   5.127 -0.6336  0.7058  0.2896
 2070TIP3   OH227624   4.902   3.795  12.322 -1.0558  0.2039  0.1227
 2070TIP3    H127625   4.927   3.726  12.261 -0.9523 -0.6007  1.0479
 2070TIP3    H227626   4.814   3.769  12.351 -0.3559 -0.4702  1.7410
 2071TIP3   OH227627   6.544   5.549  12.299  0.2095 -0.0062 -0.0073
 2071TIP3    H127628   6.455   5.546  12.335  0.2508  1.7168  0.3411
 2071TIP3    H227629   6.536   5.508  12.213 -1.3524  1.6960 -0.7464
 2072TIP3   OH227630   0.212   2.283   3.646 -0.0186  0.6910  0.3528
 2072TIP3    H127631   0.270   2.215   3.681 -0.6143 -0.8102 -1.4405
 2072TIP3    H227632   0.193   2.339   3.722  1.8980 -0.1021  1.4970
 2073TIP3   OH227633   5.382   5.246   1.025  0.2373 -0.4304  0.2123
 2073TIP3    H127634   5.340   5.237   0.940 -0.1715  1.0402  0.2363
 2073TIP3    H227635   5.368   5.161   1.068  0.1451 -1.0625 -1.0325
 2074TIP3   OH227636   0.640   4.882   3.215  0.3417  0.2869 -0.1615
 2074TIP3    H127637   0.702   4.915   3.150  1.2304 -0.4919  0.2543
 2074TIP3    H227638   0.661   4.930   3.295 -0.1040  0.5626 -0.2091
 2075TIP3   OH227639   4.610   5.584  13.350  0.0846 -0.3799 -0.3952
 2075TIP3    H127640   4.574   5.577  13.262  1.4295 -1.2462 -0.9127
 2075TIP3    H227641   4.704   5.601  13.336 -0.2004  2.9662  0.8793
 2076TIP3   OH227642   1.547   4.451  10.505 -0.6115 -0.4896  0.1297
 2076TIP3    H127643   1.584   4.363  10.506  0.5925  0.0110  0.8801
 2076TIP3    H227644   1.492   4.456  10.583  2.4260  0.6604  2.3730
 2077TIP3   OH227645   2.164   6.262   0.547 -0.3740  0.8165  0.1634
 2077TIP3    H127646   2.245   6.209   0.548 -0.5059  0.6002 -0.4126
 2077TIP3    H227647   2.167   6.309   0.464 -0.8090  0.8622  0.1729
 2078TIP3   OH227648   5.021   3.595   3.891 -0.2860  0.1525 -0.4171
 2078TIP3    H127649   4.935   3.629   3.867 -0.1308  0.8421  0.0010
 2078TIP3    H227650   5.028   3.609   3.985 -0.8562 -2.4728  0.1072
 2079TIP3   OH227651   0.712   2.339   2.919 -0.5368 -0.6011  0.2491
 2079TIP3    H127652   0.687   2.416   2.868 -0.6277 -1.6802 -1.4017
 2079TIP3    H227653   0.806   2.350   2.936 -0.2104 -0.8241 -1.2868
 2080TIP3   OH227654   0.962   2.612   3.292  0.0152  0.4644  0.2763
 2080TIP3    H127655   0.912   2.535   3.264 -2.5668  2.2061 -0.1694
 2080TIP3    H227656   1.015   2.580   3.365 -0.6636 -1.8177 -0.1332
 2081TIP3   OH227657   0.794   4.923  13.977  0.6461 -0.0550  0.1298
 2081TIP3    H127658   0.703   4.899  13.994  0.7107 -0.9098 -0.6071
 2081TIP3    H227659   0.841   4.839  13.977  0.7678 -0.1152 -3.3162
 2082TIP3   OH227660   0.158   0.584  14.238  0.1096 -0.0738 -0.5494
 2082TIP3    H127661   0.157   0.500  14.192 -0.9783 -1.1125  1.2426
 2082TIP3    H227662   0.072   0.621  14.223  0.0419 -0.0294 -0.0853
 2083TIP3   OH227663   5.256   4.096  17.064 -0.1838  0.5639 -0.1057
 2083TIP3    H127664   5.337   4.145  17.076  0.8041 -0.2715 -2.5601
 2083TIP3    H227665   5.215   4.136  16.987 -0.8634 -0.5491 -0.3499
 2084TIP3   OH227666   5.481   0.025   0.658  0.5432  0.2717  0.1498
 2084TIP3    H127667   5.441   0.109   0.680  0.2398 -0.1769  1.4090
 2084TIP3    H227668   5.407  -0.036   0.656  1.1389 -0.6935  3.1187
 2085TIP3   OH227669   6.176   2.857  15.988 -0.4326 -0.0121  0.0556
 2085TIP3    H127670   6.200   2.791  16.053 -2.7751 -2.4446 -1.3485
 2085TIP3    H227671   6.258   2.877  15.943  0.4266 -1.6970  0.7789
 2086TIP3   OH227672   4.819   1.789   1.196  0.6361  0.0719  0.6115
 2086TIP3    H127673   4.812   1.861   1.132  1.2188 -1.1087 -0.8377
 2086TIP3    H227674   4.783   1.826   1.277 -0.9137  1.3647 -0.5871
 2087TIP3   OH227675   4.352   2.824   1.931 -0.8047  0.7196  0.8183
 2087TIP3    H127676   4.419   2.822   1.863 -0.5749 -0.8434  1.0548
 2087TIP3    H227677   4.400   2.817   2.013 -1.2206 -0.9270  0.9745
 2088TIP3   OH227678   1.355   1.025   1.812 -0.4007  0.5139 -0.1106
 2088TIP3    H127679   1.327   1.112   1.784 -0.4834  0.2027 -1.0122
 2088TIP3    H227680   1.439   1.011   1.769 -2.1211 -1.3925 -3.2340
 2089TIP3   OH227681   6.255   2.337   5.258  0.4190 -0.5145  0.3572
 2089TIP3    H127682   6.210   2.331   5.342  0.2937  0.9178  0.4246
 2089TIP3    H227683   6.347   2.323   5.279  1.0080  3.7104  1.5004
 2090TIP3   OH227684   4.140   5.941  16.233  0.4376 -0.7108  0.2358
 2090TIP3    H127685   4.219   5.993  16.217  0.3789 -0.2817  1.2869
 2090TIP3    H227686   4.074   6.005  16.261  0.4972 -1.3775  2.0240
 2091TIP3   OH227687   3.577   3.496   5.939 -0.0904 -0.3259 -0.6084
 2091TIP3    H127688   3.624   3.493   5.857  1.1797 -0.2778  0.0933
 2091TIP3    H227689   3.620   3.566   5.989 -1.0501 -0.1241 -0.0227
 2092TIP3   OH227690   3.148   5.881   0.368  0.0024  0.1788  0.3787
 2092TIP3    H127691   3.166   5.788   0.357  1.2497  0.4570 -0.0767
 2092TIP3    H227692   3.231   5.924   0.351 -0.8555  1.4835 -0.7537
 2093TIP3   OH227693   0.937   2.659   1.823  0.1376  0.2403  0.3420
 2093TIP3    H127694   1.028   2.636   1.840 -0.2555 -0.3722  1.7437
 2093TIP3    H227695   0.920   2.736   1.877  0.1806  1.1963 -0.9504
 2094TIP3   OH227696   5.044   0.035  13.925 -0.7303 -0.3370  0.2892
 2094TIP3    H127697   5.068   0.128  13.928 -2.1636  0.0275  1.7915
 2094TIP3    H227698   5.122  -0.009  13.891  0.4182  1.2642  0.7586
 2095TIP3   OH227699   1.874   2.826   0.242  0.5924 -0.1078 -0.0678
 2095TIP3    H127700   1.948   2.813   0.302  0.8038  1.5444  0.0690
 2095TIP3    H227701   1.803   2.774   0.280  1.2748 -0.5948  0.5750
 2096TIP3   OH227702   4.561   5.354  13.608  0.2152  0.5841  0.0261
 2096TIP3    H127703   4.521   5.362  13.521  0.5403 -2.2608 -0.4889
 2096TIP3    H227704   4.583   5.261  13.615  1.4652  1.0033  2.6249
 2097TIP3   OH227705   1.418   3.762  13.261 -0.5510 -0.1920  0.1566
 2097TIP3    H127706   1.350   3.830  13.263  0.1224  0.5944 -1.6745
 2097TIP3    H227707   1.389   3.700  13.194  1.5467  1.4057 -2.4606
 2098TIP3   OH227708   3.461   4.334  14.583 -0.5980 -0.6102  0.0559
 2098TIP3    H127709   3.391   4.392  14.554  0.3485  0.7159  0.3321
 2098TIP3    H227710   3.528   4.341  14.515  0.7898  0.9782  1.4857
 2099TIP3   OH227711   2.439   5.902  14.024 -0.2801  0.5077 -0.5373
 2099TIP3    H127712   2.391   5.954  13.959 -0.2482  0.8829 -0.2625
 2099TIP3    H227713   2.400   5.926  14.108 -0.1102  0.2578 -0.3840
 2100TIP3   OH227714   4.351   4.154   5.599  0.1689  0.3709 -1.0522
 2100TIP3    H127715   4.264   4.153   5.559  0.5692 -0.6416 -1.9806
 2100TIP3    H227716   4.377   4.062   5.600  0.5729  0.4812  0.7276
 2101TIP3   OH227717   0.315   2.553   3.176 -0.6514 -0.1541 -0.1867
 2101TIP3    H127718   0.256   2.531   3.105 -1.1756  1.0445 -0.1532
 2101TIP3    H227719   0.310   2.649   3.183 -2.2853 -0.3290  2.8409
 2102TIP3   OH227720   0.221   5.632  11.248 -0.4317 -0.0126 -0.3171
 2102TIP3    H127721   0.270   5.561  11.290  1.8483  0.4547 -1.9511
 2102TIP3    H227722   0.129   5.613  11.267  0.2517 -1.9090  1.5062
 2103TIP3   OH227723   4.005   0.947   2.105 -0.4768 -0.0784  0.4452
 2103TIP3    H127724   4.047   0.862   2.090 -0.2111  0.4542 -2.2620
 2103TIP3    H227725   3.911   0.927   2.105 -0.4358 -0.3194 -0.7070
 2104TIP3   OH227726   5.577   0.438  11.656  0.0743  0.1232 -0.5845
 2104TIP3    H127727   5.600   0.448  11.748  1.0121  0.3016 -0.8353
 2104TIP3    H227728   5.481   0.449  11.655  0.1149  0.6921  0.2863
 2105TIP3   OH227729   3.321   3.029   2.443  0.1038 -0.7734 -0.2450
 2105TIP3    H127730   3.340   3.065   2.357  0.7151  0.5574  0.4158
 2105TIP3    H227731   3.333   2.935   2.433 -0.5466 -0.7242 -1.7813
 2106TIP3   OH227732   5.693   3.544   2.748 -0.0378  0.6391 -0.2429
 2106TIP3    H127733   5.622   3.571   2.806 -1.1053  0.6638 -1.5346
 2106TIP3    H227734   5.773   3.569   2.795 -0.5637 -3.4412  3.4363
 2107TIP3   OH227735   2.895   4.391  16.432  0.1203 -0.4578 -0.1760
 2107TIP3    H127736   2.951   4.336  16.487  1.4262 -1.2737 -2.1990
 2107TIP3    H227737   2.949   4.468  16.413 -0.3589 -0.1340 -0.2398
 2108TIP3   OH227738   5.472   4.686  14.581  0.9924  0.9908  0.0562
 2108TIP3    H127739   5.487   4.705  14.674  1.0939  2.0408 -0.1609
 2108TIP3    H227740   5.383   4.651  14.578  1.9152 -1.6821  0.8727
 2109TIP3   OH227741   3.264   4.203  13.173  0.3765 -0.3235  0.2940
 2109TIP3    H127742   3.325   4.181  13.102  1.5410  0.3230  1.0573
 2109TIP3    H227743   3.244   4.295  13.159  0.4122 -0.2603  0.6570
 2110TIP3   OH227744   6.713   6.073   4.611  0.0548 -0.4163  0.1797
 2110TIP3    H127745   6.807   6.061   4.629  0.1253 -0.3370 -0.1191
 2110TIP3    H227746   6.673   5.993   4.643  0.4028 -1.0523 -0.8969
 2111TIP3   OH227747   4.768   0.294   1.604  0.2707 -0.0762  0.5541
 2111TIP3    H127748   4.828   0.361   1.637 -0.2466  0.3652  0.6118
 2111TIP3    H227749   4.707   0.341   1.547  1.2685 -0.8540 -1.2446
 2112TIP3   OH227750   0.032   4.618   4.046  0.0192 -0.3984  0.2941
 2112TIP3    H127751   0.030   4.703   4.090  2.2457 -1.3180  2.4201
 2112TIP3    H227752  -0.021   4.560   4.101 -0.2914 -0.7214 -0.3349
 2113TIP3   OH227753   0.344   4.816   4.003 -0.5766 -0.1014  0.3738
 2113TIP3    H127754   0.338   4.771   3.919  2.9712  1.0899 -0.6945
 2113TIP3    H227755   0.369   4.748   4.066  1.1477 -0.3305 -0.4997
 2114TIP3   OH227756   4.570   4.910  13.227  0.4867 -0.2931 -0.0467
 2114TIP3    H127757   4.659   4.903  13.193  1.6268 -2.2055  2.9969
 2114TIP3    H227758   4.556   5.004  13.237  2.2146  0.0309 -0.3761
 2115TIP3   OH227759   2.874   1.380   0.384  0.4911  0.1604 -0.2820
 2115TIP3    H127760   2.925   1.372   0.303 -0.4572  1.6973 -1.0760
 2115TIP3    H227761   2.803   1.440   0.362 -0.5302 -0.3798  1.3560
 2116TIP3   OH227762   5.016   6.031  15.186 -0.2339 -0.2967  0.0690
 2116TIP3    H127763   4.937   6.023  15.132 -1.2257 -2.3147  1.6605
 2116TIP3    H227764   4.983   6.060  15.271  1.0769  1.1677  0.1141
 2117TIP3   OH227765   2.723   2.552   3.735  0.5283  0.6619 -0.1762
 2117TIP3    H127766   2.654   2.529   3.797 -0.6572 -0.1097 -1.7208
 2117TIP3    H227767   2.799   2.500   3.763 -0.3708 -0.6601 -0.1188
 2118TIP3   OH227768   4.097   1.221  14.278 -0.4311  0.2824 -0.0885
 2118TIP3    H127769   4.065   1.272  14.204  0.1058  0.6356 -0.0877
 2118TIP3    H227770   4.082   1.278  14.354  1.3898  1.0190 -0.2460
 2119TIP3   OH227771   3.493   4.458   5.770 -0.0160 -0.4200  0.5541
 2119TIP3    H127772   3.563   4.510   5.809 -1.3809  1.0608  1.1785
 2119TIP3    H227773   3.450   4.519   5.709 -1.6125 -0.7954  1.2466
 2120TIP3   OH227774   4.483   5.243  15.291  0.5260  0.1592  0.1958
 2120TIP3    H127775   4.564   5.237  15.340  0.4633 -0.1604  0.2598
 2120TIP3    H227776   4.510   5.250  15.200  0.6045 -1.3328  0.0843
 2121TIP3   OH227777   4.914   1.972   3.343 -0.2305  0.0897 -0.0808
 2121TIP3    H127778   4.840   2.004   3.293 -2.0166 -1.0500  1.6666
 2121TIP3    H227779   4.914   1.877   3.329  1.9952  0.2204 -1.3902
 2122TIP3   OH227780   0.233   5.114  11.261  0.2501 -0.4569  0.1774
 2122TIP3    H127781   0.249   5.086  11.351  3.4583 -0.0845 -0.1721
 2122TIP3    H227782   0.181   5.044  11.222  1.4396 -2.1373  1.4870
 2123TIP3   OH227783   6.745   0.887   6.308 -0.0078  0.4511  0.4815
 2123TIP3    H127784   6.783   0.963   6.353  0.2820 -0.1365  1.2544
 2123TIP3    H227785   6.677   0.924   6.252  0.3794  1.3210  0.5667
 2124TIP3   OH227786   0.340   2.862  12.869  0.0268 -0.1414 -0.0642
 2124TIP3    H127787   0.250   2.838  12.891  0.7581 -1.1987  2.0854
 2124TIP3    H227788   0.356   2.820  12.784 -1.7215  0.7375 -0.8695
 2125TIP3   OH227789   5.046   4.687   5.824 -0.0355  0.1865 -0.4104
 2125TIP3    H127790   5.008   4.605   5.855 -1.4450  0.8334 -0.3559
 2125TIP3    H227791   5.093   4.722   5.899  1.6095 -1.1061 -0.7569
 2126TIP3   OH227792   2.206   5.127  16.000 -0.6311 -0.5182 -0.0030
 2126TIP3    H127793   2.112   5.142  16.012 -1.0351 -1.5224 -1.5592
 2126TIP3    H227794   2.236   5.203  15.950 -1.4700 -1.9196 -2.8361
 2127TIP3   OH227795   3.248   4.610   2.787  0.1511 -0.6354 -0.1474
 2127TIP3    H127796   3.208   4.656   2.713  1.7816 -0.3731 -0.9068
 2127TIP3    H227797   3.182   4.613   2.856 -0.8540  0.3715 -1.1235
 2128TIP3   OH227798   2.897   4.140  17.296  0.4775  0.1605 -0.1567
 2128TIP3    H127799   2.903   4.208  17.229  0.1446 -0.0088 -0.3586
 2128TIP3    H227800   2.901   4.187  17.379  0.7478  0.3836 -0.2949
 2129TIP3   OH227801   6.596   1.620  13.733  0.0251  0.3548  0.5686
 2129TIP3    H127802   6.669   1.644  13.790  0.4756  0.5911 -0.1023
 2129TIP3    H227803   6.608   1.673  13.654  0.3075 -1.1058 -0.4118
 2130TIP3   OH227804   5.055   2.213   3.730  0.3574  0.3624 -0.3326
 2130TIP3    H127805   5.094   2.132   3.760 -0.0261 -0.1878 -1.2557
 2130TIP3    H227806   5.101   2.282   3.777  2.2413 -0.2727 -1.1620
 2131TIP3   OH227807   0.594   0.877   4.927 -0.1374 -0.6662 -0.1443
 2131TIP3    H127808   0.518   0.926   4.898  0.4105 -0.0041 -0.5037
 2131TIP3    H227809   0.665   0.942   4.931 -0.0834 -0.7525  2.4002
 2132TIP3   OH227810   3.703   0.733   3.068  0.3859 -0.2258  0.6391
 2132TIP3    H127811   3.613   0.714   3.095 -0.0616  0.0676 -0.5586
 2132TIP3    H227812   3.728   0.809   3.119  0.4527 -1.1011  1.9592
 2133TIP3   OH227813   0.342   2.668  16.394  0.0513  0.5028  0.3221
 2133TIP3    H127814   0.432   2.634  16.401  0.6500  2.0934  0.9955
 2133TIP3    H227815   0.332   2.689  16.301  0.2722  0.0377  0.1898
 2134TIP3   OH227816   6.503   2.376  12.311 -0.5026  0.2386 -0.5731
 2134TIP3    H127817   6.595   2.358  12.332 -0.9130 -1.3790  0.0164
 2134TIP3    H227818   6.494   2.471  12.320  0.9824  0.3640 -0.1362
 2135TIP3   OH227819   2.804   5.053   3.852 -0.0342 -0.0116 -0.2168
 2135TIP3    H127820   2.741   5.115   3.889  0.6384  0.7585 -0.3237
 2135TIP3    H227821   2.757   4.970   3.848 -0.4698  0.1262  1.3913
 2136TIP3   OH227822   0.712   2.798   2.911 -0.0651 -0.5624  0.2803
 2136TIP3    H127823   0.666   2.775   2.992  0.4287  0.0853  0.7626
 2136TIP3    H227824   0.643   2.821   2.849 -0.4789 -1.6905  0.3091
 2137TIP3   OH227825   2.684   2.422   4.336 -0.1223 -0.1267 -0.1247
 2137TIP3    H127826   2.657   2.443   4.247  0.0665  0.4844 -0.0469
 2137TIP3    H227827   2.663   2.501   4.387  1.6314  0.3286 -0.0305
 2138TIP3   OH227828   4.473   1.798  12.713  0.2071  0.0632  0.1526
 2138TIP3    H127829   4.410   1.867  12.735 -0.3941  0.0770 -1.4979
 2138TIP3    H227830   4.511   1.773  12.797 -1.5579  0.4936  1.1223
 2139TIP3   OH227831   4.480   0.066   3.945  0.2826 -0.0204 -0.1807
 2139TIP3    H127832   4.406   0.033   3.895 -0.0950  0.1777  0.2346
 2139TIP3    H227833   4.557   0.025   3.905 -0.2287 -2.5728  1.1528
 2140TIP3   OH227834   3.539   1.709   0.166 -0.0337  0.1005  0.5286
 2140TIP3    H127835   3.613   1.706   0.105 -1.4939 -1.6248 -1.3007
 2140TIP3    H227836   3.563   1.647   0.235  0.2353 -0.5215 -0.1012
 2141TIP3   OH227837   5.343   3.691   1.983  0.0210 -0.7380  0.0011
 2141TIP3    H127838   5.260   3.736   1.967 -0.0961 -1.0526 -0.2801
 2141TIP3    H227839   5.371   3.660   1.897  0.6294 -0.2935  0.0322
 2142TIP3   OH227840   5.789   2.601  17.327  0.4606  0.5385  0.2321
 2142TIP3    H127841   5.840   2.533  17.372 -0.0333 -0.0085 -0.0201
 2142TIP3    H227842   5.760   2.659  17.397  2.3544  1.5126  0.2789
 2143TIP3   OH227843   5.454   2.614   4.371 -0.3889 -0.5702  0.7332
 2143TIP3    H127844   5.393   2.613   4.297 -0.4985 -0.1771  0.8115
 2143TIP3    H227845   5.418   2.551   4.433  0.4878 -1.9762 -0.1480
 2144TIP3   OH227846   6.156   3.727   1.520  0.0283 -0.3210 -0.3985
 2144TIP3    H127847   6.133   3.798   1.579  0.5807 -1.7255  1.6149
 2144TIP3    H227848   6.096   3.656   1.542  0.6579 -1.0953 -1.0840
 2145TIP3   OH227849   6.375   6.386  12.561  0.0489  0.1144  0.5195
 2145TIP3    H127850   6.431   6.414  12.489 -0.9066 -0.5660 -0.5178
 2145TIP3    H227851   6.415   6.305  12.593 -0.0783 -0.1261  0.0786
 2146TIP3   OH227852   2.824   3.921  12.944  0.3477  0.1411 -0.6283
 2146TIP3    H127853   2.826   3.980  13.020 -1.3706  0.3463 -0.7076
 2146TIP3    H227854   2.901   3.865  12.955 -1.3886 -1.9474  3.0442
 2147TIP3   OH227855   2.191   5.643  14.630  0.6472  0.5237  0.9509
 2147TIP3    H127856   2.180   5.683  14.544  1.3873 -0.3184  0.4412
 2147TIP3    H227857   2.285   5.627  14.637  0.5590  0.3235  1.7970
 2148TIP3   OH227858   5.873   1.906  11.960 -0.5605  0.2669  0.0837
 2148TIP3    H127859   5.892   1.901  11.867 -0.9560  1.5107 -0.0817
 2148TIP3    H227860   5.956   1.884  12.003 -0.1661  0.4615 -0.5675
 2149TIP3   OH227861   3.704   5.380  13.012 -0.1220 -0.2605  0.8078
 2149TIP3    H127862   3.669   5.364  12.924 -0.7325 -0.7513  1.1333
 2149TIP3    H227863   3.629   5.371  13.070 -0.0697  1.6392  1.2556
 2150TIP3   OH227864   6.391   0.332   5.348 -0.5111  0.3585  0.0278
 2150TIP3    H127865   6.445   0.262   5.384 -1.3392 -0.4699 -0.2693
 2150TIP3    H227866   6.438   0.413   5.368  1.2533 -0.3657 -0.9791
 2151TIP3   OH227867   5.409   5.178  15.142 -0.4046  0.1149 -0.1005
 2151TIP3    H127868   5.490   5.136  15.172  0.5728  0.7474 -1.7403
 2151TIP3    H227869   5.354   5.181  15.220  0.0079 -2.9175  0.4552
 2152TIP3   OH227870   0.918   6.264  17.279  0.7673  0.1501  0.3110
 2152TIP3    H127871   0.914   6.350  17.236  2.8790  0.4281  0.5501
 2152TIP3    H227872   1.010   6.255  17.305  0.3798 -1.7734  1.1661
 2153TIP3   OH227873   2.972   5.913   0.931 -0.6433 -0.2874  0.3091
 2153TIP3    H127874   2.898   5.973   0.946  0.1412  2.1741 -4.0147
 2153TIP3    H227875   2.955   5.876   0.845  1.4696 -2.5180  0.7527
 2154TIP3   OH227876   0.520   3.906   3.923  0.4193  0.2947  0.3370
 2154TIP3    H127877   0.460   3.954   3.865 -0.1760 -1.3607 -0.4884
 2154TIP3    H227878   0.463   3.873   3.993  0.3208 -1.2564 -0.4327
 2155TIP3   OH227879   2.363   5.214   3.184  0.1532  0.1167  0.1405
 2155TIP3    H127880   2.457   5.215   3.206  0.0403 -0.8575  0.7519
 2155TIP3    H227881   2.338   5.122   3.192 -0.6359  0.2062 -1.0358
 2156TIP3   OH227882   2.636   6.025  10.913  0.7184  0.5416 -0.0523
 2156TIP3    H127883   2.692   5.995  10.842 -0.4023 -0.5169 -0.5448
 2156TIP3    H227884   2.695   6.042  10.986  1.7304  0.1161 -0.7591
 2157TIP3   OH227885   2.315   3.874   5.072  0.7635  0.0100  1.0053
 2157TIP3    H127886   2.406   3.852   5.095  0.6380 -0.6948  0.8647
 2157TIP3    H227887   2.321   3.924   4.992  1.0842  0.7368  1.4774
 2158TIP3   OH227888   5.464   6.198   5.178 -0.5414  0.1862 -0.4828
 2158TIP3    H127889   5.512   6.146   5.243 -1.4404  0.1660  0.1984
 2158TIP3    H227890   5.381   6.218   5.221 -0.5922  1.3804 -1.1104
 2159TIP3   OH227891   2.726   0.774  12.439 -0.8340  0.5543 -0.2365
 2159TIP3    H127892   2.820   0.773  12.460 -1.0322  1.0071  0.7271
 2159TIP3    H227893   2.708   0.686  12.407 -0.4150 -0.0565  1.1447
 2160TIP3   OH227894   6.421   1.476   3.612  0.4068  0.2229 -0.7737
 2160TIP3    H127895   6.472   1.397   3.628  1.2671  0.4823 -2.1041
 2160TIP3    H227896   6.342   1.465   3.665  1.7020 -0.3043  1.1412
 2161TIP3   OH227897   1.827   0.747  16.717  0.1573 -0.0091  0.1524
 2161TIP3    H127898   1.843   0.836  16.687  1.4667 -0.1118  0.4885
 2161TIP3    H227899   1.809   0.697  16.637 -1.6205  0.7214  0.0433
 2162TIP3   OH227900   3.844   1.628   2.140 -0.3412  0.1248  0.2577
 2162TIP3    H127901   3.923   1.616   2.193 -0.1272 -0.8843 -0.2775
 2162TIP3    H227902   3.837   1.723   2.130 -0.7655  0.4154  2.6575
 2163TIP3   OH227903   4.669   0.574  16.475  0.2034  0.2133  0.4658
 2163TIP3    H127904   4.669   0.566  16.379 -1.0592  0.9405  0.3642
 2163TIP3    H227905   4.656   0.485  16.507 -0.6353  0.1128 -0.1045
 2164TIP3   OH227906   0.455   2.262  13.122  0.1924  0.6541 -0.0029
 2164TIP3    H127907   0.502   2.332  13.076  0.2339  1.5696  1.3615
 2164TIP3    H227908   0.392   2.308  13.178 -0.4601 -0.4482  0.1931
 2165TIP3   OH227909   6.025   5.667   3.495 -0.3525  0.5808  0.5173
 2165TIP3    H127910   6.058   5.650   3.583  1.2829  1.2792  0.0597
 2165TIP3    H227911   5.958   5.600   3.481  2.7034 -2.7055  0.4635
 2166TIP3   OH227912   0.379   1.387   6.061  0.0514 -0.4922  0.4327
 2166TIP3    H127913   0.341   1.359   6.145 -2.2862  0.9181 -0.0569
 2166TIP3    H227914   0.328   1.465   6.037  1.5391 -0.0967 -1.6846
 2167TIP3   OH227915   3.434   5.864   1.060 -1.0833 -0.3309 -0.1257
 2167TIP3    H127916   3.383   5.916   1.122  1.1621  0.6870  0.9672
 2167TIP3    H227917   3.405   5.774   1.076 -1.7026  0.0818  1.2542
 2168TIP3   OH227918   5.880   0.077  16.336  0.5294 -0.2720 -0.5523
 2168TIP3    H127919   5.831   0.073  16.418  0.1557  0.0846 -0.7529
 2168TIP3    H227920   5.957   0.023  16.352 -0.2390 -1.3840 -0.4452
 2169TIP3   OH227921   0.540   5.046   5.213  0.1359 -0.1965  0.2316
 2169TIP3    H127922   0.501   5.048   5.301  1.1481  1.7299  0.7136
 2169TIP3    H227923   0.611   4.982   5.221 -1.1145 -1.6491  0.1469
 2170TIP3   OH227924   5.343   1.217  14.213 -0.3279 -0.0148  0.5128
 2170TIP3    H127925   5.295   1.138  14.237  0.8057 -0.6457  0.7678
 2170TIP3    H227926   5.275   1.279  14.186 -1.1593 -1.5272 -1.0489
 2171TIP3   OH227927   1.959   3.718   3.741 -0.6422 -0.3400  0.3828
 2171TIP3    H127928   1.916   3.692   3.659  0.5281  0.8184 -0.6525
 2171TIP3    H227929   1.981   3.636   3.784 -2.1120 -0.9689 -0.0051
 2172TIP3   OH227930   5.581   6.452   3.844  0.2927  0.3347 -0.3371
 2172TIP3    H127931   5.638   6.435   3.769  0.4472 -2.3671  0.2869
 2172TIP3    H227932   5.492   6.438   3.810  0.3799 -1.2328 -0.0023
 2173TIP3   OH227933   3.912   2.032  16.774  0.6310 -0.2701 -0.2101
 2173TIP3    H127934   3.954   1.949  16.754 -0.6068 -0.6768 -1.2385
 2173TIP3    H227935   3.834   2.008  16.825 -0.5194  0.1021 -1.7277
 2174TIP3   OH227936   3.481   1.691  16.080 -0.7086 -0.5520 -0.0209
 2174TIP3    H127937   3.521   1.777  16.084 -3.4225  0.7619  0.8252
 2174TIP3    H227938   3.549   1.632  16.115  1.3891  1.0891 -1.0772
 2175TIP3   OH227939   0.625   1.553  12.513 -0.3387 -0.0101 -0.0992
 2175TIP3    H127940   0.554   1.562  12.577  0.5119  0.8766  0.7484
 2175TIP3    H227941   0.590   1.591  12.432 -0.6197  1.0175  0.4892
 2176TIP3   OH227942   2.918   6.050   5.433  0.0653 -0.5686 -0.1232
 2176TIP3    H127943   3.011   6.042   5.455 -0.2557 -2.1606  0.8370
 2176TIP3    H227944   2.916   6.061   5.338  1.2841  1.1804 -0.0032
 2177TIP3   OH227945   0.764   5.412  17.310  0.0835  0.8054 -0.1337
 2177TIP3    H127946   0.676   5.380  17.290 -0.8550  2.7407  0.6509
 2177TIP3    H227947   0.765   5.421  17.405  1.3920  0.1631 -0.0723
 2178TIP3   OH227948   1.356   5.877   0.985  0.2507  0.5233  0.0948
 2178TIP3    H127949   1.383   5.828   1.063 -0.9130 -0.9834 -0.3836
 2178TIP3    H227950   1.437   5.897   0.939  0.8634  0.3692  1.0823
 2179TIP3   OH227951   1.554   2.996  17.063  0.3443 -0.2946 -0.5210
 2179TIP3    H127952   1.605   2.916  17.057  1.6930  0.4676  0.1405
 2179TIP3    H227953   1.607   3.062  17.018  0.2800  0.6601  0.7352
 2180TIP3   OH227954   3.010   1.638  15.465 -0.2153 -0.2861  0.4251
 2180TIP3    H127955   3.092   1.686  15.476 -0.0218 -0.5836  0.3274
 2180TIP3    H227956   3.007   1.617  15.371 -1.0920  0.9203  0.1660
 2181TIP3   OH227957   5.330   1.827   5.070 -0.4110 -0.4306  0.0805
 2181TIP3    H127958   5.352   1.873   5.151 -1.2227 -1.1457  0.7217
 2181TIP3    H227959   5.379   1.744   5.075 -1.4463 -1.0286  0.4411
 2182TIP3   OH227960   5.714   3.193   2.446 -0.7541 -0.1679  0.2444
 2182TIP3    H127961   5.764   3.122   2.485  1.2256 -0.1924 -2.1108
 2182TIP3    H227962   5.780   3.255   2.415 -2.3894  2.5592  1.7929
 2183TIP3   OH227963   6.179   6.761  15.492 -0.4340  0.0456  0.6513
 2183TIP3    H127964   6.143   6.676  15.517 -1.2561  0.7109  1.8513
 2183TIP3    H227965   6.131   6.824  15.545 -0.3434  1.3415 -0.7258
 2184TIP3   OH227966   0.273   4.786   3.006 -0.2879  1.1134  0.0551
 2184TIP3    H127967   0.263   4.837   2.925  0.1526 -0.2076 -0.8682
 2184TIP3    H227968   0.194   4.804   3.056 -0.7112  1.7169 -0.8014
 2185TIP3   OH227969   0.883   6.455   2.930  0.2581  0.6451 -0.2557
 2185TIP3    H127970   0.941   6.395   2.883 -0.5530  0.4195 -1.0070
 2185TIP3    H227971   0.878   6.419   3.019  0.5043  0.1254 -0.4474
 2186TIP3   OH227972   2.415   3.454  16.587 -0.3080  0.5725 -0.1960
 2186TIP3    H127973   2.366   3.467  16.506 -0.5090 -0.8126 -0.3139
 2186TIP3    H227974   2.493   3.405  16.560 -0.6693 -0.4173  0.5359
 2187TIP3   OH227975   4.532   4.410   4.970  0.2809  0.2601 -0.1011
 2187TIP3    H127976   4.459   4.397   4.910 -0.8729  3.1962  0.4988
 2187TIP3    H227977   4.491   4.441   5.051  2.1838  2.4249  0.1133
 2188TIP3   OH227978   4.673   2.351   2.867  0.1057  0.0843 -0.3947
 2188TIP3    H127979   4.675   2.260   2.838 -1.3183  0.1781 -0.8251
 2188TIP3    H227980   4.762   2.383   2.849  0.8780 -1.4207  0.5132
 2189TIP3   OH227981   2.671   4.158   3.323 -0.6323  0.3614 -0.2865
 2189TIP3    H127982   2.610   4.169   3.250  0.4352 -0.8131 -1.4021
 2189TIP3    H227983   2.664   4.066   3.347 -0.7677  0.6689  0.9345
 2190TIP3   OH227984   3.716   3.931   2.717  0.1015  0.1794  0.4716
 2190TIP3    H127985   3.724   3.849   2.668  0.4464  0.8343 -0.5972
 2190TIP3    H227986   3.788   3.985   2.686 -1.2171  1.5959 -0.2521
 2191TIP3   OH227987   3.893   6.688   4.872  0.2998 -0.1546 -0.1015
 2191TIP3    H127988   3.857   6.677   4.961 -1.5234 -0.3546 -0.8134
 2191TIP3    H227989   3.833   6.749   4.830  0.4120 -1.0184 -1.5733
 2192TIP3   OH227990   2.119   2.846   3.251 -0.0460  0.1086  0.5929
 2192TIP3    H127991   2.128   2.907   3.324  0.1732 -0.8537  1.3883
 2192TIP3    H227992   2.048   2.883   3.197 -0.9345  0.2928  1.8497
 2193TIP3   OH227993   5.260   2.624  15.765 -0.6344  0.3141  0.4050
 2193TIP3    H127994   5.212   2.705  15.746 -0.6646  0.0849 -0.5602
 2193TIP3    H227995   5.208   2.581  15.833  0.1967  1.8121  2.0363
 2194TIP3   OH227996   3.661   0.760   6.261 -0.3467 -0.1682  0.2869
 2194TIP3    H127997   3.721   0.688   6.243  1.1973  1.0900  0.2207
 2194TIP3    H227998   3.574   0.723   6.243  0.4927 -1.5586 -1.2335
 2195TIP3   OH227999   2.545   2.472   2.489 -0.1020 -0.5891  0.0567
 2195TIP3    H128000   2.477   2.538   2.506  1.5536  0.5794  2.9705
 2195TIP3    H228001   2.582   2.497   2.404 -0.8452  1.0473  0.1751
 2196TIP3   OH228002   1.600   2.806  11.842  0.1564  0.1916  0.1118
 2196TIP3    H128003   1.527   2.868  11.851  0.4316  1.4801 -4.2036
 2196TIP3    H228004   1.558   2.720  11.840 -0.9350  0.6977  0.3062
 2197TIP3   OH228005   1.486   0.189   3.047 -0.2542 -1.0902  0.3132
 2197TIP3    H128006   1.551   0.247   3.007 -1.0705 -1.6628 -2.0602
 2197TIP3    H228007   1.422   0.249   3.087  1.1451 -0.5085  1.7420
 2198TIP3   OH228008   1.353   5.355   1.344 -0.3216  0.1999  0.2155
 2198TIP3    H128009   1.274   5.395   1.307 -0.3819 -0.4716 -0.4052
 2198TIP3    H228010   1.338   5.261   1.336 -0.0110  0.0510  1.2985
 2199TIP3   OH228011   3.906   0.763  13.323 -0.5852  0.3340  0.0084
 2199TIP3    H128012   3.885   0.848  13.363 -1.6607  0.2671 -0.3789
 2199TIP3    H228013   3.823   0.716  13.322 -0.2393 -0.2790 -0.8385
 2200TIP3   OH228014   2.633   0.298  17.204 -0.3150 -0.5260 -0.6728
 2200TIP3    H128015   2.632   0.372  17.265 -2.3716 -0.4408 -0.7190
 2200TIP3    H228016   2.585   0.330  17.128 -3.2663 -2.4956  0.1773
 2201TIP3   OH228017   3.599   0.003   4.391 -0.4913 -0.0177  0.3063
 2201TIP3    H128018   3.575   0.004   4.484 -0.1471 -0.1320  0.3940
 2201TIP3    H228019   3.529   0.053   4.348 -0.8738 -0.3211  0.5709
 2202TIP3   OH228020   3.828   5.960  12.437  0.1345  0.4357 -0.9456
 2202TIP3    H128021   3.921   5.978  12.427  0.6350 -0.8496  0.8000
 2202TIP3    H228022   3.792   6.041  12.473  1.1344  0.1114  0.9217
 2203TIP3   OH228023   3.215   1.956  11.413 -0.3592 -0.3246  0.0336
 2203TIP3    H128024   3.209   1.922  11.502  0.4580  0.7351  0.5125
 2203TIP3    H228025   3.266   1.890  11.365  0.0060 -0.4466  0.5846
 2204TIP3   OH228026   6.631   2.924   5.168 -0.5501  0.7959  0.6689
 2204TIP3    H128027   6.703   2.963   5.218 -1.9547  3.0300  1.0443
 2204TIP3    H228028   6.579   2.998   5.138 -2.0148 -0.7013 -0.6840
 2205TIP3   OH228029   6.750   3.324   5.012 -0.0316 -0.3199 -0.1902
 2205TIP3    H128030   6.839   3.358   5.021 -0.9784  2.0190  1.2563
 2205TIP3    H228031   6.719   3.362   4.929 -0.5229  1.0585  0.5980
 2206TIP3   OH228032   2.611   6.255   2.432 -0.4285 -0.4340  0.1827
 2206TIP3    H128033   2.608   6.326   2.497 -0.9643  1.1351 -1.4709
 2206TIP3    H228034   2.705   6.237   2.421 -0.2914 -0.1270  0.7889
 2207TIP3   OH228035   2.220   2.071   1.407 -0.1767  0.0434  1.1332
 2207TIP3    H128036   2.191   2.120   1.483 -1.5755 -0.2634  0.8173
 2207TIP3    H228037   2.247   2.138   1.344  0.4639  0.3080  1.6715
 2208TIP3   OH228038   2.402   5.347   5.566  0.3977  0.2513  0.0601
 2208TIP3    H128039   2.336   5.385   5.624  0.1839  0.3364 -0.2396
 2208TIP3    H228040   2.480   5.401   5.581  0.4325  0.0944  0.4799
 2209TIP3   OH228041   6.097   3.203  14.451  0.1820 -0.3836  0.0737
 2209TIP3    H128042   6.023   3.260  14.468 -0.1599 -0.9505  0.5097
 2209TIP3    H228043   6.059   3.125  14.411  0.6003 -0.4531 -0.1903
 2210TIP3   OH228044   0.543   0.026  14.869 -0.4751 -0.8736  0.3643
 2210TIP3    H128045   0.497   0.086  14.811 -2.4266 -1.4395  1.2379
 2210TIP3    H228046   0.502  -0.059  14.853 -1.5839 -0.9302  2.9654
 2211TIP3   OH228047   5.602   4.035  13.196  0.8242 -0.2289 -0.2985
 2211TIP3    H128048   5.528   4.069  13.146  0.5858  0.8111  0.7314
 2211TIP3    H228049   5.676   4.090  13.171  1.3253 -1.3445 -1.4200
 2212TIP3   OH228050   4.318   3.087   3.393 -0.3474 -0.5657  0.0557
 2212TIP3    H128051   4.342   3.174   3.361 -0.4776 -0.1302  1.1159
 2212TIP3    H228052   4.267   3.049   3.322 -2.9624  1.4090  0.7531
 2213TIP3   OH228053   5.015   1.658   4.739  0.3060  0.0707  0.1382
 2213TIP3    H128054   4.943   1.694   4.791  0.6830  0.2998  0.4985
 2213TIP3    H228055   5.082   1.726   4.740  0.6309 -0.2463  0.0091
 2214TIP3   OH228056   0.296   3.506  14.464 -0.1566  0.1211  0.1075
 2214TIP3    H128057   0.231   3.473  14.402 -2.1822  1.9738  1.1177
 2214TIP3    H228058   0.319   3.593  14.430 -0.2525  0.5846  1.1985
 2215TIP3   OH228059   5.065   0.862  14.085 -0.4198 -0.1451 -0.2167
 2215TIP3    H128060   5.007   0.800  14.129  0.4671 -0.6615  0.2672
 2215TIP3    H228061   5.130   0.807  14.042  1.1593  0.4251  1.2946
 2216TIP3   OH228062   5.915   0.246  14.202  0.6447  0.0547  0.0968
 2216TIP3    H128063   5.843   0.298  14.239 -0.4067 -0.8753 -0.5626
 2216TIP3    H228064   5.953   0.201  14.277 -0.4667 -0.6152  0.2819
 2217TIP3   OH228065   4.521   3.737  16.476  0.0509  0.0922  0.5149
 2217TIP3    H128066   4.485   3.746  16.388 -0.1937 -2.7330  0.2353
 2217TIP3    H228067   4.492   3.816  16.522 -1.9344  0.4784 -1.2433
 2218TIP3   OH228068   6.661   0.507  11.296  0.0961  0.0288 -0.7368
 2218TIP3    H128069   6.744   0.526  11.339 -0.2894 -0.9250  0.4926
 2218TIP3    H228070   6.633   0.591  11.259  0.5240  0.8736  0.7743
 2219TIP3   OH228071   4.326   3.444   1.388 -0.4033  0.2202 -0.0100
 2219TIP3    H128072   4.421   3.455   1.394  0.2943 -4.4890  2.7418
 2219TIP3    H228073   4.314   3.381   1.317 -1.0400 -1.3347  1.4034
 2220TIP3   OH228074   3.869   4.902   1.751  0.3087 -0.2219 -0.1762
 2220TIP3    H128075   3.963   4.917   1.738 -0.2979  2.2772 -2.5893
 2220TIP3    H228076   3.844   4.844   1.679 -0.2893  0.5088 -0.5619
 2221TIP3   OH228077   0.525   2.765   1.415 -0.4922 -0.0679  0.2205
 2221TIP3    H128078   0.489   2.836   1.468  0.6318  1.2604 -0.7335
 2221TIP3    H228079   0.617   2.788   1.402 -0.6696 -0.3979 -2.1511
 2222TIP3   OH228080   4.825   5.884   3.252 -0.2539 -0.7875  0.2304
 2222TIP3    H128081   4.771   5.890   3.173 -0.7337 -0.7594  0.5550
 2222TIP3    H228082   4.785   5.814   3.303 -1.5502  0.9256  1.6453
 2223TIP3   OH228083   3.035   5.990  15.169 -0.1297 -0.1619  0.3083
 2223TIP3    H128084   3.053   6.081  15.194 -1.1228  0.1452 -0.0580
 2223TIP3    H228085   2.940   5.987  15.159 -0.0027 -0.9799 -0.7184
 2224TIP3   OH228086   5.261   3.837   3.403  0.0861 -0.2175  0.5420
 2224TIP3    H128087   5.357   3.838   3.400  0.1310 -0.8308  1.3268
 2224TIP3    H228088   5.239   3.749   3.434 -0.6771  0.3521  1.6941
 2225TIP3   OH228089   6.753   4.554  10.361 -0.7368  0.1110 -0.3253
 2225TIP3    H128090   6.684   4.564  10.426 -0.5061  2.0673 -0.3320
 2225TIP3    H228091   6.725   4.479  10.308 -2.5476  0.4938  0.0382
 2226TIP3   OH228092   3.692   3.321   2.680 -0.6628 -0.8932 -0.5690
 2226TIP3    H128093   3.599   3.309   2.664 -0.5489 -0.3860 -1.7182
 2226TIP3    H228094   3.713   3.405   2.638 -0.2344  0.4112  1.9893
 2227TIP3   OH228095   5.291   6.645  13.688  0.7570  0.2384  0.0873
 2227TIP3    H128096   5.366   6.650  13.628  2.7370 -1.0762  2.2732
 2227TIP3    H228097   5.331   6.631  13.774 -2.0008  0.8408  1.5565
 2228TIP3   OH228098   0.540   5.222  10.767  0.0076 -0.1546 -0.3636
 2228TIP3    H128099   0.608   5.201  10.831 -1.3206 -1.1144  0.8147
 2228TIP3    H228100   0.482   5.283  10.813  0.0538  0.6475 -1.3421
 2229TIP3   OH228101   4.401   1.412   0.206 -0.1629 -0.0943  0.1724
 2229TIP3    H128102   4.460   1.400   0.131  0.1116  0.3484  0.3094
 2229TIP3    H228103   4.402   1.328   0.252  1.1972  0.2105  0.7551
 2230TIP3   OH228104   1.260   3.798   0.744 -0.8125 -0.2543  0.3749
 2230TIP3    H128105   1.272   3.715   0.791  0.2919 -0.6679 -0.5710
 2230TIP3    H228106   1.173   3.791   0.705 -0.8042 -0.8934  0.4528
 2231TIP3   OH228107   3.953   0.762  14.120 -0.0183  0.6939 -0.1614
 2231TIP3    H128108   3.989   0.818  14.189  1.6903  2.2516 -2.1672
 2231TIP3    H228109   3.899   0.821  14.066 -1.0873 -0.4131 -0.3414
 2232TIP3   OH228110   6.628   3.284  11.745  0.3803 -0.0766 -0.4805
 2232TIP3    H128111   6.587   3.209  11.702  0.7139  0.8536 -2.5363
 2232TIP3    H228112   6.722   3.271  11.733  0.4289  0.8179 -1.1537
 2233TIP3   OH228113   1.226   0.809   0.886  0.3542  0.2114 -0.1580
 2233TIP3    H128114   1.295   0.749   0.857  1.1258  1.1313 -0.2513
 2233TIP3    H228115   1.259   0.896   0.864 -0.9140  0.6593 -0.3544
 2234TIP3   OH228116   2.710   2.802   4.302 -0.3642  0.6700  0.0797
 2234TIP3    H128117   2.648   2.776   4.370 -0.7118  0.7203 -0.2100
 2234TIP3    H228118   2.761   2.873   4.341  0.8436 -0.6612  1.0133
 2235TIP3   OH228119   0.014   5.195  15.736 -0.3944 -0.7393 -0.1172
 2235TIP3    H128120  -0.028   5.115  15.705 -0.1387 -1.0646  0.3706
 2235TIP3    H228121   0.090   5.165  15.786  0.1291 -0.1747 -0.5575
 2236TIP3   OH228122   1.967   6.167   0.698 -0.5492 -0.3857  0.4331
 2236TIP3    H128123   2.000   6.080   0.720 -0.4416 -0.4449  0.0401
 2236TIP3    H228124   2.038   6.208   0.649 -0.3683  0.1388  1.1097
 2237TIP3   OH228125   1.051   3.478   0.887 -0.1548 -0.0731 -0.4642
 2237TIP3    H128126   0.956   3.483   0.877 -0.3267  1.1682  1.3370
 2237TIP3    H228127   1.064   3.439   0.973  0.9332  1.1074 -0.0682
 2238TIP3   OH228128   4.466   1.001   3.474 -0.4189  0.4909 -0.0626
 2238TIP3    H128129   4.464   1.072   3.410  2.6637 -1.1987 -2.2774
 2238TIP3    H228130   4.439   0.924   3.425 -0.6426 -0.4352  1.4507
 2239TIP3   OH228131   0.630   4.207  15.576  0.0800 -0.4088 -0.1434
 2239TIP3    H128132   0.698   4.145  15.602  0.3822 -0.6182 -1.4049
 2239TIP3    H228133   0.574   4.159  15.516  0.1056  0.4254 -0.8501
 2240TIP3   OH228134   4.112   4.406  14.003  0.3226 -0.2627 -0.4472
 2240TIP3    H128135   4.146   4.495  14.012 -0.1329  0.0345 -1.4551
 2240TIP3    H228136   4.178   4.350  14.043  0.7846  0.5059 -0.1284
 2241TIP3   OH228137   1.641   1.034  15.692  0.5701 -0.1662  0.5253
 2241TIP3    H128138   1.703   1.018  15.621  0.9666  0.5794  0.6938
 2241TIP3    H228139   1.607   0.947  15.714  2.9405 -0.8800  1.6756
 2242TIP3   OH228140   0.287   1.213   0.750  0.4583 -0.1390  0.3355
 2242TIP3    H128141   0.244   1.299   0.756 -2.3961 -1.3276 -1.0034
 2242TIP3    H228142   0.290   1.182   0.840 -0.9067  0.3174  0.5698
 2243TIP3   OH228143   3.925   2.881  11.964 -0.1865 -0.0657  0.5290
 2243TIP3    H128144   3.997   2.868  12.025  0.2400 -0.3365 -0.0208
 2243TIP3    H228145   3.850   2.840  12.008  0.2515 -0.8064  0.6062
 2244TIP3   OH228146   2.507   2.901  13.794  0.0141  0.3996 -0.6149
 2244TIP3    H128147   2.560   2.875  13.869  0.6268  0.8991 -0.8706
 2244TIP3    H228148   2.419   2.868  13.814  0.9442 -3.0123 -1.4743
 2245TIP3   OH228149   3.470   2.035  15.570  0.7021 -0.0313 -0.2635
 2245TIP3    H128150   3.458   2.005  15.661 -0.1566 -0.8414 -0.6205
 2245TIP3    H228151   3.564   2.051  15.563  0.8940 -0.6603  0.5699
 2246TIP3   OH228152   1.163   3.565   5.090  0.1256  0.1483  0.1868
 2246TIP3    H128153   1.197   3.646   5.053 -0.5147  0.2859 -0.1131
 2246TIP3    H228154   1.073   3.559   5.057  0.2927 -0.8860 -0.1205
 2247TIP3   OH228155   1.879   4.816   3.995  0.1183  0.0484 -0.1996
 2247TIP3    H128156   1.875   4.884   4.062 -0.2244  0.1014 -0.2713
 2247TIP3    H228157   1.817   4.749   4.025 -0.9239  0.6043 -1.0373
 2248TIP3   OH228158   5.580   3.093   6.173 -0.2738 -0.3510 -0.2093
 2248TIP3    H128159   5.661   3.139   6.194  0.6678 -1.7452 -0.6434
 2248TIP3    H228160   5.558   3.123   6.084 -1.7088  1.9852  0.8274
 2249TIP3   OH228161   6.062   6.375  11.942 -0.2577 -0.2304  0.2286
 2249TIP3    H128162   5.971   6.365  11.967  0.0120  1.2369  1.9752
 2249TIP3    H228163   6.061   6.435  11.868 -0.6974 -0.0055  0.4184
 2250TIP3   OH228164   0.559   5.220   1.717  0.1957 -0.1606 -0.0491
 2250TIP3    H128165   0.482   5.270   1.689  1.4834  1.8998 -0.1609
 2250TIP3    H228166   0.528   5.130   1.726 -2.1670  0.5738 -0.2301
 2251TIP3   OH228167   3.356   4.960   1.575 -0.2216 -0.0604  0.3341
 2251TIP3    H128168   3.324   4.870   1.566 -2.5567  0.6891  0.2590
 2251TIP3    H228169   3.315   5.008   1.503 -0.5075  1.3992  1.4047
 2252TIP3   OH228170   5.761   6.628   3.953 -0.0411 -0.5752  0.0039
 2252TIP3    H128171   5.687   6.569   3.936  0.8258 -1.9652  0.9175
 2252TIP3    H228172   5.765   6.684   3.875 -3.5294  1.2191  0.8629
 2253TIP3   OH228173   0.373   1.177  17.136  0.3429 -0.6737  0.3279
 2253TIP3    H128174   0.365   1.118  17.211  1.1041 -0.8769  0.2542
 2253TIP3    H228175   0.397   1.261  17.173 -0.3944 -0.4848  0.4016
 2254TIP3   OH228176   3.074   4.573  14.611 -0.5173  0.1151  0.7916
 2254TIP3    H128177   3.060   4.665  14.589 -1.5923 -0.2002  0.0313
 2254TIP3    H228178   3.051   4.526  14.531  2.1526 -0.7209  0.4165
 2255TIP3   OH228179   0.798   6.030   2.584 -0.1959 -0.0387 -0.6221
 2255TIP3    H128180   0.744   5.965   2.540 -0.3919 -0.7469  0.6086
 2255TIP3    H228181   0.739   6.103   2.601 -0.5457 -0.4409 -0.0845
 2256TIP3   OH228182   3.580   2.185   5.837  0.1444  0.0125 -0.0712
 2256TIP3    H128183   3.662   2.232   5.824  0.4008  0.1403  1.6938
 2256TIP3    H228184   3.549   2.164   5.749  2.8893 -1.4756 -0.7781
 2257TIP3   OH228185   1.595   0.400   5.011  0.0605  0.3744 -0.3516
 2257TIP3    H128186   1.530   0.429   5.075 -0.4577 -1.9513  0.2488
 2257TIP3    H228187   1.641   0.328   5.054  2.2594  1.1684 -1.2341
 2258TIP3   OH228188   0.750   2.789   1.232 -0.3559  0.4974 -0.3104
 2258TIP3    H128189   0.832   2.838   1.234 -0.0784  0.0897  2.4050
 2258TIP3    H228190   0.736   2.769   1.139  1.9637  1.6013 -0.9778
 2259TIP3   OH228191   2.863   1.134  15.227 -0.6291  0.3998 -0.8674
 2259TIP3    H128192   2.842   1.116  15.319 -2.1736  0.4493 -1.1856
 2259TIP3    H228193   2.806   1.076  15.178 -0.4678  1.0235 -1.8106
 2260TIP3   OH228194   4.437   1.989  16.505  0.1548  0.3849  0.6610
 2260TIP3    H128195   4.357   1.936  16.501 -1.2943  2.4077  1.2964
 2260TIP3    H228196   4.434   2.031  16.591  1.2073  1.5554  0.1505
 2261TIP3   OH228197   3.570   2.405  14.452  0.1616  0.4081 -0.2596
 2261TIP3    H128198   3.498   2.381  14.511 -1.4124  1.8336 -1.4815
 2261TIP3    H228199   3.648   2.367  14.493 -1.4207 -2.5105  0.3699
 2262TIP3   OH228200   1.586   0.270  16.926  0.4010  0.1321 -0.4918
 2262TIP3    H128201   1.542   0.215  16.862 -1.5908  1.2335 -0.1321
 2262TIP3    H228202   1.555   0.238  17.011 -0.8777  1.8044 -0.2773
 2263TIP3   OH228203   3.295   1.295   5.237 -0.3398  0.1403  0.0553
 2263TIP3    H128204   3.244   1.339   5.168  1.1750  1.6479 -0.1754
 2263TIP3    H228205   3.378   1.343   5.239  0.2993 -0.9621  1.7834
 2264TIP3   OH228206   2.918   3.093  16.345  0.0252 -0.0387 -0.4847
 2264TIP3    H128207   2.909   3.086  16.250  0.2152 -0.0068 -0.5039
 2264TIP3    H228208   3.008   3.068  16.363 -0.5595 -2.0486 -0.1206
 2265TIP3   OH228209   1.764   1.796  13.001 -0.0523 -0.3157 -0.3391
 2265TIP3    H128210   1.841   1.799  12.945 -0.9448  1.0460 -1.5546
 2265TIP3    H228211   1.748   1.887  13.027 -0.9909 -0.6233  0.2459
 2266TIP3   OH228212   1.980   4.327  13.803 -0.1888 -0.1667 -0.5043
 2266TIP3    H128213   1.979   4.320  13.708  1.5230  1.2374 -0.6882
 2266TIP3    H228214   1.979   4.237  13.834 -1.5120 -0.6442 -1.8019
 2267TIP3   OH228215   2.652   2.713   5.067 -0.3320 -0.0125  0.1070
 2267TIP3    H128216   2.746   2.722   5.052 -0.3237 -0.0044  0.1616
 2267TIP3    H228217   2.635   2.767   5.145 -0.8348  2.1989 -1.4423
 2268TIP3   OH228218   1.343   2.723   3.176  0.7584  0.3398  0.4932
 2268TIP3    H128219   1.417   2.675   3.213 -0.9059 -1.1534  2.1039
 2268TIP3    H228220   1.302   2.662   3.115 -0.9100 -0.0777  1.9538
 2269TIP3   OH228221   2.858   4.441  15.617 -0.5933 -0.0274  0.5745
 2269TIP3    H128222   2.770   4.477  15.632 -0.4600 -0.2955  2.1072
 2269TIP3    H228223   2.918   4.507  15.651 -0.2439 -0.4166  0.7247
 2270TIP3   OH228224   5.059   5.475   4.654 -0.0301 -0.3836 -0.0015
 2270TIP3    H128225   5.052   5.492   4.748 -0.7544 -0.8110  0.0347
 2270TIP3    H228226   5.082   5.382   4.648  0.4717 -0.2467 -0.2427
 2271TIP3   OH228227   0.509   5.652  16.018 -0.0243  0.1193 -0.0073
 2271TIP3    H128228   0.591   5.690  15.986  1.0400 -1.8245  0.2400
 2271TIP3    H228229   0.470   5.610  15.941 -0.1428 -0.0440  0.1402
 2272TIP3   OH228230   2.087   3.634  12.915  0.2355  0.0195  1.0373
 2272TIP3    H128231   2.180   3.650  12.896  0.2187  0.9872  1.6782
 2272TIP3    H228232   2.086   3.548  12.957  0.5944 -0.8822 -0.6794
 2273TIP3   OH228233   4.203   4.706  15.467  0.0800 -0.2717 -0.3148
 2273TIP3    H128234   4.145   4.760  15.521  1.5061  1.2922 -0.2498
 2273TIP3    H228235   4.155   4.692  15.385 -1.0100 -0.3843  0.3262
 2274TIP3   OH228236   5.880   3.343  16.780  0.1475  0.0264 -0.0887
 2274TIP3    H128237   5.946   3.284  16.818 -0.1545 -0.6173 -0.5681
 2274TIP3    H228238   5.932   3.411  16.736  0.6020  2.0451  3.2029
 2275TIP3   OH228239   3.973   3.873  13.343 -0.2565  0.0654  0.4606
 2275TIP3    H128240   4.064   3.876  13.313  0.1453  1.3158  1.6882
 2275TIP3    H228241   3.944   3.785  13.321  1.5119 -0.6506  0.7724
 2276TIP3   OH228242   5.849   0.205  16.800 -0.6124 -0.5479 -0.2266
 2276TIP3    H128243   5.831   0.281  16.745 -1.0448 -0.7385 -0.3467
 2276TIP3    H228244   5.891   0.242  16.878  0.4010 -0.3206 -0.8579
 2277TIP3   OH228245   5.168   0.163   5.827  0.4498  0.2014 -0.5761
 2277TIP3    H128246   5.226   0.174   5.752  0.2518 -1.6928 -1.0491
 2277TIP3    H228247   5.217   0.199   5.901  1.2903  0.6723 -1.3501
 2278TIP3   OH228248   6.395   6.257   0.100 -0.0459 -0.7144  0.3280
 2278TIP3    H128249   6.355   6.173   0.081  0.0566 -0.6828 -0.0315
 2278TIP3    H228250   6.437   6.283   0.018  0.8094 -0.8003  0.7240
 2279TIP3   OH228251   4.915   1.390  11.596 -0.0564  0.0427  0.5142
 2279TIP3    H128252   4.979   1.403  11.526 -0.4747 -2.1736 -0.3458
 2279TIP3    H228253   4.961   1.419  11.675  1.0179  1.0351 -0.4433
 2280TIP3   OH228254   0.326   4.339  13.190  0.2803  0.1910  0.2335
 2280TIP3    H128255   0.418   4.335  13.216  0.3274 -1.1426 -0.0712
 2280TIP3    H228256   0.313   4.429  13.161  1.4476  0.4301  0.4145
 2281TIP3   OH228257   5.213   0.774  17.014  0.3612 -0.7196 -0.1762
 2281TIP3    H128258   5.289   0.716  17.004 -0.2310 -1.1398 -3.1438
 2281TIP3    H228259   5.243   0.841  17.076  2.5904 -1.7519 -0.0252
 2282TIP3   OH228260   1.106   4.872   1.720  0.5274  0.1223 -0.4905
 2282TIP3    H128261   1.102   4.842   1.811 -0.0479 -0.2689 -0.6431
 2282TIP3    H228262   1.098   4.967   1.726  1.0642  0.1491 -0.0943
 2283TIP3   OH228263   4.812   3.600   3.040 -0.2955  0.2476 -0.1630
 2283TIP3    H128264   4.903   3.628   3.029  1.0725 -3.0676  1.1781
 2283TIP3    H228265   4.791   3.553   2.959 -0.0354 -0.6571  0.2688
 2284TIP3   OH228266   0.472   4.133  12.977  0.2176  0.3316  0.0024
 2284TIP3    H128267   0.387   4.090  12.983 -0.5338  2.0018  3.2345
 2284TIP3    H228268   0.529   4.083  13.035  0.2674  1.5884  1.0799
 2285TIP3   OH228269   2.911   4.811   4.510  0.4044 -0.8490  0.3877
 2285TIP3    H128270   2.946   4.761   4.436 -0.4888 -0.5600 -0.2499
 2285TIP3    H228271   2.841   4.756   4.544 -2.1363  0.8485 -1.7370
 2286TIP3   OH228272   0.794   5.029  12.430  1.2188  0.1635  0.4965
 2286TIP3    H128273   0.773   4.943  12.468  1.7485  0.0552  0.5455
 2286TIP3    H228274   0.808   5.085  12.506 -1.2779  0.8720  0.5389
 2287TIP3   OH228275   0.370   1.111  13.620 -0.4656 -0.1534 -0.5127
 2287TIP3    H128276   0.284   1.107  13.661  0.1330 -0.8465  0.7171
 2287TIP3    H228277   0.392   1.204  13.621 -0.7856 -0.0773  0.0652
 2288TIP3   OH228278   4.385   1.600  12.535 -0.0981 -0.2480 -0.3882
 2288TIP3    H128279   4.430   1.517  12.517 -1.8215 -1.5890  1.0764
 2288TIP3    H228280   4.428   1.634  12.613 -0.3055 -0.4920 -0.1663
 2289TIP3   OH228281   2.191   3.749   3.993  0.1177 -0.3934  0.6555
 2289TIP3    H128282   2.272   3.699   4.008  0.3798 -0.3937 -0.6845
 2289TIP3    H228283   2.124   3.682   3.980 -0.1880 -0.3974  2.0691
 2290TIP3   OH228284   5.218   5.819   5.840 -0.0556  0.2715 -0.1686
 2290TIP3    H128285   5.172   5.758   5.782  0.6643  0.7267 -1.2687
 2290TIP3    H228286   5.246   5.766   5.914  1.1501 -0.9182 -1.4115
 2291TIP3   OH228287   4.336   0.469  16.555  0.1060 -0.2886  0.4680
 2291TIP3    H128288   4.405   0.493  16.617 -0.1077 -1.2236  1.0914
 2291TIP3    H228289   4.333   0.373  16.558 -2.5215 -0.2512  1.9256
 2292TIP3   OH228290   2.195   2.176  15.066  0.1436 -0.4249  0.7541
 2292TIP3    H128291   2.143   2.099  15.044  0.6780 -1.4921  2.9654
 2292TIP3    H228292   2.285   2.143  15.075  0.3257  0.3645  2.0593
 2293TIP3   OH228293   1.899   2.418  16.138 -1.2253 -0.0658 -0.2052
 2293TIP3    H128294   1.872   2.340  16.185 -0.2233 -0.8784 -0.9473
 2293TIP3    H228295   1.911   2.389  16.048  0.1915  0.6857 -0.2888
 2294TIP3   OH228296   1.907   1.383  13.197  0.0383  0.2243 -0.1544
 2294TIP3    H128297   1.833   1.444  13.196  0.0794  0.3633  1.6812
 2294TIP3    H228298   1.980   1.434  13.159 -0.0162  1.2246  1.0196
 2295TIP3   OH228299   4.444   2.693   0.775  0.1165  0.6052  0.2009
 2295TIP3    H128300   4.376   2.645   0.822  0.4409 -1.1492 -1.0225
 2295TIP3    H228301   4.522   2.683   0.830 -0.2738  1.4714  0.9380
 2296TIP3   OH228302   3.108   5.570   0.834 -0.0920  0.0470  0.0604
 2296TIP3    H128303   3.055   5.504   0.790 -0.3181  0.0573  0.3223
 2296TIP3    H228304   3.176   5.592   0.770 -1.6442  1.6252 -1.1727
 2297TIP3   OH228305   3.312   2.268   4.441 -0.5317  0.1054  0.0605
 2297TIP3    H128306   3.367   2.341   4.468 -0.5991  0.1658  0.0377
 2297TIP3    H228307   3.229   2.310   4.415 -0.4830  0.0435 -0.1911
 2298TIP3   OH228308   3.981   4.776  16.517  0.1716 -0.4089 -0.2885
 2298TIP3    H128309   3.898   4.802  16.557  1.2127  1.3482  0.8479
 2298TIP3    H228310   4.026   4.727  16.586  0.5094 -0.4733 -0.5514
 2299TIP3   OH228311   0.231   5.048   3.770  0.1903  0.9480  1.0196
 2299TIP3    H128312   0.267   4.971   3.725  2.3102  2.2907  0.2995
 2299TIP3    H228313   0.137   5.046   3.749  0.3743 -0.8683  0.1849
 2300TIP3   OH228314   2.346   3.801  13.333 -0.2319 -0.4724  0.3963
 2300TIP3    H128315   2.431   3.813  13.374 -0.5923  2.0806  0.5810
 2300TIP3    H228316   2.285   3.846  13.392 -1.9786 -3.3232  0.9601
 2301TIP3   OH228317   6.118   6.559  16.579  0.4990  0.4909  0.3542
 2301TIP3    H128318   6.032   6.516  16.580  0.3245  0.8485  0.7122
 2301TIP3    H228319   6.101   6.649  16.607  1.2032  0.1958  1.7891
 2302TIP3   OH228320   5.197   6.599   4.051 -0.9725  0.3619 -0.4714
 2302TIP3    H128321   5.112   6.615   4.011 -0.7779  0.8650 -0.6956
 2302TIP3    H228322   5.239   6.685   4.053 -1.4105  0.6006  1.8052
 2303TIP3   OH228323   1.208   2.712  16.753 -0.1750 -0.2091 -0.3835
 2303TIP3    H128324   1.165   2.630  16.730 -0.9435  0.4172 -1.2269
 2303TIP3    H228325   1.283   2.718  16.694 -0.0084 -0.3798 -0.1947
 2304TIP3   OH228326   6.387   5.144  15.197  0.2238 -0.1173  0.0785
 2304TIP3    H128327   6.311   5.175  15.148  0.1055 -0.9504 -0.2819
 2304TIP3    H228328   6.357   5.064  15.239  1.3394 -1.3923 -1.4058
 2305TIP3   OH228329   1.271   6.586   3.370 -0.3956 -0.0182 -0.0604
 2305TIP3    H128330   1.210   6.548   3.433  0.6075  0.2484  1.1155
 2305TIP3    H228331   1.241   6.676   3.357 -1.1929 -0.3782 -0.7559
 2306TIP3   OH228332   2.868   3.979   2.930 -0.0045 -0.2731 -0.2455
 2306TIP3    H128333   2.827   4.059   2.963 -1.2629 -1.3584  0.9608
 2306TIP3    H228334   2.875   3.993   2.836 -1.0528  0.8823 -0.1771
 2307TIP3   OH228335   3.593   2.111   6.107  0.0358 -0.0836 -0.3940
 2307TIP3    H128336   3.600   2.090   6.014  0.4383 -0.2308 -0.3322
 2307TIP3    H228337   3.659   2.179   6.121 -0.1824  0.1011 -0.2657
 2308TIP3   OH228338   6.161   4.682   6.496  0.3339  0.1095  0.9359
 2308TIP3    H128339   6.169   4.776   6.510 -1.6861  0.3113  1.0713
 2308TIP3    H228340   6.112   4.651   6.572 -2.6897 -0.2938 -0.9917
 2309TIP3   OH228341   2.261   5.441   2.530 -0.4636  0.2498  0.2763
 2309TIP3    H128342   2.272   5.439   2.435 -0.4109  2.6223  0.1893
 2309TIP3    H228343   2.202   5.367   2.549 -4.0419  2.1792 -2.1504
 2310TIP3   OH228344   5.759   1.398  12.996 -0.0302 -0.4244 -0.3948
 2310TIP3    H128345   5.855   1.395  12.992  0.0214  0.1668  0.1261
 2310TIP3    H228346   5.739   1.390  13.089 -0.5185 -1.1324 -0.5567
 2311TIP3   OH228347   5.357   2.858  10.737 -0.2310  0.6007  0.8172
 2311TIP3    H128348   5.384   2.863  10.829 -1.8882 -0.3810  1.3941
 2311TIP3    H228349   5.402   2.780  10.704 -2.8867 -1.6386  2.0549
 2312TIP3   OH228350   3.451   2.675   0.989 -0.3193 -0.1868  0.0384
 2312TIP3    H128351   3.538   2.636   0.996  0.6842  1.7420 -0.8322
 2312TIP3    H228352   3.467   2.763   0.955 -2.6415  0.1362 -0.4020
 2313TIP3   OH228353   2.745   4.336   1.220 -0.3536 -0.0437  0.1535
 2313TIP3    H128354   2.744   4.421   1.264  0.4939  0.7691 -1.3241
 2313TIP3    H228355   2.701   4.352   1.136 -2.7362 -1.7585  0.9622
 2314TIP3   OH228356   2.058   1.067   5.925  0.2121  0.1564 -0.1753
 2314TIP3    H128357   2.114   1.140   5.950 -0.1943 -0.1924  1.9013
 2314TIP3    H228358   2.113   0.989   5.933 -1.0023 -0.4958  4.2840
 2315TIP3   OH228359   4.832   1.943   5.584 -0.7632  0.3759  0.8447
 2315TIP3    H128360   4.826   1.852   5.613 -0.3684 -0.3437 -1.1717
 2315TIP3    H228361   4.862   1.991   5.662 -0.4803 -1.2821  1.8118
 2316TIP3   OH228362   4.629   1.166   4.579  0.2642 -0.4942 -0.2956
 2316TIP3    H128363   4.722   1.178   4.560  0.0394  1.7983 -0.2629
 2316TIP3    H228364   4.606   1.083   4.538  2.1941 -0.8364 -0.7774
 2317TIP3   OH228365   4.943   1.472  13.639 -0.6299 -0.2039 -0.0171
 2317TIP3    H128366   4.902   1.556  13.617 -0.6764 -0.4812 -1.0452
 2317TIP3    H228367   5.032   1.496  13.667 -0.4257  0.1594 -0.9176
 2318TIP3   OH228368   2.544   4.031  12.107 -0.2524  0.0281 -0.0831
 2318TIP3    H128369   2.487   3.964  12.071 -1.6379  1.2088 -0.1746
 2318TIP3    H228370   2.585   4.072  12.031  0.3970 -0.5304 -0.0402
 2319TIP3   OH228371   4.605   0.598  11.735  0.0188 -0.0172  0.0873
 2319TIP3    H128372   4.516   0.567  11.718 -0.1569  1.4887 -2.1583
 2319TIP3    H228373   4.595   0.692  11.751  1.2373  0.2997 -0.8637
 2320TIP3   OH228374   0.089   1.678  14.216 -0.1823 -1.0614 -0.2296
 2320TIP3    H128375   0.033   1.746  14.252 -1.3451 -1.1403 -1.7994
 2320TIP3    H228376   0.175   1.694  14.256 -0.1448  1.9166 -1.2608
 2321TIP3   OH228377   3.294   3.347  14.112  0.8258  0.1646 -0.2581
 2321TIP3    H128378   3.344   3.265  14.109  0.0725 -0.2846 -1.1888
 2321TIP3    H228379   3.203   3.319  14.100  0.5351  1.1163 -0.2946
 2322TIP3   OH228380   0.498   1.269   3.377  0.2616  0.0057 -0.2338
 2322TIP3    H128381   0.472   1.343   3.432  0.4585  0.8003 -1.1852
 2322TIP3    H228382   0.523   1.201   3.440 -1.7525  0.0380  0.6836
 2323TIP3   OH228383   5.958   1.943   2.156 -0.2609  0.0118 -0.0483
 2323TIP3    H128384   6.047   1.963   2.127 -0.4949  0.2323 -0.6321
 2323TIP3    H228385   5.905   1.947   2.076 -0.4299 -2.3848 -0.1364
 2324TIP3   OH228386   4.975   3.677  15.225 -0.4216 -0.0967 -0.1156
 2324TIP3    H128387   4.940   3.763  15.249 -0.5250 -0.5059  1.3015
 2324TIP3    H228388   5.008   3.641  15.307 -0.1832 -1.3290 -0.7298
 2325TIP3   OH228389   2.865   5.300   4.268  0.2603  0.2312 -0.3239
 2325TIP3    H128390   2.893   5.319   4.358 -0.6342 -0.8152  0.1894
 2325TIP3    H228391   2.773   5.278   4.275  0.3975 -0.7645 -1.3771
 2326TIP3   OH228392   2.961   5.464   2.426  0.1693  0.1503 -0.1841
 2326TIP3    H128393   2.976   5.435   2.336  0.4246  2.1693 -0.8447
 2326TIP3    H228394   2.866   5.459   2.437  0.1910 -0.7312 -0.3241
 2327TIP3   OH228395   1.851   2.505   5.918 -0.4540  0.0850 -0.3035
 2327TIP3    H128396   1.879   2.461   5.838 -0.3223  0.9295 -0.7330
 2327TIP3    H228397   1.871   2.443   5.988 -0.6823 -0.7123 -0.9306
 2328TIP3   OH228398   3.951   3.999   3.889 -0.3303 -0.0481  0.5901
 2328TIP3    H128399   4.016   3.948   3.839  0.0704 -0.0341  1.0844
 2328TIP3    H228400   3.867   3.967   3.858 -0.0859 -0.2893  0.1582
 2329TIP3   OH228401   1.872   1.909  12.136 -0.1152 -0.1086 -0.5476
 2329TIP3    H128402   1.781   1.941  12.135 -0.3724 -0.7618  0.4520
 2329TIP3    H228403   1.924   1.986  12.112 -0.7948  0.7847  0.7266
 2330TIP3   OH228404   1.573   4.519   6.111 -0.9833 -0.1412  0.1516
 2330TIP3    H128405   1.526   4.486   6.188 -1.0810 -0.1908  0.0702
 2330TIP3    H228406   1.575   4.614   6.124  2.0650 -0.3459  1.9932
 2331TIP3   OH228407   4.752   5.102  10.870  0.4470  0.5459 -0.3034
 2331TIP3    H128408   4.726   5.022  10.825  0.3293  0.0501  0.6291
 2331TIP3    H228409   4.828   5.134  10.820  2.0786 -1.4751  0.7250
 2332TIP3   OH228410   1.144   0.896  15.320  0.4306 -0.1305  0.6489
 2332TIP3    H128411   1.220   0.947  15.291 -0.7142  0.7572 -0.9487
 2332TIP3    H228412   1.087   0.960  15.362 -0.2561 -0.3902  0.1425
 2333TIP3   OH228413   5.650   1.150  16.543 -0.1578  0.1921  0.4483
 2333TIP3    H128414   5.561   1.133  16.513 -0.0956  0.1947  0.2635
 2333TIP3    H228415   5.699   1.071  16.520 -0.1822  0.0596  0.8352
 2334TIP3   OH228416   1.632   2.901   2.181  0.4421 -0.5253 -0.0630
 2334TIP3    H128417   1.558   2.920   2.239  0.9978 -0.7124  0.7351
 2334TIP3    H228418   1.702   2.960   2.212  0.5406 -0.1419 -0.9924
 2335TIP3   OH228419   1.542   5.931  16.410  0.9350 -0.2257  0.2614
 2335TIP3    H128420   1.468   5.966  16.459  0.5838 -0.4463 -0.0973
 2335TIP3    H228421   1.511   5.927  16.319  0.7094 -2.0837  0.3820
 2336TIP3   OH228422   0.271   3.000   6.747  0.2913 -0.1806  0.6602
 2336TIP3    H128423   0.332   3.020   6.676 -0.5054  1.3576  0.3462
 2336TIP3    H228424   0.281   3.073   6.808  0.0289 -0.8204  1.4818
 2337TIP3   OH228425   3.091   3.171   0.514 -0.3631 -0.4009 -0.4727
 2337TIP3    H128426   3.159   3.148   0.451 -0.1287  0.3358 -0.4978
 2337TIP3    H228427   3.011   3.180   0.462 -0.2782 -0.3092 -0.5865
 2338TIP3   OH228428   2.412   2.681  10.804 -0.1526  0.0488  0.4979
 2338TIP3    H128429   2.333   2.723  10.770  0.4363 -0.6941 -1.9954
 2338TIP3    H228430   2.387   2.590  10.817  0.3214 -0.2464 -0.5484
 2339TIP3   OH228431   2.981   2.656   3.132  0.5904  0.0340  0.2442
 2339TIP3    H128432   2.939   2.571   3.116 -2.1963  1.2887  0.3172
 2339TIP3    H228433   3.015   2.650   3.221  0.7540 -1.1274  0.1200
 2340TIP3   OH228434   5.083   0.343   6.131  0.2987 -0.1749 -0.0096
 2340TIP3    H128435   5.023   0.361   6.203  1.5102  0.9476  0.7588
 2340TIP3    H228436   5.168   0.332   6.173  0.6254 -2.0753 -1.0434
 2341TIP3   OH228437   1.734   0.006  16.419 -0.2868 -0.1446  0.4913
 2341TIP3    H128438   1.684  -0.075  16.407  0.5117 -0.5943  0.1029
 2341TIP3    H228439   1.826  -0.023  16.425 -0.1734  0.5189  2.6722
 2342TIP3   OH228440   1.712   2.539   1.517 -0.5308  0.1814 -0.1176
 2342TIP3    H128441   1.804   2.543   1.544 -0.5937  2.4785 -0.0092
 2342TIP3    H228442   1.674   2.471   1.572  0.7699  0.3076  1.0020
 2343TIP3   OH228443   3.542   0.770  15.731  0.7397 -0.1926  0.7414
 2343TIP3    H128444   3.527   0.857  15.695 -2.2724 -1.1227 -0.5607
 2343TIP3    H228445   3.508   0.710  15.664  2.8864 -2.4283  1.4971
 2344TIP3   OH228446   3.088   2.287  16.412 -0.1810  0.3332 -0.4606
 2344TIP3    H128447   3.114   2.212  16.466 -0.2462  0.9006  0.3742
 2344TIP3    H228448   3.003   2.314  16.446 -2.2685 -1.7654 -3.4414
 2345TIP3   OH228449   1.504   4.191  12.352  0.3812  0.2406 -0.0733
 2345TIP3    H128450   1.536   4.105  12.380 -1.5248 -0.1576  1.0902
 2345TIP3    H228451   1.520   4.192  12.257  0.0672 -1.5973 -0.1931
 2346TIP3   OH228452   3.966   6.367   2.201 -0.0671 -0.0643  0.1049
 2346TIP3    H128453   3.992   6.332   2.116  0.8903 -1.0405  0.7779
 2346TIP3    H228454   4.023   6.323   2.264 -0.6997  0.7015  1.2533
 2347TIP3   OH228455   3.507   5.873  16.706  0.0744  0.3634  0.1934
 2347TIP3    H128456   3.489   5.965  16.722 -2.6572 -0.1008  0.1789
 2347TIP3    H228457   3.496   5.862  16.612  0.7034  0.0672  0.1497
 2348TIP3   OH228458   5.429   0.514  12.484 -0.3475  0.1503  0.7232
 2348TIP3    H128459   5.400   0.573  12.553  2.1275 -0.6529  2.5695
 2348TIP3    H228460   5.519   0.542  12.465 -0.1256 -1.2155 -0.4004
 2349TIP3   OH228461   0.481   3.058  16.488 -0.8107 -0.0518  1.3526
 2349TIP3    H128462   0.514   2.975  16.523 -1.0473  0.1306  2.0154
 2349TIP3    H228463   0.560   3.109  16.469 -0.6808  0.2057  2.5028
 2350TIP3   OH228464   5.568   2.303  16.714  0.0851 -0.2146  0.5386
 2350TIP3    H128465   5.635   2.364  16.682 -0.4391  0.4769  0.7405
 2350TIP3    H228466   5.537   2.342  16.795  0.6582 -1.4196  1.3760
 2351TIP3   OH228467   2.483   0.023  14.626 -0.0589  0.6236  0.1589
 2351TIP3    H128468   2.528   0.054  14.705 -0.5233  1.4904  0.1021
 2351TIP3    H228469   2.433   0.099  14.596 -0.4304  0.0989 -0.5853
 2352TIP3   OH228470   1.866   6.739  12.761 -0.4596 -0.3073 -0.1306
 2352TIP3    H128471   1.791   6.686  12.789 -0.0542 -0.8372 -0.0100
 2352TIP3    H228472   1.831   6.798  12.695 -0.8752 -0.9451 -0.4986
 2353TIP3   OH228473   2.474   1.777   1.380 -0.7542  0.3752 -0.0610
 2353TIP3    H128474   2.513   1.821   1.304 -1.0190 -0.8716 -0.9647
 2353TIP3    H228475   2.387   1.752   1.350 -0.1219 -2.0002 -0.1330
 2354TIP3   OH228476   5.652   1.250   4.178 -0.4228  0.0708 -0.2377
 2354TIP3    H128477   5.734   1.291   4.151 -1.0158  1.1122 -0.4881
 2354TIP3    H228478   5.620   1.303   4.250  0.0932 -1.4898  1.2101
 2355TIP3   OH228479   2.463   0.823  16.271  0.2590  0.4693  0.0176
 2355TIP3    H128480   2.555   0.800  16.259  0.7595  2.3452 -0.0482
 2355TIP3    H228481   2.463   0.918  16.281 -1.9492  0.9408 -2.9941
 2356TIP3   OH228482   5.921   4.223   1.632 -0.1502 -0.3769 -0.0139
 2356TIP3    H128483   5.862   4.173   1.689 -0.5344  2.8524  2.7315
 2356TIP3    H228484   5.865   4.293   1.596  1.3816  1.2388  0.6067
 2357TIP3   OH228485   5.250   5.993  15.533 -0.0878 -0.0728  0.3610
 2357TIP3    H128486   5.290   6.002  15.620 -0.1465  0.8951  0.2993
 2357TIP3    H228487   5.169   6.044  15.540  0.4572  0.9469 -0.6052
 2358TIP3   OH228488   0.989   6.703  11.704  0.1090 -0.1866  0.0076
 2358TIP3    H128489   0.911   6.715  11.649 -0.0607 -0.5306  0.1641
 2358TIP3    H228490   0.961   6.638  11.770  0.8652 -1.1763 -0.6158
 2359TIP3   OH228491   0.959   6.489  13.439  0.4854 -0.1548 -0.6460
 2359TIP3    H128492   0.874   6.526  13.415 -0.9555 -1.3289  2.1228
 2359TIP3    H228493   0.952   6.396  13.419  2.4136  0.1628 -3.3487
 2360TIP3   OH228494   1.389   0.188   5.127 -0.2310  0.8417 -0.3708
 2360TIP3    H128495   1.343   0.238   5.059 -1.8988  0.0440  0.1233
 2360TIP3    H228496   1.323   0.130   5.164  0.8187  0.7175  1.4515
 2361TIP3   OH228497   6.473   6.195  17.160 -0.0704  0.3079 -0.0999
 2361TIP3    H128498   6.504   6.149  17.238 -0.0729 -2.7646 -1.7740
 2361TIP3    H228499   6.542   6.180  17.095 -1.4694  0.0692 -1.5816
 2362TIP3   OH228500   1.476   1.136  15.480 -0.0274 -1.1330  0.0227
 2362TIP3    H128501   1.473   1.088  15.563  2.1465 -0.7999  0.3545
 2362TIP3    H228502   1.564   1.120  15.446 -1.7523 -3.8129 -3.8430
 2363TIP3   OH228503   0.213   1.793  11.624 -0.3043 -0.2304 -0.0209
 2363TIP3    H128504   0.249   1.799  11.535 -0.3389 -2.0518 -0.1977
 2363TIP3    H228505   0.118   1.797  11.612 -0.3858 -2.3013 -0.2855
 2364TIP3   OH228506   4.467   2.548  16.174  0.3803 -0.3319  0.4135
 2364TIP3    H128507   4.446   2.558  16.081  0.0091  0.2051  0.5499
 2364TIP3    H228508   4.486   2.455  16.184  0.3412 -0.4107 -0.1854
 2365TIP3   OH228509   5.262   2.559   3.201 -0.4469 -0.1174  0.5324
 2365TIP3    H128510   5.315   2.584   3.277  2.1944  0.3849 -1.3330
 2365TIP3    H228511   5.272   2.632   3.140 -2.5204 -0.4919 -0.3321
 2366TIP3   OH228512   3.472   3.555  15.083  0.3925  0.6750  0.3602
 2366TIP3    H128513   3.554   3.507  15.094  1.0275  1.5930 -0.2297
 2366TIP3    H228514   3.494   3.646  15.104 -0.7945  0.7342  1.4878
 2367TIP3   OH228515   5.342   6.607   2.808  0.0814 -0.1839  0.7072
 2367TIP3    H128516   5.334   6.517   2.775 -1.6035  0.1682  0.0812
 2367TIP3    H228517   5.329   6.662   2.731  1.8323  0.6291  0.9469
 2368TIP3   OH228518   0.950   3.245   3.372  0.4077  0.2124 -0.1226
 2368TIP3    H128519   0.925   3.255   3.463 -0.5117 -0.3014 -0.3048
 2368TIP3    H228520   1.044   3.261   3.371  0.3075  0.9552  0.7906
 2369TIP3   OH228521   5.472   1.524   0.239 -0.4140 -0.1153 -0.3984
 2369TIP3    H128522   5.534   1.474   0.292  0.2349  1.3963  0.3402
 2369TIP3    H228523   5.386   1.498   0.272 -0.0229  1.3247  2.0574
 2370TIP3   OH228524   6.035   5.126   0.403 -0.5122  0.1412 -0.4460
 2370TIP3    H128525   6.090   5.204   0.400 -0.1471 -0.1109 -0.3727
 2370TIP3    H228526   6.090   5.056   0.367 -0.2039 -0.4536  1.0734
 2371TIP3   OH228527   1.261   0.308   3.131  1.0140 -0.0722 -0.2610
 2371TIP3    H128528   1.230   0.395   3.104  1.8639  0.3939  0.2335
 2371TIP3    H228529   1.226   0.296   3.219  0.0760 -0.6602 -0.7015
 2372TIP3   OH228530   5.908   2.680   1.199 -0.2924  0.1706 -0.3117
 2372TIP3    H128531   6.002   2.667   1.193 -0.3017 -0.3934  0.5335
 2372TIP3    H228532   5.873   2.643   1.117 -0.0924 -3.2183  0.9718
 2373TIP3   OH228533   6.523   0.879   5.314 -0.0168 -0.6030 -0.1708
 2373TIP3    H128534   6.506   0.785   5.316 -2.0755 -0.2681  0.6922
 2373TIP3    H228535   6.536   0.899   5.221  1.9691 -1.9363 -0.2254
 2374TIP3   OH228536   2.849   4.756   2.304 -0.1423  0.8861 -0.1841
 2374TIP3    H128537   2.899   4.817   2.359 -0.7313 -0.1947  1.6235
 2374TIP3    H228538   2.915   4.717   2.246  0.9808  0.2350  1.4566
 2375TIP3   OH228539   2.687   5.354   6.422 -0.0367 -0.2406 -0.0127
 2375TIP3    H128540   2.606   5.382   6.464 -0.2720 -0.0486 -0.5888
 2375TIP3    H228541   2.694   5.261   6.443  1.1620  0.3271  2.6099
 2376TIP3   OH228542   1.038   6.636   0.665 -0.1855 -0.5435 -0.0587
 2376TIP3    H128543   1.104   6.653   0.598  2.0062 -0.9264  1.8810
 2376TIP3    H228544   1.013   6.544   0.652  1.5829 -1.1711  0.7048
 2377TIP3   OH228545   5.739   4.574  14.903  0.2205 -0.7362 -0.3215
 2377TIP3    H128546   5.781   4.520  14.835 -0.4135  1.2728 -2.4429
 2377TIP3    H228547   5.646   4.554  14.895  0.2622 -1.5995  1.0556
 2378TIP3   OH228548   3.956   5.211   6.116  0.6122 -0.0532 -0.5125
 2378TIP3    H128549   3.905   5.196   6.196 -0.6696 -0.5206 -1.3756
 2378TIP3    H228550   3.998   5.295   6.130 -0.5681  0.4525  0.1747
 2379TIP3   OH228551   4.244   5.388  11.168 -0.6279 -0.3218 -0.4796
 2379TIP3    H128552   4.322   5.435  11.197 -0.5463 -1.0563  0.5425
 2379TIP3    H228553   4.226   5.422  11.080  0.3041  0.5081 -0.3572
 2380TIP3   OH228554   3.938   1.782   3.675  0.1724  0.3170 -0.4589
 2380TIP3    H128555   3.881   1.841   3.626  0.4299 -0.2606 -1.4787
 2380TIP3    H228556   4.015   1.771   3.619 -0.1233 -1.4482 -0.5940
 2381TIP3   OH228557   5.313   3.487  14.199  0.6364 -0.1577 -0.5630
 2381TIP3    H128558   5.313   3.582  14.211 -2.1304 -0.2166  0.5739
 2381TIP3    H228559   5.316   3.452  14.288 -1.1694 -1.0350 -0.7968
 2382TIP3   OH228560   1.674   4.541   6.811  0.7503  0.5405 -0.1352
 2382TIP3    H128561   1.732   4.467   6.829 -0.4344  0.0001  1.6721
 2382TIP3    H228562   1.634   4.519   6.726  1.8888  0.1044 -0.5808
 2383TIP3   OH228563   2.852   2.179   0.179  0.1327  0.3521  0.1730
 2383TIP3    H128564   2.784   2.167   0.113  1.4301  2.0782 -1.6113
 2383TIP3    H228565   2.814   2.146   0.259 -2.1721 -0.2809 -1.0942
 2384TIP3   OH228566   4.718   0.595  10.846  0.3992  0.4776  0.0584
 2384TIP3    H128567   4.804   0.576  10.808 -0.0323  0.4651 -0.9485
 2384TIP3    H228568   4.684   0.510  10.872  0.3628  0.3953 -0.2616
 2385TIP3   OH228569   4.219   1.702   4.696  0.0821 -0.0980  0.1043
 2385TIP3    H128570   4.208   1.667   4.784  0.1894  0.2917  0.2765
 2385TIP3    H228571   4.235   1.796   4.709  1.6769 -0.2881 -0.2337
 2386TIP3   OH228572   1.832   4.630  16.236 -0.0043  0.2031 -0.2661
 2386TIP3    H128573   1.743   4.638  16.270 -0.3904 -0.1306 -1.1485
 2386TIP3    H228574   1.821   4.593  16.148  0.8054  2.6995 -1.5215
 2387TIP3   OH228575   2.691   4.664   5.402 -0.2743 -0.4549 -0.1256
 2387TIP3    H128576   2.650   4.656   5.488 -1.5970 -0.0013 -0.6749
 2387TIP3    H228577   2.736   4.580   5.389  2.5335  0.5490  2.2219
 2388TIP3   OH228578   3.066   4.073   5.515 -0.4664  0.8581  0.0182
 2388TIP3    H128579   3.018   4.110   5.589 -3.3201 -0.2196 -1.1669
 2388TIP3    H228580   3.052   3.979   5.521 -0.7271  0.7325 -1.8254
 2389TIP3   OH228581   3.500   5.177   3.599 -0.0446  0.5228  0.4172
 2389TIP3    H128582   3.558   5.247   3.629 -0.1557  0.5636  0.5351
 2389TIP3    H228583   3.526   5.164   3.507 -0.2284  0.9304  0.3035
 2390TIP3   OH228584   1.586   0.473   0.426  0.2251  0.1236  0.0022
 2390TIP3    H128585   1.609   0.565   0.414 -1.6373  0.3787 -2.2891
 2390TIP3    H228586   1.506   0.475   0.478  0.4989 -0.2592  0.4456
 2391TIP3   OH228587   2.987   4.038   0.402  0.0763  0.2814  0.2776
 2391TIP3    H128588   3.022   4.105   0.343  1.8565 -1.4476 -0.7546
 2391TIP3    H228589   2.906   4.009   0.359  1.1111 -0.6327 -1.1532
 2392TIP3   OH228590   6.369   0.119  10.889 -0.4730 -0.4530 -0.2593
 2392TIP3    H128591   6.422   0.093  10.814  1.3129  1.0839  0.3803
 2392TIP3    H228592   6.426   0.103  10.965 -1.0139  0.9870  0.4799
 2393TIP3   OH228593   1.386   1.668  13.911  0.5976  0.0206 -0.3183
 2393TIP3    H128594   1.458   1.642  13.855 -0.0423 -1.0800 -0.6653
 2393TIP3    H228595   1.357   1.752  13.876  1.2168  0.1035 -0.6424
 2394TIP3   OH228596   4.810   1.800   4.875 -0.1951 -0.2810  0.1063
 2394TIP3    H128597   4.749   1.740   4.918 -0.6532  0.9922  1.3284
 2394TIP3    H228598   4.796   1.883   4.920  1.6004  0.3351 -0.4118
 2395TIP3   OH228599   2.226   1.216  12.269  0.2455 -0.0466 -0.2200
 2395TIP3    H128600   2.252   1.175  12.187  1.6524  0.3916 -0.0161
 2395TIP3    H228601   2.284   1.292  12.278  0.1556 -0.1147  1.1931
 2396TIP3   OH228602   5.402   2.074  15.213 -0.4776  0.1480  0.5343
 2396TIP3    H128603   5.493   2.066  15.239 -1.0047 -2.6036  1.9304
 2396TIP3    H228604   5.376   2.162  15.243  1.6504  0.9965  0.0531
 2397TIP3   OH228605   5.866   1.958   1.799  0.3336  0.7117 -0.0109
 2397TIP3    H128606   5.950   1.941   1.756 -0.7575 -2.2821 -1.2361
 2397TIP3    H228607   5.801   1.949   1.729 -1.0711  2.8131  0.9291
 2398TIP3   OH228608   5.116   2.685   1.100  0.2344 -0.1831 -0.4261
 2398TIP3    H128609   5.116   2.731   1.184  1.2608  0.3190 -0.6819
 2398TIP3    H228610   5.194   2.629   1.103  0.3378 -0.0829 -1.0818
 2399TIP3   OH228611   4.407   6.024  16.269 -0.0114 -0.2023 -0.0328
 2399TIP3    H128612   4.470   5.998  16.201 -0.6610 -0.3310 -0.6001
 2399TIP3    H228613   4.448   5.995  16.351 -0.0898 -1.8628 -0.5281
 2400TIP3   OH228614   4.892   1.446  12.753  0.4594 -0.3886 -0.4607
 2400TIP3    H128615   4.807   1.471  12.790  1.2029  0.3427  0.8384
 2400TIP3    H228616   4.885   1.467  12.660 -1.2385 -1.6184 -0.6542
 2401TIP3   OH228617   5.804   2.003  16.119 -0.0371  0.0017 -0.3930
 2401TIP3    H128618   5.809   1.919  16.164 -1.2517  1.0397  1.8686
 2401TIP3    H228619   5.892   2.015  16.082  0.2060 -2.1400 -0.6542
 2402TIP3   OH228620   1.278   6.241  16.897  0.1603  0.1207 -0.1452
 2402TIP3    H128621   1.255   6.204  16.812 -0.0609  0.2367 -0.1376
 2402TIP3    H228622   1.240   6.181  16.961  1.6683 -0.8470 -0.0931
 2403TIP3   OH228623   4.719   2.169  16.913  0.1455  0.0006  0.2989
 2403TIP3    H128624   4.727   2.136  16.823  1.3381  0.0471  0.3751
 2403TIP3    H228625   4.705   2.263  16.902 -0.9665 -0.1736  0.1395
 2404TIP3   OH228626   3.596   6.746  16.814 -0.6276  0.4201  0.1271
 2404TIP3    H128627   3.669   6.689  16.839 -1.0924 -0.4674 -0.4937
 2404TIP3    H228628   3.621   6.778  16.727  0.1400  2.0542  0.9129
 2405TIP3   OH228629   2.960   0.915   4.649 -0.1317 -0.1931 -0.1550
 2405TIP3    H128630   2.925   0.890   4.564 -1.1470 -0.3793  0.2930
 2405TIP3    H228631   3.027   0.849   4.668  0.1269 -0.1282 -0.8183
 2406TIP3   OH228632   5.310   0.754  14.555 -0.4461 -0.6671  0.5154
 2406TIP3    H128633   5.240   0.736  14.493  1.1370  0.4382 -1.7166
 2406TIP3    H228634   5.352   0.833  14.522  2.0182 -1.4317  1.5894
 2407TIP3   OH228635   4.919   1.482   5.965 -0.0683  0.4447  0.2866
 2407TIP3    H128636   4.992   1.460   5.908 -0.6563 -0.0676 -0.2761
 2407TIP3    H228637   4.884   1.564   5.929  0.7379  1.1601  1.0639
 2408TIP3   OH228638   4.066   1.258   2.612  0.1333 -0.0647 -0.5960
 2408TIP3    H128639   3.996   1.271   2.677  0.3640 -1.0863 -0.1159
 2408TIP3    H228640   4.031   1.296   2.531 -1.5080 -1.6045 -0.6864
 2409TIP3   OH228641   6.657   4.288   1.380 -0.2786  0.0525 -0.5049
 2409TIP3    H128642   6.696   4.285   1.293 -0.0555 -0.4149 -0.3907
 2409TIP3    H228643   6.657   4.381   1.403  0.8846  0.0443 -0.4542
 2410TIP3   OH228644   3.698   3.747   4.033 -0.3829  0.2914  0.3434
 2410TIP3    H128645   3.649   3.790   3.963  0.3585 -0.1061 -0.4463
 2410TIP3    H228646   3.653   3.773   4.114 -1.2652  0.7473 -0.2759
 2411TIP3   OH228647   0.595   4.803  13.736  0.4522  0.0331 -0.6139
 2411TIP3    H128648   0.673   4.769  13.692  1.4996 -0.6949  1.6405
 2411TIP3    H228649   0.595   4.759  13.821 -1.1654  1.7507  0.3370
 2412TIP3   OH228650   4.976   5.495  10.964 -0.1909 -0.0670  0.1091
 2412TIP3    H128651   5.002   5.568  10.907 -1.2233  0.4958  0.3309
 2412TIP3    H228652   5.051   5.437  10.965 -0.6647 -0.8739 -3.0498
 2413TIP3   OH228653   6.564   4.705   5.721  0.4287 -0.3602  0.4097
 2413TIP3    H128654   6.569   4.669   5.633 -0.6028  0.0978  0.1495
 2413TIP3    H228655   6.470   4.717   5.737  0.6933  2.0027  0.5345
 2414TIP3   OH228656   3.784   0.516  17.153 -0.0622 -0.4214 -0.2597
 2414TIP3    H128657   3.858   0.489  17.208  1.2231 -1.9972 -2.5790
 2414TIP3    H228658   3.799   0.471  17.070 -2.6890  0.6835 -1.4306
 2415TIP3   OH228659   3.722   0.307  12.285  0.0809 -0.1213  0.4816
 2415TIP3    H128660   3.696   0.271  12.200  1.6175 -0.0128 -0.0797
 2415TIP3    H228661   3.678   0.392  12.289  1.0268  0.4791 -0.8545
 2416TIP3   OH228662   5.941   6.717  16.059  0.0215 -0.1444  0.4958
 2416TIP3    H128663   6.014   6.712  16.120 -0.4865 -1.8572  1.0296
 2416TIP3    H228664   5.864   6.725  16.115 -0.3828 -0.7799  0.0426
 2417TIP3   OH228665   3.224   5.440   5.823  0.1884  0.1312  0.3229
 2417TIP3    H128666   3.298   5.473   5.771  0.1261 -0.1110  0.0806
 2417TIP3    H228667   3.242   5.471   5.912 -1.0028  2.8133 -0.2596
 2418TIP3   OH228668   4.142   0.974   5.787  0.0295 -0.0471  0.7222
 2418TIP3    H128669   4.135   0.891   5.835  1.3445 -0.9099 -0.4740
 2418TIP3    H228670   4.131   0.949   5.695 -1.3131  1.3948  0.4405
 2419TIP3   OH228671   6.466   1.859   0.657 -0.6056 -0.1099  0.4038
 2419TIP3    H128672   6.387   1.827   0.700 -1.2539 -0.7853 -1.2093
 2419TIP3    H228673   6.482   1.796   0.586 -1.1307  2.3163 -2.0549
 2420TIP3   OH228674   5.652   4.535  10.928  0.1584 -0.5265 -0.4643
 2420TIP3    H128675   5.715   4.462  10.925 -0.4044 -1.2098  1.9050
 2420TIP3    H228676   5.571   4.498  10.893  0.0718 -0.8302  0.0474
 2421TIP3   OH228677   1.419   0.227  13.030 -0.5053 -0.1954 -0.1727
 2421TIP3    H128678   1.414   0.142  12.985  1.4532 -1.9261  2.5421
 2421TIP3    H228679   1.357   0.219  13.103  1.6639 -0.5413  1.7538
 2422TIP3   OH228680   3.743   4.948   3.969 -0.3615 -0.3431 -0.5878
 2422TIP3    H128681   3.780   4.861   3.952 -0.0047  0.3616 -4.1239
 2422TIP3    H228682   3.817   5.008   3.961 -0.9083  0.4406  0.0891
 2423TIP3   OH228683   1.723   4.819   0.815  0.1323  0.6649  0.2895
 2423TIP3    H128684   1.726   4.730   0.781 -1.1332  0.7098 -0.0118
 2423TIP3    H228685   1.629   4.837   0.824  0.3957  1.5067  1.5660
 2424TIP3   OH228686   0.106   4.439  16.350 -0.5076  0.1350 -0.1394
 2424TIP3    H128687   0.029   4.399  16.392 -0.4707  1.5837  1.4381
 2424TIP3    H228688   0.175   4.374  16.360 -1.0516 -0.4105  0.1850
 2425TIP3   OH228689   0.581   3.646  14.011  0.1323 -0.4660 -0.3822
 2425TIP3    H128690   0.490   3.664  14.038 -0.0543 -2.1387  0.2155
 2425TIP3    H228691   0.573   3.615  13.921 -0.0248 -1.6031  0.0088
 2426TIP3   OH228692   1.276   0.383   6.568 -0.5160  0.6529 -0.3825
 2426TIP3    H128693   1.253   0.440   6.641 -2.3480 -1.3068  0.6977
 2426TIP3    H228694   1.331   0.315   6.607  1.5668  1.5327 -1.6214
 2427TIP3   OH228695   5.674   6.000   0.894  0.3736  0.1807  0.5820
 2427TIP3    H128696   5.608   6.063   0.923  2.7219  3.2706 -0.3401
 2427TIP3    H228697   5.644   5.973   0.807 -1.1008 -0.7833  1.3356
 2428TIP3   OH228698   0.881   4.674  17.316 -0.1792 -0.3939  0.0137
 2428TIP3    H128699   0.788   4.676  17.295 -0.4479  1.1119  1.1640
 2428TIP3    H228700   0.885   4.659  17.411  0.7204  0.0057  0.0546
 2429TIP3   OH228701   5.597   5.742  12.897  0.1190 -0.4090  0.6263
 2429TIP3    H128702   5.682   5.716  12.933  0.5155  0.1635  0.1226
 2429TIP3    H228703   5.562   5.661  12.859  0.4027 -0.6639  0.8994
 2430TIP3   OH228704   2.974   2.254  15.690 -0.5422 -0.5228 -0.2784
 2430TIP3    H128705   3.033   2.312  15.738 -1.5466  0.4679 -0.1966
 2430TIP3    H228706   3.020   2.234  15.608 -0.5539  1.1617 -0.7203
 2431TIP3   OH228707   1.968   5.267   5.442 -0.6193  0.2366  0.8756
 2431TIP3    H128708   1.902   5.238   5.379 -0.2074 -1.6497  1.2423
 2431TIP3    H228709   2.014   5.338   5.398 -2.4409  1.1516  0.3561
 2432TIP3   OH228710   5.581   3.912  14.081 -0.2644  0.1729  0.2033
 2432TIP3    H128711   5.486   3.911  14.070 -0.0304  0.5628 -2.4085
 2432TIP3    H228712   5.610   3.825  14.054  0.1573  0.1147  0.8048
 2433TIP3   OH228713   2.323   1.961   5.878 -0.4384  0.4543 -0.4868
 2433TIP3    H128714   2.381   2.029   5.845  1.3688 -1.3117 -1.2117
 2433TIP3    H228715   2.361   1.879   5.844 -0.6765 -1.1889  2.7816
 2434TIP3   OH228716   0.676   4.990   0.278 -0.0627 -0.1735  0.2246
 2434TIP3    H128717   0.691   4.896   0.272  2.4613  0.2055 -1.0833
 2434TIP3    H228718   0.740   5.020   0.342 -2.2487  0.4771  2.2344
 2435TIP3   OH228719   0.376   3.688   1.820  0.9671  0.2990  0.1270
 2435TIP3    H128720   0.341   3.709   1.734  0.3226  0.4040  0.4047
 2435TIP3    H228721   0.425   3.766   1.846 -1.3295  1.5344  1.1091
 2436TIP3   OH228722   5.335   4.941  11.769 -0.7863  0.3540 -0.0698
 2436TIP3    H128723   5.258   4.885  11.758  0.2364 -1.1402  0.1951
 2436TIP3    H228724   5.409   4.888  11.740  0.3384  1.2162  1.0803
 2437TIP3   OH228725   6.387   0.871   5.980 -0.0214 -0.2322 -0.4679
 2437TIP3    H128726   6.346   0.957   5.983  0.7508  0.2463 -2.3338
 2437TIP3    H228727   6.314   0.810   5.969 -0.4383  0.3538 -1.0075
 2438TIP3   OH228728   4.590   0.416   0.701 -0.3857  0.3851  0.0070
 2438TIP3    H128729   4.626   0.488   0.649 -1.2103  1.0423  0.3213
 2438TIP3    H228730   4.539   0.364   0.639  0.4597 -0.1029 -0.2816
 2439TIP3   OH228731   2.672   6.326   1.001 -0.5616  0.0944  0.3020
 2439TIP3    H128732   2.700   6.400   0.947 -3.1475  1.9887  1.3451
 2439TIP3    H228733   2.576   6.328   0.997 -0.7683 -1.6066  2.4431
 2440TIP3   OH228734   1.258   0.285  13.254  0.2570  0.2047  0.4119
 2440TIP3    H128735   1.269   0.366  13.304  0.3559  0.3692  0.1243
 2440TIP3    H228736   1.168   0.288  13.223 -0.1043 -0.3375  1.3435
 2441TIP3   OH228737   5.335   3.746   2.659  0.4092 -0.6449 -0.2863
 2441TIP3    H128738   5.358   3.731   2.567 -1.0313  0.8288 -0.9415
 2441TIP3    H228739   5.319   3.658   2.694 -2.7298 -1.1374 -2.5134
 2442TIP3   OH228740   0.685   4.486   4.698 -0.1713  0.4344  0.0121
 2442TIP3    H128741   0.734   4.566   4.713 -0.2467  0.9222 -2.0011
 2442TIP3    H228742   0.602   4.499   4.743 -0.5229  1.8787 -0.9877
 2443TIP3   OH228743   2.832   2.248  14.269 -0.3473 -0.4170  0.0924
 2443TIP3    H128744   2.873   2.172  14.229 -2.3764 -1.2321 -0.5711
 2443TIP3    H228745   2.745   2.218  14.295 -0.7150  1.3190  1.0742
 2444TIP3   OH228746   5.217   0.476  15.195 -0.1654  0.7421 -0.1610
 2444TIP3    H128747   5.294   0.444  15.241  0.8675 -0.8995 -2.7647
 2444TIP3    H228748   5.164   0.517  15.262  2.8743  1.8059  1.7846
 2445TIP3   OH228749   1.060   3.214  12.277 -0.0798  0.5325 -0.4826
 2445TIP3    H128750   1.111   3.216  12.197 -1.3295  1.8802 -1.3153
 2445TIP3    H228751   1.023   3.303  12.284 -1.7895 -0.1915  0.3663
 2446TIP3   OH228752   4.480   0.184   2.984  0.3423  0.3062  0.4627
 2446TIP3    H128753   4.573   0.203   2.996  0.3939 -0.1758  0.8845
 2446TIP3    H228754   4.435   0.256   3.027  0.4991  1.1462 -0.7159
 2447TIP3   OH228755   6.755   0.995   0.870  0.1531  0.1409 -0.3960
 2447TIP3    H128756   6.672   0.973   0.913 -0.9284  0.8018 -2.0394
 2447TIP3    H228757   6.806   0.914   0.874  0.0113  0.0922  1.8089
 2448TIP3   OH228758   2.064   0.371   3.696 -0.4903  0.4176  0.5617
 2448TIP3    H128759   1.977   0.390   3.732 -1.1765 -1.3486 -0.0649
 2448TIP3    H228760   2.094   0.294   3.745  0.7157  0.9663  0.7253
 2449TIP3   OH228761   3.330   6.040   2.272  0.1772  0.3624  0.2497
 2449TIP3    H128762   3.348   6.134   2.272 -0.7828  0.5571  0.4403
 2449TIP3    H228763   3.343   6.014   2.364  0.4311  0.3015  0.1990
 2450TIP3   OH228764   0.615   5.122  15.157 -0.6000  0.0996  0.3677
 2450TIP3    H128765   0.633   5.041  15.205  3.3138  1.1566  0.9829
 2450TIP3    H228766   0.582   5.182  15.224 -2.6746 -0.6154  0.0713
 2451TIP3   OH228767   0.622   1.922  17.117  0.1660  0.0125  0.0065
 2451TIP3    H128768   0.580   1.850  17.070  1.5969 -1.8268  1.3715
 2451TIP3    H228769   0.550   1.966  17.163 -0.8705  0.1801 -1.6714
 2452TIP3   OH228770   4.479   2.704   0.063 -0.0059  0.4303 -0.5419
 2452TIP3    H128771   4.519   2.790   0.076  0.8550  0.2442 -1.7785
 2452TIP3    H228772   4.408   2.720  -0.000 -2.3164  0.8369  1.9381
 2453TIP3   OH228773   6.137   2.100  13.075 -0.0647 -0.5838  0.3531
 2453TIP3    H128774   6.064   2.037  13.083  0.4903 -1.3097 -0.1410
 2453TIP3    H228775   6.120   2.165  13.143 -0.8441 -1.0816  0.6546
 2454TIP3   OH228776   3.630   3.721   6.398  0.3528 -0.2320 -0.2520
 2454TIP3    H128777   3.692   3.755   6.334  0.3166  0.2875 -0.0091
 2454TIP3    H228778   3.550   3.706   6.347  0.1220  0.7871 -0.2100
 2455TIP3   OH228779   1.956   1.595  11.919  0.3177  0.0270  0.4074
 2455TIP3    H128780   2.001   1.529  11.973  2.8391 -0.5303 -2.1160
 2455TIP3    H228781   1.889   1.547  11.872  0.2963 -0.1511  0.6189
 2456TIP3   OH228782   4.931   4.457  15.464  0.2958 -0.6919 -0.1120
 2456TIP3    H128783   4.969   4.536  15.503  0.0140 -1.3204  1.4968
 2456TIP3    H228784   4.857   4.490  15.412  0.1880  0.1112  0.5284
 2457TIP3   OH228785   1.019   1.113   3.301 -0.2023  0.4433 -0.7832
 2457TIP3    H128786   1.007   1.110   3.206 -0.1385 -0.2705 -0.7790
 2457TIP3    H228787   1.069   1.192   3.317  0.6324  0.0607 -1.4498
 2458TIP3   OH228788   6.594   2.106  12.243  0.4995 -0.0078  0.5813
 2458TIP3    H128789   6.648   2.178  12.277 -0.8100  2.1310 -1.5680
 2458TIP3    H228790   6.514   2.109  12.297 -1.1132  2.6777 -1.6709
 2459TIP3   OH228791   5.171   3.293  16.141  0.8872  0.4792  0.4424
 2459TIP3    H128792   5.165   3.211  16.189 -1.8507 -1.0285 -2.1481
 2459TIP3    H228793   5.124   3.357  16.195 -1.6462 -1.0231  0.1816
 2460TIP3   OH228794   5.455   1.326  12.966  0.8065 -0.6800 -0.3629
 2460TIP3    H128795   5.455   1.300  12.874  0.9560  2.4306 -1.3612
 2460TIP3    H228796   5.548   1.330  12.990  0.7392 -2.6160  0.3302
 2461TIP3   OH228797   1.300   4.729   0.368 -0.3965 -0.3705  0.3826
 2461TIP3    H128798   1.229   4.791   0.386 -1.2153 -0.8709 -1.0142
 2461TIP3    H228799   1.262   4.643   0.387 -0.2036 -0.6483 -0.4604
 2462TIP3   OH228800   2.667   3.136  13.328 -0.2420  0.2881  0.8201
 2462TIP3    H128801   2.747   3.189  13.330 -0.5785  0.7892  1.5384
 2462TIP3    H228802   2.671   3.083  13.407  1.3309 -2.7239 -1.0824
 2463TIP3   OH228803   4.958   5.163  10.700  0.5772  0.2280  0.1884
 2463TIP3    H128804   5.008   5.082  10.687  0.9161  0.2432  1.2628
 2463TIP3    H228805   5.022   5.226  10.733 -0.3043 -0.0749  2.6893
 2464TIP3   OH228806   4.506   2.816  10.566 -0.7040 -0.1449 -0.6961
 2464TIP3    H128807   4.477   2.884  10.626 -1.6971 -0.5624 -0.6795
 2464TIP3    H228808   4.445   2.743  10.581 -0.4385 -0.5699 -1.5922
 2465TIP3   OH228809   0.052   2.679  13.130  0.1848 -0.0496 -0.5216
 2465TIP3    H128810  -0.023   2.708  13.182  0.4095  0.2800 -0.3756
 2465TIP3    H228811   0.126   2.729  13.164  0.3758  0.0197 -1.0183
 2466TIP3   OH228812   6.226   0.788   1.180  0.5651 -0.2716  0.1859
 2466TIP3    H128813   6.307   0.763   1.223  0.3065  0.6893  1.2851
 2466TIP3    H228814   6.226   0.884   1.183 -0.4495 -0.2499 -0.1116
 2467TIP3   OH228815   2.721   4.574  17.241 -0.3367 -0.5231  0.5800
 2467TIP3    H128816   2.660   4.509  17.277 -1.4804  0.6905  0.9526
 2467TIP3    H228817   2.678   4.606  17.162  0.1807 -0.1707  0.4360
 2468TIP3   OH228818   4.731   2.960  10.490  0.9567 -0.3481  0.2321
 2468TIP3    H128819   4.687   3.028  10.439  1.3479 -0.2909 -0.0300
 2468TIP3    H228820   4.665   2.890  10.498  1.3329 -0.9588 -1.5546
 2469TIP3   OH228821   1.823   1.322   4.288 -0.0492 -0.0180 -0.5006
 2469TIP3    H128822   1.897   1.378   4.265 -0.0410  1.2742  2.2461
 2469TIP3    H228823   1.749   1.383   4.296 -1.3072 -1.1820 -2.4724
 2470TIP3   OH228824   3.898   4.826   1.151 -0.0602  0.2842  0.1349
 2470TIP3    H128825   3.949   4.896   1.110  1.1241 -0.4190  0.3604
 2470TIP3    H228826   3.829   4.872   1.199  0.8973  1.3290  0.5637
 2471TIP3   OH228827   4.151   5.466  12.163 -0.1561 -0.2010 -0.4550
 2471TIP3    H128828   4.058   5.488  12.156 -0.1104 -0.2361 -1.3014
 2471TIP3    H228829   4.158   5.381  12.120 -0.2317 -1.6655  2.2558
 2472TIP3   OH228830   3.274   1.927  15.031 -0.9005  0.2602 -0.1623
 2472TIP3    H128831   3.267   1.980  14.952  0.1914  1.9768  0.8419
 2472TIP3    H228832   3.305   1.987  15.098 -1.3499 -1.2507  1.4883
 2473TIP3   OH228833   0.330   1.194  16.230 -0.6600 -0.0827 -0.3025
 2473TIP3    H128834   0.356   1.267  16.173  2.1134  0.6011  1.6295
 2473TIP3    H228835   0.364   1.116  16.186 -1.7095  0.0001 -1.2997
 2474TIP3   OH228836   2.431   3.986  15.898 -0.6265 -0.0543  0.0270
 2474TIP3    H128837   2.513   3.999  15.850 -1.4357 -0.4246 -1.5416
 2474TIP3    H228838   2.401   4.075  15.919  0.5609  0.0633  1.3765
 2475TIP3   OH228839   6.338   4.931   1.001  0.2700 -1.1731 -0.2059
 2475TIP3    H128840   6.315   4.843   0.972  0.8243 -1.3066 -0.2519
 2475TIP3    H228841   6.433   4.928   1.014  0.3021 -0.5659 -0.2694
 2476TIP3   OH228842   5.341   4.875   4.288  0.4893 -0.9228 -0.1579
 2476TIP3    H128843   5.305   4.820   4.357  0.0322 -1.9677 -1.1884
 2476TIP3    H228844   5.388   4.814   4.231  1.6401  0.0409 -0.2823
 2477TIP3   OH228845   2.938   0.011  15.276  0.2574  0.2055 -0.2245
 2477TIP3    H128846   2.860  -0.045  15.280 -2.0861  3.1851 -0.6932
 2477TIP3    H228847   2.983  -0.016  15.196 -2.2370  0.6487 -1.9044
 2478TIP3   OH228848   1.407   4.061   1.015 -0.2447 -0.6777 -0.4157
 2478TIP3    H128849   1.329   4.115   1.026  0.8236  0.6993  0.8204
 2478TIP3    H228850   1.378   3.972   1.035 -1.5441 -0.2160 -0.1818
 2479TIP3   OH228851   3.515   6.423  14.170 -0.2627 -0.6288  0.4236
 2479TIP3    H128852   3.546   6.443  14.081 -1.1519  0.6609  0.3797
 2479TIP3    H228853   3.590   6.442  14.226 -0.2558  0.3096  0.1110
 2480TIP3   OH228854   1.998   6.414  12.797 -0.4150  0.2534 -0.0047
 2480TIP3    H128855   2.028   6.336  12.750 -0.6390  0.7918 -1.0851
 2480TIP3    H228856   1.989   6.480  12.729  2.2855  2.0257  1.1758
 2481TIP3   OH228857   1.298   3.142  14.584 -0.6996  0.4617  0.2306
 2481TIP3    H128858   1.355   3.107  14.652 -0.5720  0.8316  0.3134
 2481TIP3    H228859   1.342   3.221  14.553 -0.3058 -0.1707 -0.8941
 2482TIP3   OH228860   0.960   4.096   5.552  0.2067 -0.0630  0.9083
 2482TIP3    H128861   0.981   4.155   5.624  3.2945 -0.5529  0.5440
 2482TIP3    H228862   1.034   4.034   5.550 -0.7104 -1.1893 -1.5197
 2483TIP3   OH228863   2.239   0.864  12.896 -0.2097  0.3316 -0.4474
 2483TIP3    H128864   2.306   0.932  12.889 -0.5499  0.6545 -0.5784
 2483TIP3    H228865   2.285   0.788  12.932  0.3153  0.4317 -0.8976
 2484TIP3   OH228866   1.447   0.029   1.636  0.5132 -0.1614 -0.0302
 2484TIP3    H128867   1.445   0.039   1.540 -1.8653 -1.8288 -0.2486
 2484TIP3    H228868   1.378   0.086   1.667  0.8497 -0.1167  0.6421
 2485TIP3   OH228869   3.512   1.146   4.769 -0.0796 -0.6104  0.4424
 2485TIP3    H128870   3.516   1.179   4.858 -2.9274 -1.7064  1.0680
 2485TIP3    H228871   3.553   1.215   4.716  2.0635 -0.1345  2.5817
 2486TIP3   OH228872   3.361   1.584  13.886 -0.2194 -0.2931  0.1171
 2486TIP3    H128873   3.365   1.573  13.981 -0.6926  0.8038  0.2903
 2486TIP3    H228874   3.445   1.622  13.862 -0.1426 -0.4660  0.1097
 2487TIP3   OH228875   1.435   1.764   5.957  0.3378  0.1076  0.0425
 2487TIP3    H128876   1.398   1.718   6.032 -0.2036 -1.0139 -0.8717
 2487TIP3    H228877   1.361   1.775   5.897  0.8136  0.7192 -0.4522
 2488TIP3   OH228878   2.450   0.621  13.732  0.3788 -0.7757  0.1899
 2488TIP3    H128879   2.480   0.536  13.700  2.3374 -0.3151  0.6501
 2488TIP3    H228880   2.389   0.600  13.803 -1.4597 -1.7654 -1.5886
 2489TIP3   OH228881   0.980   2.685   6.373  0.3779  0.5954 -0.1469
 2489TIP3    H128882   0.937   2.600   6.371 -0.6063  1.0870 -0.6981
 2489TIP3    H228883   1.054   2.673   6.432  1.3562 -1.1443 -1.6567
 2490TIP3   OH228884   5.541   6.151   2.773 -0.0630 -0.2260 -0.4637
 2490TIP3    H128885   5.508   6.222   2.717 -0.7583 -0.5288 -0.4521
 2490TIP3    H228886   5.551   6.191   2.859 -3.3994 -0.8116  0.3279
 2491TIP3   OH228887   6.364   2.544   3.932 -0.0349  0.4048  0.4457
 2491TIP3    H128888   6.395   2.512   3.847 -0.3226 -1.5050  1.0003
 2491TIP3    H228889   6.358   2.465   3.986 -1.1939  1.3835  1.8250
 2492TIP3   OH228890   0.162   1.956   4.498  0.0529 -0.0283  0.0142
 2492TIP3    H128891   0.192   2.026   4.555  0.7347  1.0081 -1.5424
 2492TIP3    H228892   0.233   1.891   4.500  1.0872  1.0015 -1.2759
 2493TIP3   OH228893   0.398   0.083   0.976 -0.1326  0.5451 -0.3258
 2493TIP3    H128894   0.373   0.127   0.894 -0.0820  2.2658  0.5318
 2493TIP3    H228895   0.323   0.097   1.034  0.6048  1.0209  0.5273
 2494TIP3   OH228896   4.953   6.604  10.601 -0.0649  0.1451  0.2031
 2494TIP3    H128897   4.938   6.545  10.675  2.7170 -1.9061 -0.7051
 2494TIP3    H228898   4.879   6.589  10.543 -0.1643 -1.3487  0.6847
 2495TIP3   OH228899   4.415   6.678  17.102 -0.4084  1.1794  0.4993
 2495TIP3    H128900   4.404   6.771  17.120  0.5469  1.2184  0.9391
 2495TIP3    H228901   4.394   6.669  17.009  0.4611  2.0130  0.2023
 2496TIP3   OH228902   1.377   0.841  15.596  0.2389  0.0113  0.0132
 2496TIP3    H128903   1.441   0.774  15.620  0.9045  0.8825  0.7530
 2496TIP3    H228904   1.391   0.911  15.660 -0.1147  1.0594 -1.0228
 2497TIP3   OH228905   6.483   0.144   1.941  0.6895 -0.1100  0.0949
 2497TIP3    H128906   6.454   0.093   2.017  0.1756  0.5397  0.3432
 2497TIP3    H228907   6.407   0.198   1.918  1.5184  1.2212  0.4096
 2498TIP3   OH228908   0.055   1.462   6.390  0.3464 -0.1332 -0.3355
 2498TIP3    H128909  -0.017   1.400   6.406 -2.0004  2.2782 -0.7957
 2498TIP3    H228910   0.132   1.407   6.375 -0.9442 -2.8371  2.1024
 2499TIP3   OH228911   4.450   0.797   0.131 -0.4765  0.4973 -0.6900
 2499TIP3    H128912   4.370   0.773   0.086 -0.3957  1.5668 -1.4411
 2499TIP3    H228913   4.487   0.869   0.079  0.0956  1.1526  0.5542
 2500TIP3   OH228914   3.966   3.530  12.054 -0.2707  0.0108 -0.2098
 2500TIP3    H128915   3.905   3.520  12.127  0.0870 -1.8197 -0.1169
 2500TIP3    H228916   3.929   3.600  12.001 -2.1853 -0.7197  0.1021
 2501TIP3   OH228917   3.708   0.298  16.184  0.3311  0.4246  0.4081
 2501TIP3    H128918   3.653   0.267  16.112 -1.8474 -0.3721  2.2992
 2501TIP3    H228919   3.657   0.367  16.226  0.6921 -0.4115  2.3181
 2502TIP3   OH228920   2.960   5.551  16.247 -0.0833 -0.3054  0.2304
 2502TIP3    H128921   2.939   5.641  16.219 -1.4192 -0.9705 -1.0603
 2502TIP3    H228922   2.947   5.552  16.342 -2.1738  0.3715 -0.0117
 2503TIP3   OH228923   3.764   4.685   3.358  0.1093 -0.1013 -0.3658
 2503TIP3    H128924   3.722   4.656   3.439  0.4903 -0.6564 -0.3675
 2503TIP3    H228925   3.854   4.653   3.364  0.4581  0.8246 -0.4998
 2504TIP3   OH228926   4.969   4.147  14.629 -0.0905 -0.2365  0.1338
 2504TIP3    H128927   4.883   4.167  14.666  0.1482  1.8108 -0.2488
 2504TIP3    H228928   4.997   4.068  14.674 -0.2141  1.5386  3.7409
 2505TIP3   OH228929   4.483   3.476  15.185 -0.0399  0.0437  0.5004
 2505TIP3    H128930   4.542   3.511  15.118 -1.2622  3.2265  0.9149
 2505TIP3    H228931   4.508   3.384  15.192  1.9412  0.2035 -2.3639
 2506TIP3   OH228932   5.017   3.416  16.347 -0.4649 -0.0499 -0.0023
 2506TIP3    H128933   5.007   3.435  16.441  0.2232  1.5595 -0.2179
 2506TIP3    H228934   5.077   3.483  16.316 -0.9699 -0.3382 -1.6860
 2507TIP3   OH228935   2.933   0.090   2.522  0.0937 -1.0197  0.5460
 2507TIP3    H128936   2.863   0.108   2.585 -0.8938  0.2050 -0.8144
 2507TIP3    H228937   3.000   0.156   2.540  0.2726 -1.2999  0.9323
 2508TIP3   OH228938   1.322   3.541  15.925 -0.3381  0.1913 -0.2337
 2508TIP3    H128939   1.317   3.502  15.838  0.6853 -2.0213  0.6039
 2508TIP3    H228940   1.416   3.540  15.946 -0.6302 -0.0647  1.1761
 2509TIP3   OH228941   2.354   2.112   1.048  0.6123 -0.1643 -0.2909
 2509TIP3    H128942   2.389   2.154   1.127 -0.0775 -2.0780  1.1209
 2509TIP3    H228943   2.302   2.180   1.006 -0.6260  0.4215  1.9959
 2510TIP3   OH228944   0.091   2.818   4.310  0.2726  0.0515 -0.3375
 2510TIP3    H128945   0.104   2.796   4.402 -0.6326 -1.1169 -0.4660
 2510TIP3    H228946   0.037   2.746   4.276  1.2040  0.0913 -1.9599
 2511TIP3   OH228947   5.389   2.107  16.841 -0.1968  0.0627  0.5646
 2511TIP3    H128948   5.422   2.023  16.809 -0.6642  0.0346  0.1473
 2511TIP3    H228949   5.425   2.171  16.780 -2.0332 -0.0987 -0.7686
 2512TIP3   OH228950   1.967   3.258  16.211 -0.0543 -0.0925 -0.5449
 2512TIP3    H128951   1.889   3.309  16.228 -0.4302 -0.4693 -1.0929
 2512TIP3    H228952   1.953   3.176  16.259  0.3216  0.1187 -0.0728
 2513TIP3   OH228953   4.816   0.363   4.290 -0.5057  0.2316  0.0871
 2513TIP3    H128954   4.841   0.337   4.202  0.0612 -1.5184  0.7234
 2513TIP3    H228955   4.784   0.283   4.331 -0.4370  0.9255  1.5709
 2514TIP3   OH228956   1.397   3.400   6.059 -0.2143  0.3901 -0.4265
 2514TIP3    H128957   1.360   3.312   6.069  1.7636 -0.5537 -0.9418
 2514TIP3    H228958   1.379   3.444   6.142  0.3729 -1.1563  0.5543
 2515TIP3   OH228959   6.411   2.802   3.558 -0.7576  0.1586  0.0698
 2515TIP3    H128960   6.362   2.786   3.477  0.4521  0.5565 -0.7600
 2515TIP3    H228961   6.450   2.717   3.579 -0.7346  0.1556  0.0139
 2516TIP3   OH228962   4.173   2.207  13.001 -0.4959  0.0948  0.0137
 2516TIP3    H128963   4.265   2.187  12.984 -0.2935  0.9432  0.0281
 2516TIP3    H228964   4.169   2.223  13.096 -0.6575  0.0648  0.0118
 2517TIP3   OH228965   3.301   2.071   1.380  0.1201  0.0840  0.4617
 2517TIP3    H128966   3.391   2.081   1.410 -0.3831  1.4767  1.6413
 2517TIP3    H228967   3.254   2.035   1.455 -0.2789 -0.8383 -0.2143
 2518TIP3   OH228968   6.272   5.356  15.740 -0.0453  0.3492 -0.0240
 2518TIP3    H128969   6.261   5.370  15.834  3.0126  0.4322  0.4440
 2518TIP3    H228970   6.291   5.262  15.732 -1.8076  0.0304 -0.7918
 2519TIP3   OH228971   2.914   0.394   1.324  0.4198 -0.0695 -0.2688
 2519TIP3    H128972   2.883   0.337   1.254 -1.0018  0.3105  0.0225
 2519TIP3    H228973   2.891   0.482   1.295 -1.6688 -0.0033  1.3293
 2520TIP3   OH228974   3.413   4.904   6.011 -0.1371  0.7264 -0.2355
 2520TIP3    H128975   3.378   4.852   5.939 -1.2276 -1.8027  1.9605
 2520TIP3    H228976   3.507   4.884   6.010 -0.3201 -0.1954 -0.2889
 2521TIP3   OH228977   1.711   2.689  12.341  0.9236  0.1996 -0.0179
 2521TIP3    H128978   1.652   2.723  12.274  1.1949  0.5688 -0.0744
 2521TIP3    H228979   1.670   2.608  12.370  0.8805 -0.0385 -0.7300
 2522TIP3   OH228980   1.435   4.162  14.701  0.1963  0.2772  0.0688
 2522TIP3    H128981   1.377   4.161  14.777 -1.0680 -0.5893 -0.8582
 2522TIP3    H228982   1.381   4.197  14.630  0.8252 -0.4340 -0.7878
 2523TIP3   OH228983   6.683   6.067  12.319  0.2739  0.2974  0.2518
 2523TIP3    H128984   6.752   6.020  12.366 -1.1396 -0.4424  1.6656
 2523TIP3    H228985   6.647   6.003  12.258  1.0398  0.7884 -0.7447
 2524TIP3   OH228986   2.141   1.083  13.144 -0.0471  0.5279 -0.1472
 2524TIP3    H128987   2.229   1.120  13.144 -0.8321  2.5702 -0.1150
 2524TIP3    H228988   2.135   1.031  13.223  0.9938  0.7332  0.0699
 2525TIP3   OH228989   5.293   0.306  14.911 -0.4119  0.2823 -0.4575
 2525TIP3    H128990   5.249   0.222  14.898  0.0520 -0.0838  0.2997
 2525TIP3    H228991   5.347   0.317  14.832 -0.1652 -0.3284 -0.3818
 2526TIP3   OH228992   0.362   4.891   6.647  0.3776  0.5395 -0.3057
 2526TIP3    H128993   0.393   4.887   6.557 -1.5017 -0.1515 -0.9835
 2526TIP3    H228994   0.433   4.854   6.700  0.4434 -1.6980 -1.8360
 2527TIP3   OH228995   2.108   2.313  12.109 -0.0380  0.1232 -0.4549
 2527TIP3    H128996   2.141   2.353  12.029  0.3321 -1.8694 -1.3683
 2527TIP3    H228997   2.170   2.340  12.177  0.5063  0.6295 -1.1381
 2528TIP3   OH228998   4.422   5.481   5.662 -0.6041  0.1329  0.6362
 2528TIP3    H128999   4.417   5.397   5.709 -0.5969  0.0487  0.4859
 2528TIP3    H229000   4.499   5.472   5.606  0.1370  0.7118  1.5335
 2529TIP3   OH229001   4.848   1.228  14.173 -0.0721  0.3859  0.0578
 2529TIP3    H129002   4.800   1.306  14.146 -2.5596 -1.3213 -0.7651
 2529TIP3    H229003   4.893   1.200  14.094 -0.7075 -0.0470 -0.1547
 2530TIP3   OH229004   1.602   0.305  13.881 -0.2616  0.3614  0.5346
 2530TIP3    H129005   1.685   0.299  13.833  0.0908 -0.8414  1.2296
 2530TIP3    H229006   1.581   0.398  13.881  0.6211  0.5899 -0.4280
 2531TIP3   OH229007   0.561   0.376   5.842 -0.1870 -0.5440  0.1011
 2531TIP3    H129008   0.534   0.451   5.790 -0.6349 -0.3110  0.6606
 2531TIP3    H229009   0.484   0.319   5.844 -0.4486 -0.1674  1.1885
 2532TIP3   OH229010   6.000   1.031   0.701 -0.4560  0.4887  0.6251
 2532TIP3    H129011   5.990   1.115   0.746 -0.2827  0.0790  1.4594
 2532TIP3    H229012   6.069   0.986   0.750 -2.0655 -1.0373  1.6358
 2533TIP3   OH229013   4.008   3.237   3.697 -0.4390  0.7841 -0.2922
 2533TIP3    H129014   3.960   3.187   3.763 -1.5622  0.8829 -0.9972
 2533TIP3    H229015   3.950   3.311   3.677  0.4774  1.4812 -0.4355
 2534TIP3   OH229016   3.386   5.469   3.374  0.4953 -0.0852 -0.6823
 2534TIP3    H129017   3.422   5.381   3.384  1.9973  0.5965  0.2766
 2534TIP3    H229018   3.451   5.515   3.320  0.9423  1.0730  0.7718
 2535TIP3   OH229019   5.072   0.085   4.363  0.2506 -0.2307  0.4916
 2535TIP3    H129020   5.139   0.053   4.302  2.1170  0.6621  1.9443
 2535TIP3    H229021   5.084   0.180   4.364 -0.9003 -0.0746  0.9536
 2536TIP3   OH229022   3.997   4.575   5.412 -0.2218  0.0442  0.3345
 2536TIP3    H129023   3.972   4.613   5.496  0.0585  0.2315  0.3351
 2536TIP3    H229024   4.037   4.647   5.364 -1.8777  0.3625 -0.6170
 2537TIP3   OH229025   2.410   3.793   2.187  0.6681 -0.3173 -0.1736
 2537TIP3    H129026   2.486   3.761   2.138 -0.2697  1.3350 -2.9213
 2537TIP3    H229027   2.335   3.746   2.149 -0.0284  0.5347  0.1026
 2538TIP3   OH229028   3.943   1.333   3.400 -0.0280  0.3157  0.1657
 2538TIP3    H129029   3.966   1.293   3.484  0.3464 -0.7224 -0.4104
 2538TIP3    H229030   4.015   1.394   3.382  0.9723 -0.9515 -0.3425
 2539TIP3   OH229031   3.494   6.761  15.335 -0.1981 -0.3968 -0.4469
 2539TIP3    H129032   3.411   6.764  15.287  0.0579 -2.0951 -1.0862
 2539TIP3    H229033   3.522   6.670  15.327  1.5763  0.0753  0.0233
 2540TIP3   OH229034   0.085   4.487  13.556 -0.0744  0.1793  0.2810
 2540TIP3    H129035   0.033   4.527  13.626  1.7432  1.0573  1.1931
 2540TIP3    H229036   0.047   4.521  13.475 -1.2452  0.3526  0.8863
 2541TIP3   OH229037   6.411   4.235   3.032 -0.2143  0.1077 -0.1386
 2541TIP3    H129038   6.340   4.199   3.085 -0.3308  3.4549  2.3113
 2541TIP3    H229039   6.383   4.222   2.941 -2.7356 -0.8988  0.7007
 2542TIP3   OH229040   6.131   4.732   1.919 -0.0363 -0.1258 -0.0561
 2542TIP3    H129041   6.102   4.788   1.991 -1.6181 -0.7024 -0.2082
 2542TIP3    H229042   6.086   4.648   1.934  0.6284 -0.6680 -1.0026
 2543TIP3   OH229043   0.180   0.958  12.373  0.0593 -0.4063 -0.5532
 2543TIP3    H129044   0.172   0.954  12.278  0.0075  0.2544 -0.5773
 2543TIP3    H229045   0.193   1.050  12.393 -1.6873 -0.2754  0.2094
 2544TIP3   OH229046   6.380   1.554  14.682  0.6332 -0.0808 -0.4591
 2544TIP3    H129047   6.357   1.469  14.646  0.7323  0.1767 -1.1537
 2544TIP3    H229048   6.422   1.535  14.766 -1.0419 -0.6177  0.2977
 2545TIP3   OH229049   3.725   0.679   2.500 -0.4383  0.0563 -0.1828
 2545TIP3    H129050   3.798   0.685   2.437 -0.2081  1.1819  0.1643
 2545TIP3    H229051   3.652   0.723   2.455 -0.7940 -0.6895 -0.3546
 2546TIP3   OH229052   6.087   3.835  12.335  0.2605 -0.2679 -0.5466
 2546TIP3    H129053   6.142   3.828  12.414 -0.2941  0.8064 -0.0423
 2546TIP3    H229054   6.028   3.908  12.354  0.8715  0.7656 -2.4287
 2547TIP3   OH229055   0.916   1.582  11.231 -0.3391 -0.1725  0.1407
 2547TIP3    H129056   0.928   1.651  11.296  0.0246  0.5192 -0.6469
 2547TIP3    H229057   0.998   1.582  11.181 -0.8994 -0.1804 -0.7999
 2548TIP3   OH229058   2.305   2.497   5.522  0.1463  0.1183 -0.1931
 2548TIP3    H129059   2.348   2.551   5.455 -0.2634  0.2336 -0.3659
 2548TIP3    H229060   2.282   2.559   5.592  2.1877 -0.2750  0.8917
 2549TIP3   OH229061   3.713   0.529  10.869 -0.3254  0.5142 -0.2024
 2549TIP3    H129062   3.644   0.462  10.872  0.0575  0.1431  0.5282
 2549TIP3    H229063   3.693   0.588  10.942 -0.3309  0.8669 -0.4871
 2550TIP3   OH229064   5.681   4.180   5.707  0.1697  0.3237  0.3704
 2550TIP3    H129065   5.725   4.128   5.774 -1.3857  1.0925  2.0630
 2550TIP3    H229066   5.602   4.130   5.685 -0.5820  1.2360  0.9355
 2551TIP3   OH229067   2.187   2.491   1.823 -0.3067 -0.2765 -0.2432
 2551TIP3    H129068   2.280   2.475   1.840 -0.0529  2.3467  1.4152
 2551TIP3    H229069   2.181   2.586   1.810 -2.6229 -0.5273 -1.4857
 2552TIP3   OH229070   6.640   4.976  12.082  0.2596 -0.2184  0.4731
 2552TIP3    H129071   6.602   4.926  12.154 -0.8192 -2.9373 -1.7995
 2552TIP3    H229072   6.705   4.917  12.044  0.2704  0.8440 -1.2437
 2553TIP3   OH229073   6.374   2.459  14.665 -0.0197  0.3788 -0.5535
 2553TIP3    H129074   6.439   2.391  14.684  0.5837  1.5178  1.8246
 2553TIP3    H229075   6.423   2.530  14.625 -0.0939  0.5737 -0.3046
 2554TIP3   OH229076   5.045   2.255  16.011 -0.1798 -0.4780 -0.1781
 2554TIP3    H129077   5.022   2.214  15.928 -0.2729 -1.0270  0.1085
 2554TIP3    H229078   5.009   2.195  16.078 -1.1172  0.5359  0.2566
 2555TIP3   OH229079   4.121   4.059   1.134 -0.0283  0.1592 -0.0946
 2555TIP3    H129080   4.175   3.986   1.103  0.7756  0.9212 -0.5537
 2555TIP3    H229081   4.159   4.136   1.092 -0.3036  0.9611  1.0643
 2556TIP3   OH229082   3.147   3.894   5.988  0.2542  0.0868  0.9200
 2556TIP3    H129083   3.055   3.869   5.981  0.8130 -1.8286 -0.6546
 2556TIP3    H229084   3.165   3.895   6.083 -1.4191  0.7536  1.2536
 2557TIP3   OH229085   4.075   4.203   5.851 -0.1890  0.8474  0.5001
 2557TIP3    H129086   4.049   4.249   5.771  1.6199 -0.6829 -1.0757
 2557TIP3    H229087   4.095   4.273   5.913 -3.8037  2.0780  0.4814
 2558TIP3   OH229088   3.061   4.970  12.224 -0.0033  0.2493 -0.1893
 2558TIP3    H129089   3.092   4.988  12.313 -0.9772  2.0741 -0.1672
 2558TIP3    H229090   3.087   5.048  12.174 -1.3732  0.2235 -0.9751
 2559TIP3   OH229091   5.117   4.851   2.472  0.1868 -0.6915  0.8435
 2559TIP3    H129092   5.040   4.842   2.416  0.6693 -0.4626  0.1227
 2559TIP3    H229093   5.082   4.863   2.560 -0.6263  0.1686  0.4200
 2560TIP3   OH229094   4.154   3.487   6.424 -0.1564 -0.5391  0.1359
 2560TIP3    H129095   4.069   3.516   6.389 -0.5828 -0.9363  0.8102
 2560TIP3    H229096   4.132   3.449   6.509  0.9686  1.2449  1.2874
 2561TIP3   OH229097   5.962   0.779   3.339 -0.0103  0.0888 -0.6544
 2561TIP3    H129098   5.977   0.715   3.409 -0.2110 -0.3798 -1.0305
 2561TIP3    H229099   5.868   0.798   3.344 -0.0072  0.1267 -0.7349
 2562TIP3   OH229100   1.871   1.115   5.204 -0.0009  0.2903  0.1503
 2562TIP3    H129101   1.867   1.076   5.117 -0.0847  1.5053 -0.4103
 2562TIP3    H229102   1.784   1.152   5.218  0.9814  3.2902 -0.8277
 2563TIP3   OH229103   6.368   2.602   6.187  0.3919  0.3735  0.7175
 2563TIP3    H129104   6.315   2.657   6.246 -0.3087 -1.4109  1.8147
 2563TIP3    H229105   6.425   2.552   6.245 -0.9961 -2.1468  0.0241
 2564TIP3   OH229106   6.316   2.713  13.436  0.1068  0.6201  0.0921
 2564TIP3    H129107   6.249   2.718  13.368  0.5757 -1.2197 -0.5478
 2564TIP3    H229108   6.266   2.707  13.518 -0.5028 -0.0385 -0.3193
 2565TIP3   OH229109   6.642   3.879  15.223  0.0232  0.1691  0.0509
 2565TIP3    H129110   6.590   3.799  15.228 -2.2653  1.5590 -0.1626
 2565TIP3    H229111   6.654   3.895  15.129  0.5204  0.0818  0.0931
 2566TIP3   OH229112   3.896   1.336  16.842 -0.1453 -0.3052 -0.2201
 2566TIP3    H129113   3.985   1.351  16.873 -1.1225  2.6149  1.4944
 2566TIP3    H229114   3.876   1.246  16.870  0.8348  0.4068  3.1619
 2567TIP3   OH229115   2.854   2.293   5.598 -0.2656 -0.3952  0.2983
 2567TIP3    H129116   2.834   2.372   5.548  0.6726 -0.4735 -0.2228
 2567TIP3    H229117   2.948   2.279   5.585  0.2447  0.1415  2.8980
 2568TIP3   OH229118   6.520   6.639   1.604 -0.2908 -0.7695  0.2932
 2568TIP3    H129119   6.545   6.591   1.525 -0.1892  0.1295 -0.2396
 2568TIP3    H229120   6.425   6.631   1.609 -0.1632 -2.1573  0.9748
 2569TIP3   OH229121   2.274   3.847  14.211 -0.6795 -0.4198  0.3050
 2569TIP3    H129122   2.245   3.876  14.125  2.0112  1.7512 -0.0200
 2569TIP3    H229123   2.300   3.927  14.256  3.8005 -1.8235  0.7524
 2570TIP3   OH229124   0.831   0.621   1.647  0.0688 -0.7481 -0.8470
 2570TIP3    H129125   0.844   0.542   1.700  1.0826 -0.5638 -0.8186
 2570TIP3    H229126   0.893   0.684   1.682  1.2683 -0.8431 -2.6887
 2571TIP3   OH229127   6.475   0.918   0.955 -0.4791 -0.6887  0.0729
 2571TIP3    H129128   6.456   0.982   1.024 -2.6883  0.4785 -1.5197
 2571TIP3    H229129   6.484   0.835   1.003 -2.0283  0.0500  1.7943
 2572TIP3   OH229130   0.585   0.068   3.349  0.3814  0.3698  0.5087
 2572TIP3    H129131   0.588  -0.019   3.390  0.6461  1.4082  2.8681
 2572TIP3    H229132   0.513   0.062   3.286  0.1453 -1.4385  0.8947
 2573TIP3   OH229133   6.364   2.526   2.802 -0.0550 -0.0380  0.2937
 2573TIP3    H129134   6.401   2.575   2.876  0.0747  1.0929 -0.4925
 2573TIP3    H229135   6.282   2.490   2.834 -1.6887  3.1893  0.0889
 2574TIP3   OH229136   0.869   2.788  11.595 -0.1003 -0.0410  0.1175
 2574TIP3    H129137   0.917   2.832  11.665 -0.5830 -0.7361  0.9093
 2574TIP3    H229138   0.785   2.834  11.590  0.1651  0.4022 -0.4436
 2575TIP3   OH229139   2.913   5.575  16.551 -0.0971 -0.1116 -0.2931
 2575TIP3    H129140   2.928   5.669  16.560 -2.0978  0.1801  0.6708
 2575TIP3    H229141   2.906   5.543  16.641  0.9177 -1.2812 -0.5981
 2576TIP3   OH229142   3.970   4.320  11.407 -0.6578 -0.0126  0.0706
 2576TIP3    H129143   3.921   4.373  11.469 -0.9824  0.9686 -0.9785
 2576TIP3    H229144   4.047   4.373  11.385 -0.0488 -0.7622  0.3539
 2577TIP3   OH229145   5.562   1.631   2.394 -0.6368 -0.2336  0.3048
 2577TIP3    H129146   5.518   1.674   2.467 -0.2521  0.7418 -0.0061
 2577TIP3    H229147   5.494   1.623   2.326 -0.0950  2.6842 -0.7643
 2578TIP3   OH229148   0.163   2.019  12.445  0.2265 -0.0708 -0.5257
 2578TIP3    H129149   0.182   2.097  12.393 -0.2349  0.4354  0.0340
 2578TIP3    H229150   0.084   2.043  12.494  0.1284 -0.8650 -0.2879
 2579TIP3   OH229151   5.630   6.553   5.553  0.7519 -0.0858  0.7051
 2579TIP3    H129152   5.661   6.515   5.471  0.1320  0.7534  0.0650
 2579TIP3    H229153   5.702   6.539   5.614  0.5627 -2.2874  0.5214
 2580TIP3   OH229154   2.023   1.483   4.249  0.0847  0.1360 -0.2465
 2580TIP3    H129155   2.007   1.577   4.241  0.1615  0.3414  1.5876
 2580TIP3    H229156   2.036   1.469   4.343  1.9119 -1.4270 -0.6807
 2581TIP3   OH229157   3.403   1.917   0.865 -0.0329 -0.5035  0.8071
 2581TIP3    H129158   3.349   1.850   0.823 -0.3930  0.0861  0.3144
 2581TIP3    H229159   3.367   1.926   0.953  0.9574 -2.0115  1.4123
 2582TIP3   OH229160   1.050   4.208   1.218  0.3427 -0.0557 -0.0613
 2582TIP3    H129161   1.116   4.256   1.167  1.1529 -0.4662  0.5762
 2582TIP3    H229162   0.972   4.264   1.216  0.2178 -0.2373 -2.0614
 2583TIP3   OH229163   2.572   5.884  13.594  0.2440 -0.2923 -0.0753
 2583TIP3    H129164   2.514   5.843  13.658  1.3821 -0.9112  0.5910
 2583TIP3    H229165   2.602   5.965  13.636  0.0279 -0.0793 -0.3295
 2584TIP3   OH229166   0.766   3.730  12.045 -0.2408 -0.3837  0.6484
 2584TIP3    H129167   0.703   3.734  12.116 -2.3432  0.3104 -1.1411
 2584TIP3    H229168   0.785   3.822  12.024  0.0164 -0.5665  0.0365
 2585TIP3   OH229169   4.158   2.431  15.858 -0.1048  0.3544 -0.2342
 2585TIP3    H129170   4.199   2.390  15.782 -0.7405  0.5099 -0.6717
 2585TIP3    H229171   4.172   2.369  15.929  0.7384  0.3322 -0.4061
 2586TIP3   OH229172   5.650   0.085  15.540  0.5711  0.2984 -0.2279
 2586TIP3    H129173   5.625   0.078  15.632  2.2350 -0.5508  0.2030
 2586TIP3    H229174   5.575   0.128  15.498 -0.6189 -0.1379  1.3348
 2587TIP3   OH229175   4.719   2.966  14.815  0.4159 -0.3501 -0.0166
 2587TIP3    H129176   4.695   2.880  14.850  0.3135 -0.2599  0.1371
 2587TIP3    H229177   4.645   3.023  14.838  0.2738 -0.3247 -0.5155
 2588TIP3   OH229178   1.586   2.704   5.362 -0.7743  0.3702 -0.1049
 2588TIP3    H129179   1.606   2.615   5.391 -1.7300  0.2923  0.3764
 2588TIP3    H229180   1.620   2.710   5.273 -0.9755 -0.5775 -0.2460
 2589TIP3   OH229181   4.485   1.151   4.132  0.0784 -0.0423  0.4041
 2589TIP3    H129182   4.480   1.136   4.038 -1.0779 -0.4551  0.5161
 2589TIP3    H229183   4.437   1.233   4.146  0.6654  0.2737  0.5776
 2590TIP3   OH229184   2.977   4.279  13.872  0.0434  1.1305  0.1412
 2590TIP3    H129185   2.882   4.279  13.864 -0.0459 -0.9652  0.6338
 2590TIP3    H229186   3.009   4.306  13.786 -0.9927  0.0745 -0.6046
 2591TIP3   OH229187   2.343   5.674   0.961 -0.0378 -0.0429 -0.9938
 2591TIP3    H129188   2.422   5.728   0.965  0.7174 -1.1800  0.7104
 2591TIP3    H229189   2.367   5.593   1.007 -1.6403 -1.1607 -2.0307
 2592TIP3   OH229190   3.204   0.877  15.296  0.3299  0.5770 -0.3589
 2592TIP3    H129191   3.245   0.964  15.302  1.7787 -0.1052  0.0685
 2592TIP3    H229192   3.273   0.820  15.262 -0.6799 -0.3630 -0.8789
 2593TIP3   OH229193   3.383   0.210  14.724  0.4114 -0.5819  0.4243
 2593TIP3    H129194   3.337   0.143  14.673  0.4204  0.2215 -0.6991
 2593TIP3    H229195   3.372   0.290  14.672  2.8000 -0.2981  0.2735
 2594TIP3   OH229196   1.049   6.194   0.339  0.4453 -0.1689  0.2245
 2594TIP3    H129197   1.039   6.099   0.345 -0.8541 -0.2485 -2.1264
 2594TIP3    H229198   1.143   6.209   0.342  0.7436 -1.6713 -0.6849
 2595TIP3   OH229199   4.789   1.423   4.451 -0.4505 -0.0778  0.4939
 2595TIP3    H129200   4.768   1.511   4.419 -1.1641 -0.1098  0.8509
 2595TIP3    H229201   4.805   1.434   4.544  1.6943  0.0225  0.1477
 2596TIP3   OH229202   5.893   6.742  10.465  0.1380 -0.4573  0.0013
 2596TIP3    H129203   5.828   6.800  10.425  0.1583 -1.3360 -1.3574
 2596TIP3    H229204   5.969   6.799  10.480 -0.8918  0.5852  1.6292
 2597TIP3   OH229205   4.727   3.024  13.939 -0.4614  0.1813 -0.5321
 2597TIP3    H129206   4.733   3.105  13.887  0.2491  1.3699  1.3001
 2597TIP3    H229207   4.816   3.009  13.970 -0.0259 -2.7408 -2.7646
 2598TIP3   OH229208   0.232   4.924   2.008 -0.2695  0.3158 -0.5211
 2598TIP3    H129209   0.192   4.955   1.927 -0.6622  1.9012  0.2387
 2598TIP3    H229210   0.235   5.001   2.064  1.0022 -0.4959  0.5862
 2599TIP3   OH229211   3.283   4.885   0.511  0.1244  0.2379 -0.6823
 2599TIP3    H129212   3.214   4.821   0.525  1.3990 -0.9375  0.6049
 2599TIP3    H229213   3.336   4.847   0.440  0.1739  0.5117 -0.7939
 2600TIP3   OH229214   1.284   4.169  17.122 -0.1034  0.4133 -0.4894
 2600TIP3    H129215   1.280   4.073  17.125 -0.2709  0.3396 -1.9732
 2600TIP3    H229216   1.374   4.190  17.146 -0.4086 -0.0176  1.1261
 2601TIP3   OH229217   6.639   6.557   5.422 -0.1179 -0.1222  0.1245
 2601TIP3    H129218   6.671   6.596   5.503 -0.4536 -1.4832  0.9322
 2601TIP3    H229219   6.716   6.555   5.365  0.2724  0.2654  0.6328
 2602TIP3   OH229220   2.871   0.723  16.479  0.3771 -0.1808 -0.4288
 2602TIP3    H129221   2.821   0.705  16.558  0.3874  0.1640 -0.3415
 2602TIP3    H229222   2.926   0.646  16.467  1.6626  0.4878  0.8800
 2603TIP3   OH229223   5.276   3.929   0.460  0.3872 -0.5308 -0.7634
 2603TIP3    H129224   5.311   3.982   0.388  0.7585 -0.5636 -0.6084
 2603TIP3    H229225   5.340   3.860   0.472  0.9140  0.1290  0.3692
 2604TIP3   OH229226   0.347   5.438   0.829  0.0995  1.3415  0.2700
 2604TIP3    H129227   0.261   5.477   0.817 -0.2608  0.2813 -0.7175
 2604TIP3    H229228   0.395   5.462   0.749  0.3935  1.0787  0.3660
 2605TIP3   OH229229   3.452   3.760  16.594  0.6257 -0.0057 -0.0043
 2605TIP3    H129230   3.480   3.755  16.686 -0.0951 -1.6549  0.1620
 2605TIP3    H229231   3.445   3.854  16.577 -1.7132  0.4248  2.4415
 2606TIP3   OH229232   0.992   2.936  11.403 -0.4358  0.1825 -0.6840
 2606TIP3    H129233   0.966   3.026  11.424  2.9483  1.1842 -0.1029
 2606TIP3    H229234   0.963   2.885  11.479 -0.5852  1.1818 -0.0372
 2607TIP3   OH229235   4.025   3.219  16.447  0.3744  0.0790 -0.1501
 2607TIP3    H129236   4.057   3.145  16.498  0.6951  1.4486  1.7116
 2607TIP3    H229237   3.942   3.243  16.489  0.2397  0.7346 -0.7697
 2608TIP3   OH229238   4.190   3.412   3.034  0.3570 -0.1087  0.3991
 2608TIP3    H129239   4.150   3.364   2.962  1.4183  0.5383 -0.6554
 2608TIP3    H229240   4.124   3.409   3.104 -0.3897 -1.3889 -0.3089
 2609TIP3   OH229241   5.973   4.782  11.577  0.2254 -0.4842  0.1773
 2609TIP3    H129242   6.037   4.824  11.633 -0.8278  2.3915 -0.6104
 2609TIP3    H229243   5.978   4.831  11.495 -2.3335 -0.7354 -0.1921
 2610TIP3   OH229244   1.220   4.753   3.663  0.2928  0.5285 -0.0987
 2610TIP3    H129245   1.260   4.728   3.579  1.7076  1.8902  0.1199
 2610TIP3    H229246   1.284   4.812   3.703 -1.6684  2.3361  0.5665
 2611TIP3   OH229247   1.436   5.769   0.512 -0.2618 -0.2018 -0.1748
 2611TIP3    H129248   1.498   5.775   0.439 -0.6712 -1.2198 -0.6164
 2611TIP3    H229249   1.360   5.725   0.475 -1.6583  1.8500  0.1048
 2612TIP3   OH229250   6.140   0.394   4.636 -0.2063  0.0332 -0.6129
 2612TIP3    H129251   6.115   0.320   4.581  0.2428  0.3645 -1.2768
 2612TIP3    H229252   6.231   0.411   4.614  0.5754 -0.9267  1.5079
 2613TIP3   OH229253   4.429   2.213  14.680  0.1042  0.2061 -0.2182
 2613TIP3    H129254   4.360   2.263  14.723  0.1878  0.9473 -0.9223
 2613TIP3    H229255   4.490   2.279  14.647  0.1952 -0.3447 -1.2007
 2614TIP3   OH229256   1.657   5.681   1.386  0.1529  0.2423 -0.0217
 2614TIP3    H129257   1.727   5.616   1.379 -1.6046 -1.7691  0.1194
 2614TIP3    H229258   1.627   5.675   1.477 -0.1236  1.1858 -0.0364
 2615TIP3   OH229259   4.074   1.167   5.510 -0.0535 -0.6188  0.2674
 2615TIP3    H129260   3.984   1.167   5.544 -0.2945 -0.7420 -0.3648
 2615TIP3    H229261   4.085   1.080   5.472  0.3304 -0.5958  0.3208
 2616TIP3   OH229262   4.452   1.639   0.395  0.3371 -0.1661 -0.4509
 2616TIP3    H129263   4.386   1.601   0.453  0.8007 -2.9071 -1.5558
 2616TIP3    H229264   4.420   1.619   0.307  0.1676  2.9818 -1.2135
 2617TIP3   OH229265   4.347   0.764   3.085 -0.2929  0.1073 -0.0428
 2617TIP3    H129266   4.265   0.762   3.036  0.0867 -0.6331 -0.6730
 2617TIP3    H229267   4.402   0.826   3.037  0.4735 -1.4448 -1.2395
 2618TIP3   OH229268   3.792   2.215   0.430  0.6030  0.4201  0.1279
 2618TIP3    H129269   3.798   2.255   0.517  0.7456  0.0551  0.2889
 2618TIP3    H229270   3.776   2.288   0.371 -2.6467  0.3852  0.7967
 2619TIP3   OH229271   5.755   4.983   0.123  0.1376  0.2386  0.1614
 2619TIP3    H129272   5.693   4.910   0.119 -0.6695  0.9825 -1.8835
 2619TIP3    H229273   5.838   4.946   0.092 -0.6770  0.5199 -2.5945
 2620TIP3   OH229274   6.172   3.682  12.880 -0.5202 -0.9911  0.2990
 2620TIP3    H129275   6.240   3.750  12.885  0.3681 -1.8072 -0.3580
 2620TIP3    H229276   6.122   3.704  12.801 -0.2390 -1.0892  0.0911
 2621TIP3   OH229277   0.117   2.336   5.401  0.0417 -0.4211  0.3215
 2621TIP3    H129278   0.109   2.249   5.363 -1.8563 -0.2074  0.1456
 2621TIP3    H229279   0.157   2.321   5.487 -3.1321 -1.9360  1.7093
 2622TIP3   OH229280   5.930   0.647  16.175  0.3235 -0.2517  0.8140
 2622TIP3    H129281   5.970   0.631  16.089  0.2042  0.1976  0.6728
 2622TIP3    H229282   6.003   0.641  16.236  0.5720  0.2852  0.5858
 2623TIP3   OH229283   1.241   5.499   4.382 -0.0129 -0.0261 -0.3790
 2623TIP3    H129284   1.188   5.441   4.437 -0.5104 -0.3342 -1.1642
 2623TIP3    H229285   1.247   5.580   4.433  0.4129 -0.6382  0.5813
 2624TIP3   OH229286   3.588   3.150  13.107 -0.2854 -0.0761 -1.0375
 2624TIP3    H129287   3.494   3.141  13.090 -0.4772 -1.1836  0.4488
 2624TIP3    H229288   3.629   3.129  13.023 -1.3340 -0.3946 -1.4963
 2625TIP3   OH229289   3.793   1.100  16.931  0.8630  0.1143 -0.2136
 2625TIP3    H129290   3.825   1.076  17.018  1.2254 -1.0939 -0.6650
 2625TIP3    H229291   3.775   1.016  16.888 -2.3980  0.6676 -0.1896
 2626TIP3   OH229292   4.149   0.234   2.134 -0.1672 -0.4906 -0.3232
 2626TIP3    H129293   4.144   0.320   2.176 -2.6175 -0.8079  0.1837
 2626TIP3    H229294   4.087   0.239   2.062  0.2106 -1.6124 -0.7523
 2627TIP3   OH229295   1.670   0.308   2.912 -0.3331  0.2956 -0.5596
 2627TIP3    H129296   1.614   0.370   2.865  0.4677  0.3212 -1.5257
 2627TIP3    H229297   1.709   0.254   2.843  1.4911  0.8370 -0.0254
 2628TIP3   OH229298   1.613   4.749   2.649 -0.5773 -0.3621 -0.0260
 2628TIP3    H129299   1.543   4.813   2.661 -0.8236 -0.7570  0.7430
 2628TIP3    H229300   1.608   4.724   2.557 -0.6087  0.5670 -0.2824
 2629TIP3   OH229301   0.929   4.681  11.345  0.0453 -0.1220 -0.2236
 2629TIP3    H129302   1.010   4.697  11.393  0.6617  1.9287 -1.7900
 2629TIP3    H229303   0.958   4.642  11.262 -0.3199  2.1735 -1.5111
 2630TIP3   OH229304   1.060   4.774  12.894 -0.1452  0.5540  0.0091
 2630TIP3    H129305   1.078   4.841  12.960  1.1635  0.9659 -0.7167
 2630TIP3    H229306   1.001   4.817  12.832  1.0210  1.2124 -0.6771
 2631TIP3   OH229307   6.684   4.284  16.522 -0.6321  0.1895 -0.0040
 2631TIP3    H129308   6.752   4.217  16.518 -0.7719 -0.3565  3.4830
 2631TIP3    H229309   6.602   4.236  16.522 -0.8371  0.5370 -0.1706
 2632TIP3   OH229310   5.189   4.109  15.165  0.3509 -0.4932  0.5036
 2632TIP3    H129311   5.240   4.133  15.088  0.3376  0.6407  0.8350
 2632TIP3    H229312   5.171   4.192  15.209  0.0346 -1.0854  1.5280
 2633TIP3   OH229313   1.645   0.505  10.906  0.0464 -0.0744 -0.3773
 2633TIP3    H129314   1.632   0.595  10.935 -0.1602 -0.1178 -0.3311
 2633TIP3    H229315   1.690   0.514  10.822  0.4508  0.0557 -0.1519
 2634TIP3   OH229316   1.038   2.948  13.250  0.4010 -0.4288 -0.2117
 2634TIP3    H129317   1.105   2.938  13.183  0.1962 -0.3584 -0.4290
 2634TIP3    H229318   0.955   2.941  13.203  0.2509 -0.7341  0.0859
 2635TIP3   OH229319   4.385   3.261  12.936 -0.1194  0.2603  0.1102
 2635TIP3    H129320   4.475   3.254  12.905 -0.5840  0.0911 -1.2701
 2635TIP3    H229321   4.363   3.172  12.965  0.3450  0.4366  1.0390
 2636TIP3   OH229322   2.089   1.242   2.317  0.0923  0.3766  0.0474
 2636TIP3    H129323   2.083   1.336   2.335 -0.2089  0.1739  1.0644
 2636TIP3    H229324   2.050   1.231   2.230 -0.1713  1.1456  0.0656
 2637TIP3   OH229325   4.708   2.897  14.371  0.2546  0.1593 -0.4837
 2637TIP3    H129326   4.663   2.864  14.293  0.9238  0.0106 -0.8145
 2637TIP3    H229327   4.672   2.984  14.385 -2.9431 -1.3171  1.5143
 2638TIP3   OH229328   6.304   0.712  16.657 -0.0408 -0.4799  0.1380
 2638TIP3    H129329   6.274   0.754  16.576 -0.2731  0.5554  0.7499
 2638TIP3    H229330   6.375   0.768  16.689 -0.6548 -0.2730  1.1998
 2639TIP3   OH229331   3.298   4.487   5.030  0.3558  0.3860 -0.3790
 2639TIP3    H129332   3.256   4.413   4.987  1.0406  0.6529 -1.5439
 2639TIP3    H229333   3.254   4.564   4.997 -0.9533  0.5129  1.5009
 2640TIP3   OH229334   1.442   5.564  16.855  0.4744  0.0884 -0.2402
 2640TIP3    H129335   1.412   5.526  16.937 -0.1155  1.9970  0.4792
 2640TIP3    H229336   1.398   5.513  16.787 -0.1269 -0.6208  0.6640
 2641TIP3   OH229337   3.044   0.083  14.908  0.0095 -0.4221  0.1866
 2641TIP3    H129338   3.121   0.028  14.889 -0.5197 -0.6263 -1.6025
 2641TIP3    H229339   3.036   0.139  14.830  0.0307  1.6432  1.5879
 2642TIP3   OH229340   1.458   3.451  10.951  0.2602  0.6816 -0.4084
 2642TIP3    H129341   1.548   3.449  10.984  1.1680  0.6054 -2.7224
 2642TIP3    H229342   1.467   3.472  10.858 -1.8932 -2.3495 -1.4535
 2643TIP3   OH229343   5.805   3.573   0.021 -0.2422  0.3590 -0.5655
 2643TIP3    H129344   5.731   3.597  -0.035  0.0873 -1.1528 -1.7080
 2643TIP3    H229345   5.879   3.624  -0.012 -0.2671  0.1781 -0.8997
 2644TIP3   OH229346   3.667   3.890   1.457 -0.0346  0.6973 -0.2091
 2644TIP3    H129347   3.739   3.828   1.467 -0.2979  0.1586 -1.5096
 2644TIP3    H229348   3.588   3.837   1.467 -0.2660  0.7324 -1.6089
 2645TIP3   OH229349   5.563   1.951  12.310 -0.2992 -0.2047  0.1021
 2645TIP3    H129350   5.526   1.970  12.224 -1.3622 -0.6495  0.4451
 2645TIP3    H229351   5.574   1.856  12.310  2.7906  0.0494 -0.7387
 2646TIP3   OH229352   2.895   1.141  14.806  0.1196  0.0856 -0.1424
 2646TIP3    H129353   2.807   1.110  14.785  0.6024 -2.6097  1.4154
 2646TIP3    H229354   2.953   1.078  14.765  1.3751  1.7149 -0.9736
 2647TIP3   OH229355   2.980   1.959  12.645  0.0706 -0.0651 -0.0972
 2647TIP3    H129356   3.064   1.923  12.674 -1.0325 -2.0338  0.8191
 2647TIP3    H229357   2.968   1.924  12.556  0.4012  0.5968 -0.4131
 2648TIP3   OH229358   0.202   2.663   5.446 -0.1296  0.0818 -0.3538
 2648TIP3    H129359   0.140   2.662   5.373  0.0097 -0.8558 -0.4731
 2648TIP3    H229360   0.253   2.583   5.435  0.9477  0.7230 -0.1151
 2649TIP3   OH229361   3.427   0.193  16.291 -0.4266  0.0181 -0.1009
 2649TIP3    H129362   3.469   0.119  16.334 -0.5644 -0.6376 -1.0546
 2649TIP3    H229363   3.365   0.226  16.355  0.3190 -0.0862  0.6846
 2650TIP3   OH229364   1.302   1.771   1.446  0.4390  0.1060  0.1948
 2650TIP3    H129365   1.267   1.780   1.357  1.7186  1.4210 -0.2043
 2650TIP3    H229366   1.251   1.699   1.484 -0.3449 -0.2841 -1.4895
 2651TIP3   OH229367   3.436   3.462   2.995 -0.0079 -0.1295  0.2364
 2651TIP3    H129368   3.428   3.477   2.900 -0.8871 -0.1553  0.2926
 2651TIP3    H229369   3.530   3.465   3.012  0.1168  0.6626 -0.5099
 2652TIP3   OH229370   5.449   0.050   1.992 -0.5638 -0.5906 -0.8352
 2652TIP3    H129371   5.396  -0.027   2.010 -2.2783  0.7207  0.1154
 2652TIP3    H229372   5.529   0.037   2.043 -1.1395 -1.4273 -0.1302
 2653TIP3   OH229373   4.094   5.185  11.521 -0.3811 -0.2266  0.0434
 2653TIP3    H129374   4.068   5.208  11.431  1.4283  2.9058  0.1606
 2653TIP3    H229375   4.173   5.133  11.510 -0.4816 -0.3340 -0.1868
 2654TIP3   OH229376   2.612   2.813  11.899  0.1270 -0.1549 -0.8445
 2654TIP3    H129377   2.600   2.721  11.924 -0.4857 -0.3966 -1.9680
 2654TIP3    H229378   2.706   2.822  11.887  0.2769 -0.4216  0.0133
 2655TIP3   OH229379   3.469   0.471  14.693  0.6094 -0.5230  0.3699
 2655TIP3    H129380   3.459   0.517  14.610  0.1264  1.9246  1.6625
 2655TIP3    H229381   3.553   0.426  14.687  0.4484 -0.6310 -1.5065
 2656TIP3   OH229382   3.506   6.414  14.967 -0.1803  0.1792 -0.9812
 2656TIP3    H129383   3.463   6.361  15.033  2.0162 -0.4299  0.0272
 2656TIP3    H229384   3.564   6.354  14.921  2.1187  1.5280 -0.0293
 2657TIP3   OH229385   5.057   5.390   4.924 -0.1193  0.2349  0.0397
 2657TIP3    H129386   5.119   5.360   4.990  0.6808  2.1170  0.2091
 2657TIP3    H229387   5.001   5.315   4.908  0.7432 -0.7987  1.6015
 2658TIP3   OH229388   2.157   3.574   0.765  0.7239 -0.3558  0.5429
 2658TIP3    H129389   2.106   3.556   0.686  0.9730 -2.0409  0.7126
 2658TIP3    H229390   2.237   3.615   0.733  0.2739  0.1484  0.0485
 2659TIP3   OH229391   5.494   3.775  16.312 -0.0221  0.0968 -0.5545
 2659TIP3    H129392   5.530   3.857  16.278  1.7067  0.7531  2.4850
 2659TIP3    H229393   5.557   3.709  16.284 -0.1490  0.1602 -1.0033
 2660TIP3   OH229394   5.030   2.777   2.674 -0.0221  0.3382 -0.0894
 2660TIP3    H129395   5.039   2.854   2.618 -1.0408  1.3654  1.0988
 2660TIP3    H229396   4.962   2.801   2.737  0.8433 -0.9056  1.3785
 2661TIP3   OH229397   4.323   2.587   2.574  0.3871  0.2359  0.4642
 2661TIP3    H129398   4.408   2.583   2.532  0.1611  0.7874 -0.0582
 2661TIP3    H229399   4.260   2.581   2.501 -0.1203 -3.2773  0.9941
 2662TIP3   OH229400   2.782   2.131   1.089  0.3868  0.1962  0.9921
 2662TIP3    H129401   2.858   2.120   1.146  0.1677 -1.6902  0.9651
 2662TIP3    H229402   2.716   2.073   1.126 -0.8948  1.4466  0.7234
 2663TIP3   OH229403   2.779   4.429   0.620  0.7260 -0.1558 -0.7034
 2663TIP3    H129404   2.854   4.391   0.574  2.0120  3.0823 -1.6284
 2663TIP3    H229405   2.818   4.480   0.691 -0.8765 -0.8951  0.7606
 2664TIP3   OH229406   5.169   3.431   5.276 -0.5233 -0.1691  0.5621
 2664TIP3    H129407   5.189   3.493   5.346 -1.1910 -0.2298  0.8145
 2664TIP3    H229408   5.254   3.402   5.244 -0.1964  0.9035  0.4116
 2665TIP3   OH229409   3.038   2.397  12.863  0.7441 -0.1122  0.4704
 2665TIP3    H129410   3.091   2.446  12.926  0.7945  0.4596 -0.0063
 2665TIP3    H229411   2.967   2.457  12.841  0.4219 -0.5207  0.4013
 2666TIP3   OH229412   6.626   6.580  14.435  0.3532 -0.1415  0.5262
 2666TIP3    H129413   6.624   6.649  14.502  0.3753  0.7859 -0.3934
 2666TIP3    H229414   6.649   6.626  14.354  0.2772 -1.2251 -0.1333
 2667TIP3   OH229415   0.460   0.863  11.569  0.0519 -0.0317  0.0764
 2667TIP3    H129416   0.508   0.928  11.520  0.1600 -0.3800 -0.2854
 2667TIP3    H229417   0.370   0.870  11.537  0.3817 -1.2192 -1.2301
 2668TIP3   OH229418   2.320   4.777   2.934  0.1066 -0.0495 -0.4054
 2668TIP3    H129419   2.225   4.781   2.948  0.0458  0.8868 -0.9582
 2668TIP3    H229420   2.354   4.849   2.988  0.9438 -2.5915  2.7800
 2669TIP3   OH229421   4.698   2.511  13.528  0.2133 -0.2347  0.0958
 2669TIP3    H129422   4.702   2.567  13.451 -0.9612  1.2920  1.0754
 2669TIP3    H229423   4.779   2.530  13.576 -0.3149  0.9305  0.5765
 2670TIP3   OH229424   3.950   5.517  10.917  0.4627  0.4848 -0.8119
 2670TIP3    H129425   4.045   5.526  10.921  0.4715  0.5790 -1.2523
 2670TIP3    H229426   3.918   5.607  10.906  0.2832  0.5360  0.0380
 2671TIP3   OH229427   0.662   3.613  16.097  0.5201  0.1666  0.0710
 2671TIP3    H129428   0.646   3.602  16.004 -0.5775  0.1756  0.2527
 2671TIP3    H229429   0.669   3.523  16.131  2.4041  0.1464 -0.2351
 2672TIP3   OH229430   1.121   1.372   2.166  0.0148  0.1677  0.1359
 2672TIP3    H129431   1.134   1.441   2.101  1.0669 -0.3856 -0.2646
 2672TIP3    H229432   1.192   1.309   2.149 -1.9156 -1.9163 -0.6613
 2673TIP3   OH229433   0.469   1.718   3.569  0.2041  0.9032  0.8350
 2673TIP3    H129434   0.543   1.775   3.550 -0.7423  1.5418 -1.2307
 2673TIP3    H229435   0.393   1.766   3.538 -0.6976 -1.1819 -0.3870
 2674TIP3   OH229436   1.452   3.983  12.957 -0.4280  0.0509  0.2614
 2674TIP3    H129437   1.394   3.915  12.990  0.0431 -0.1965  0.5889
 2674TIP3    H229438   1.512   3.938  12.899  0.9019 -0.1241  1.6945
 2675TIP3   OH229439   3.064   2.199   1.275 -0.6784 -0.2284 -0.1715
 2675TIP3    H129440   3.006   2.130   1.308 -0.5701 -0.4108 -0.3548
 2675TIP3    H229441   3.144   2.190   1.328 -1.3954  1.0845  1.2227
 2676TIP3   OH229442   0.254   5.648   1.287 -0.0713  0.0171 -0.4959
 2676TIP3    H129443   0.291   5.634   1.200  0.2095  0.2669 -0.4179
 2676TIP3    H229444   0.325   5.627   1.348  0.2026  1.2337 -0.3630
 2677TIP3   OH229445   3.790   5.706  16.585  0.3741  1.0670  0.3279
 2677TIP3    H129446   3.876   5.725  16.548 -0.4663 -0.0923 -2.5368
 2677TIP3    H229447   3.732   5.772  16.545 -0.3990  0.4896  0.4609
 2678TIP3   OH229448   6.644   5.085   5.037  0.2709 -0.7981 -0.1004
 2678TIP3    H129449   6.575   5.054   4.978  1.4990 -0.6702 -1.6915
 2678TIP3    H229450   6.615   5.058   5.124 -1.7174 -0.8317 -0.7188
 2679TIP3   OH229451   2.041   1.512   2.140  0.7871  0.3266  0.0246
 2679TIP3    H129452   2.119   1.459   2.122  0.1093 -0.8086  0.3538
 2679TIP3    H229453   1.978   1.486   2.073 -0.9250 -2.2114  2.4306
 2680TIP3   OH229454   5.429   4.017  11.735 -0.7741 -0.3822  0.8059
 2680TIP3    H129455   5.375   4.071  11.794 -1.0160  1.3869 -0.9318
 2680TIP3    H229456   5.448   4.075  11.661 -1.5599 -2.8918 -1.4884
 2681TIP3   OH229457   1.029   0.267   6.178  0.4644 -0.3292  0.1049
 2681TIP3    H129458   1.031   0.189   6.122 -0.1639 -1.0362  1.0348
 2681TIP3    H229459   0.956   0.252   6.237  1.5521  0.0497  1.5930
 2682TIP3   OH229460   1.621   2.059   2.875 -0.1044 -0.2961 -0.0585
 2682TIP3    H129461   1.542   2.004   2.882  0.6212 -1.3851 -0.0629
 2682TIP3    H229462   1.602   2.135   2.929 -0.8368 -0.9484  0.6394
 2683TIP3   OH229463   3.520   1.472   5.283 -0.5784  0.8083 -0.2233
 2683TIP3    H129464   3.547   1.494   5.372 -1.7774 -0.9492  0.6333
 2683TIP3    H229465   3.584   1.407   5.254 -1.4894 -0.3708  0.2959
 2684TIP3   OH229466   3.791   5.414   4.694  0.4967  0.0439  0.0362
 2684TIP3    H129467   3.747   5.349   4.748  0.5382 -0.5027 -0.5718
 2684TIP3    H229468   3.857   5.453   4.751 -0.1548  0.2279  0.6829
 2685TIP3   OH229469   3.537   0.998   0.176 -0.1079  0.2503  0.2805
 2685TIP3    H129470   3.525   1.048   0.096  0.8946  1.9107  1.1244
 2685TIP3    H229471   3.457   1.013   0.226 -0.2615  0.1183  0.0791
 2686TIP3   OH229472   5.008   4.195   0.485  0.6189  0.0264 -0.1930
 2686TIP3    H129473   4.916   4.183   0.462  0.5851  0.1303 -0.1169
 2686TIP3    H229474   5.057   4.167   0.408  0.6255 -2.4790  0.6499
 2687TIP3   OH229475   4.766   3.930   0.944 -0.3237  0.7876  0.4406
 2687TIP3    H129476   4.818   3.959   1.018 -0.7631  0.9584  0.6879
 2687TIP3    H229477   4.829   3.895   0.882  0.1737  1.8457  0.3307
 2688TIP3   OH229478   0.342   5.857  16.819 -0.1462  0.2561 -0.2928
 2688TIP3    H129479   0.256   5.819  16.838 -0.1226  1.2792  2.1330
 2688TIP3    H229480   0.361   5.912  16.894  3.2488 -0.9385 -0.1187
 2689TIP3   OH229481   6.202   3.701   2.939 -0.1514 -0.2445  0.4495
 2689TIP3    H129482   6.114   3.704   2.901  0.2692  0.3297 -0.5180
 2689TIP3    H229483   6.189   3.665   3.027 -1.3550 -0.1034  0.3464
 2690TIP3   OH229484   1.016   2.923  15.288  0.5159 -0.1140  0.4156
 2690TIP3    H129485   0.999   2.839  15.331 -3.0459 -0.0793 -0.5671
 2690TIP3    H229486   1.023   2.902  15.195  3.5699  0.3297  0.4588
 2691TIP3   OH229487   3.185   0.953   3.142 -0.1449  0.1301  0.1117
 2691TIP3    H129488   3.217   1.043   3.130  0.2275 -0.1225 -0.9330
 2691TIP3    H229489   3.091   0.963   3.156 -0.0388  0.7089  0.4810
 2692TIP3   OH229490   2.895   5.069  14.816 -0.1387 -0.1524 -0.5115
 2692TIP3    H129491   2.933   5.058  14.903 -0.4108 -0.2405 -0.4037
 2692TIP3    H229492   2.811   5.023  14.820 -0.6339  0.7421 -0.5036
 2693TIP3   OH229493   1.139   1.387  13.940  0.0502  0.4157 -0.1728
 2693TIP3    H129494   1.198   1.342  14.000 -0.2242  2.6931  1.9749
 2693TIP3    H229495   1.167   1.359  13.853  1.4425 -1.8748  0.9376
 2694TIP3   OH229496   6.557   5.301  15.845  0.2599  0.0732 -0.2220
 2694TIP3    H129497   6.527   5.263  15.762  0.9050  0.3465 -0.5850
 2694TIP3    H229498   6.629   5.244  15.872  0.3599  0.2663 -0.0840
 2695TIP3   OH229499   4.239   3.821   5.783  0.1400 -0.1677 -0.4568
 2695TIP3    H129500   4.217   3.830   5.690 -0.4031  0.3732 -0.2855
 2695TIP3    H229501   4.185   3.749   5.813  0.4704 -0.4795 -0.6059
 2696TIP3   OH229502   1.256   0.746   3.551 -0.2884  0.3216 -0.2439
 2696TIP3    H129503   1.263   0.827   3.501 -0.1087  0.9762  0.8072
 2696TIP3    H229504   1.284   0.770   3.640  0.1987 -0.9936 -0.0170
 2697TIP3   OH229505   1.913   3.340   1.789 -0.1674 -0.1995  0.2359
 2697TIP3    H129506   1.972   3.385   1.728 -0.5239 -0.8507 -0.6056
 2697TIP3    H229507   1.853   3.292   1.733 -0.8054 -0.4380  1.1054
 2698TIP3   OH229508   0.028   4.076  15.019 -0.3297 -0.1125 -0.1819
 2698TIP3    H129509  -0.018   4.152  15.055 -0.7655  0.5587 -2.0657
 2698TIP3    H229510  -0.041   4.023  14.979  0.1728 -0.6919 -0.2971
 2699TIP3   OH229511   4.761   2.722   6.197 -0.1223 -0.3716 -0.7018
 2699TIP3    H129512   4.759   2.815   6.221 -0.7438 -0.0900 -1.7846
 2699TIP3    H229513   4.670   2.701   6.177 -0.0961 -1.4077  0.1796
 2700TIP3   OH229514   6.713   4.240   4.491 -0.2670  0.3714 -0.0217
 2700TIP3    H129515   6.802   4.224   4.523  0.3780 -1.8857 -2.5587
 2700TIP3    H229516   6.678   4.152   4.474 -2.7837  1.2325  0.3003
 2701TIP3   OH229517   1.604   6.679   0.386  0.3316 -0.4560  0.7596
 2701TIP3    H129518   1.556   6.749   0.342 -0.0496 -1.5518 -0.6307
 2701TIP3    H229519   1.680   6.723   0.425 -0.1639  0.7980  0.3698
 2702TIP3   OH229520   6.327   6.012   6.390 -0.4302  0.9080  0.2309
 2702TIP3    H129521   6.313   5.928   6.346 -2.4036  1.4119 -0.1950
 2702TIP3    H229522   6.287   6.001   6.476  0.5491  0.9850  0.7123
 2703TIP3   OH229523   5.238   5.755  16.577 -0.1887  1.0099  0.0830
 2703TIP3    H129524   5.270   5.670  16.548 -0.8240  1.1302 -1.0374
 2703TIP3    H229525   5.215   5.742  16.669  2.0494  0.6555  0.6551
 2704TIP3   OH229526   5.773   2.787   3.242 -0.6255 -0.0650 -0.2538
 2704TIP3    H129527   5.831   2.715   3.265 -1.3139 -0.1139  1.4819
 2704TIP3    H229528   5.686   2.747   3.239 -1.3882  1.0520  3.2020
 2705TIP3   OH229529   6.040   4.053   5.107  0.5578 -0.6800  0.4487
 2705TIP3    H129530   6.083   4.024   5.188  1.8738  1.9158  0.7780
 2705TIP3    H229531   5.946   4.048   5.128  0.8651 -0.2086  2.1073
 2706TIP3   OH229532   3.112   5.394  13.856  0.5082 -0.2032  0.2539
 2706TIP3    H129533   3.084   5.471  13.806  0.3204  1.5573  2.9238
 2706TIP3    H229534   3.076   5.320  13.807 -2.8298  1.5855 -0.2800
 2707TIP3   OH229535   3.978   3.757   6.522  0.5006 -0.0181  0.1102
 2707TIP3    H129536   3.971   3.753   6.618  0.7867 -0.4996  0.1142
 2707TIP3    H229537   3.934   3.677   6.492  0.8506 -0.1242 -0.1301
 2708TIP3   OH229538   0.555   1.405  15.518 -0.0687  0.0160 -0.1941
 2708TIP3    H129539   0.649   1.395  15.506  0.5390  2.5702  1.6087
 2708TIP3    H229540   0.540   1.381  15.610 -0.8473  1.3411  0.0516
 2709TIP3   OH229541   1.416   6.370   5.013  0.5721  0.0496 -0.2366
 2709TIP3    H129542   1.393   6.283   5.045  0.3075  0.2102  0.0072
 2709TIP3    H229543   1.421   6.424   5.091  0.0671  0.4097 -0.4514
 2710TIP3   OH229544   1.439   1.995   0.806  0.4559  0.2384  0.0921
 2710TIP3    H129545   1.408   1.956   0.725 -0.4665 -0.6822  0.8671
 2710TIP3    H229546   1.410   2.086   0.802 -0.8841 -0.1755  0.0367
 2711TIP3   OH229547   2.194   2.308  17.254  0.0187 -0.5060  0.4721
 2711TIP3    H129548   2.183   2.398  17.222 -1.6550 -0.6392  0.5766
 2711TIP3    H229549   2.261   2.271  17.198  1.9889  1.2950  1.5005
 2712TIP3   OH229550   2.613   1.888   0.841 -0.2977  0.1940  0.0996
 2712TIP3    H129551   2.584   1.978   0.854 -1.1952 -0.2445  1.2874
 2712TIP3    H229552   2.538   1.845   0.801 -0.4245 -0.3806  0.9419
 2713TIP3   OH229553   3.903   1.467  12.575  0.1145  0.0693  0.3242
 2713TIP3    H129554   3.930   1.429  12.491  1.7178 -3.0499  2.0929
 2713TIP3    H229555   3.953   1.549  12.581  0.3567  0.0943 -1.5030
 2714TIP3   OH229556   2.020   2.940   2.740  0.2021  0.2183  0.0344
 2714TIP3    H129557   1.970   2.868   2.778 -2.9768  2.7457  1.0160
 2714TIP3    H229558   2.097   2.948   2.797  0.2025 -1.7704  0.3920
 2715TIP3   OH229559   6.197   5.793  16.763  0.0350  0.1960  0.1778
 2715TIP3    H129560   6.245   5.870  16.793  0.2419 -0.3636  1.3616
 2715TIP3    H229561   6.150   5.762  16.841 -1.3501  0.0629 -0.6815
 2716TIP3   OH229562   3.198   1.280  14.773  0.2067  0.0697  0.4658
 2716TIP3    H129563   3.192   1.318  14.686  1.8741  0.1669  0.3542
 2716TIP3    H229564   3.163   1.191  14.764 -0.3227  0.3357 -0.1155
 2717TIP3   OH229565   6.564   6.259   5.417  0.2852  0.4085 -0.8991
 2717TIP3    H129566   6.499   6.238   5.350 -0.6558 -0.0857  0.1374
 2717TIP3    H229567   6.564   6.355   5.421 -1.2289  0.4024 -0.1279
 2718TIP3   OH229568   5.741   1.352   4.540  0.3868  0.1519 -0.1949
 2718TIP3    H129569   5.670   1.363   4.477  1.2196  1.0825 -0.9990
 2718TIP3    H229570   5.725   1.419   4.606 -0.4467 -0.7781  0.5816
 2719TIP3   OH229571   1.847   1.345   4.735  0.1869  0.3027 -0.3043
 2719TIP3    H129572   1.873   1.286   4.665  1.7635  0.5820 -0.0003
 2719TIP3    H229573   1.809   1.421   4.690  0.4339  0.1283 -0.8093
 2720TIP3   OH229574   2.938   5.596  14.483 -0.6155  0.7439  0.1022
 2720TIP3    H129575   2.947   5.624  14.392 -1.9988 -0.2529 -0.3750
 2720TIP3    H229576   2.850   5.559  14.488 -0.1395 -0.2784  1.5504
 2721TIP3   OH229577   6.207   5.616  15.914 -0.0829  0.5787  0.1436
 2721TIP3    H129578   6.285   5.590  15.963 -0.7524 -1.2345  0.3085
 2721TIP3    H229579   6.164   5.534  15.891 -3.2255  1.4946  2.1386
 2722TIP3   OH229580   6.080   1.887   1.651 -0.2445 -0.1147  0.0453
 2722TIP3    H129581   6.175   1.895   1.640 -0.2090  2.1432  1.4141
 2722TIP3    H229582   6.066   1.794   1.668  2.1064 -0.1583  2.5336
 2723TIP3   OH229583   5.487   3.053   1.665 -0.8335 -0.3247 -0.3761
 2723TIP3    H129584   5.482   3.131   1.609  0.7891 -0.1445 -0.3239
 2723TIP3    H229585   5.404   3.008   1.650 -3.0058  2.6514  1.5035
 2724TIP3   OH229586   1.787   2.469  17.056  0.0539 -0.0039  0.3577
 2724TIP3    H129587   1.765   2.512  17.139 -0.8470 -1.0962  0.7149
 2724TIP3    H229588   1.704   2.459  17.011  0.3296 -0.7469 -0.0089
 2725TIP3   OH229589   2.646   2.575  13.184 -0.4617 -0.6489  0.7879
 2725TIP3    H129590   2.660   2.497  13.131  0.4859 -1.0451  1.5799
 2725TIP3    H229591   2.552   2.575  13.203 -0.9974 -0.0043 -1.5743
 2726TIP3   OH229592   3.939   2.500   3.596 -0.3908 -0.5714  0.4402
 2726TIP3    H129593   4.015   2.476   3.649 -2.0799 -1.1156  2.7822
 2726TIP3    H229594   3.919   2.590   3.622  0.7540  0.4549 -1.9109
 2727TIP3   OH229595   3.891   1.803  15.990 -0.3527 -0.1105  0.7651
 2727TIP3    H129596   3.874   1.721  15.943 -1.7668  0.7237 -0.2529
 2727TIP3    H229597   3.854   1.789  16.077  0.4520 -0.9341  1.0008
 2728TIP3   OH229598   2.826   0.521  12.169 -0.2236 -0.0805 -0.0961
 2728TIP3    H129599   2.807   0.437  12.128  0.1363  0.7486 -2.0875
 2728TIP3    H229600   2.791   0.514  12.257 -0.3537 -2.2457 -0.2775
 2729TIP3   OH229601   0.916   1.892   1.851 -0.3304 -0.3027  0.1240
 2729TIP3    H129602   0.850   1.877   1.918 -0.5181  1.4852  0.3726
 2729TIP3    H229603   0.866   1.898   1.769 -0.2774 -0.6665  0.0593
 2730TIP3   OH229604   4.442   2.092   1.805 -0.1991 -0.1792  0.2957
 2730TIP3    H129605   4.457   2.109   1.898  0.3061 -2.6237  0.7428
 2730TIP3    H229606   4.499   2.154   1.760  2.0559 -1.0605  1.7339
 2731TIP3   OH229607   3.363   6.222  11.522 -0.1031  0.1615 -0.4706
 2731TIP3    H129608   3.282   6.177  11.545  1.5203 -2.4735  0.6032
 2731TIP3    H229609   3.386   6.273  11.600  0.1430 -0.5003 -0.1043
 2732TIP3   OH229610   4.417   2.297  11.135  0.0645  0.7423 -0.0065
 2732TIP3    H129611   4.435   2.382  11.094  0.1837  0.2667 -0.9856
 2732TIP3    H229612   4.322   2.293  11.143  0.0531  0.9271 -0.0484
 2733TIP3   OH229613   5.348   4.169   0.609  0.4077 -0.6250  0.2344
 2733TIP3    H129614   5.327   4.080   0.580  0.3569 -0.3494 -0.5915
 2733TIP3    H229615   5.269   4.199   0.655 -0.5648 -0.0887 -1.6920
 2734TIP3   OH229616   2.056   1.345   0.497 -0.1495  0.5044 -0.1522
 2734TIP3    H129617   1.995   1.401   0.450 -0.3794 -0.2153 -0.7287
 2734TIP3    H229618   2.025   1.256   0.481 -1.0516  0.2654  2.4757
 2735TIP3   OH229619   5.558   3.001   5.497  0.0044 -0.1868 -0.4877
 2735TIP3    H129620   5.590   3.089   5.476 -0.5120 -0.1245 -1.0413
 2735TIP3    H229621   5.605   2.977   5.577 -1.8867  1.7278  1.3377
 2736TIP3   OH229622   0.866   6.630  14.253 -0.4204 -0.1787 -0.6154
 2736TIP3    H129623   0.938   6.626  14.191  0.6216  0.0108  0.5288
 2736TIP3    H229624   0.790   6.653  14.201  0.6035  0.9327 -1.6796
 2737TIP3   OH229625   4.419   5.944  10.735  0.2636 -0.3232  0.1004
 2737TIP3    H129626   4.428   5.850  10.719 -0.4415 -0.0635 -2.1256
 2737TIP3    H229627   4.325   5.961  10.728  0.3668  0.5303  0.6526
 2738TIP3   OH229628   4.743   4.814  11.060 -0.2971 -0.2682 -0.7232
 2738TIP3    H129629   4.798   4.889  11.082 -0.3208 -0.4475 -0.0471
 2738TIP3    H229630   4.803   4.740  11.056 -0.3375 -0.2881 -0.9718
 2739TIP3   OH229631   3.512   3.266   1.750  0.1927  1.2447 -0.4838
 2739TIP3    H129632   3.560   3.258   1.832  0.0716 -1.1055 -0.5744
 2739TIP3    H229633   3.445   3.332   1.768 -0.0071  0.5915  1.4228
 2740TIP3   OH229634   5.411   1.000  11.091  0.2942 -0.2069  0.0436
 2740TIP3    H129635   5.499   1.018  11.058 -0.8513  3.6176 -1.5558
 2740TIP3    H229636   5.365   0.962  11.016  0.1116 -0.5194  0.3137
 2741TIP3   OH229637   5.574   5.458   3.003  0.4873 -0.9292  0.2166
 2741TIP3    H129638   5.648   5.497   3.051 -0.2842  0.2125  0.5327
 2741TIP3    H229639   5.597   5.470   2.911  0.7025 -0.5791  0.3114
 2742TIP3   OH229640   6.535   2.597  14.077 -0.1864 -0.4223 -0.4047
 2742TIP3    H129641   6.586   2.678  14.087  1.1082 -1.2736  0.1832
 2742TIP3    H229642   6.511   2.573  14.166  2.5959 -2.5821 -0.0888
 2743TIP3   OH229643   3.431   0.465  13.649 -0.3900 -0.0507 -0.0642
 2743TIP3    H129644   3.465   0.539  13.699 -0.4382  1.1046 -1.6720
 2743TIP3    H229645   3.508   0.426  13.609 -0.4264 -0.5305  0.3308
 2744TIP3   OH229646   0.724   0.508   5.385 -0.2515  0.1337  0.5456
 2744TIP3    H129647   0.672   0.587   5.400 -0.2999  0.2485 -0.1498
 2744TIP3    H229648   0.688   0.471   5.304  0.9330  0.3899 -0.1276
 2745TIP3   OH229649   2.715   6.340  15.485  0.4100 -0.1266  0.3415
 2745TIP3    H129650   2.730   6.356  15.578  1.4206  0.1575  0.1327
 2745TIP3    H229651   2.623   6.365  15.472  1.0187  2.6499  0.6728
 2746TIP3   OH229652   6.080   3.462   1.322 -0.0907 -0.2335  0.1886
 2746TIP3    H129653   6.009   3.490   1.265 -0.2809 -0.9302  0.0758
 2746TIP3    H229654   6.121   3.544   1.351 -0.1393  0.1274 -0.7444
 2747TIP3   OH229655   3.060   6.222  11.651  0.1246  0.0161  0.4861
 2747TIP3    H129656   2.996   6.202  11.583 -1.8971  0.0660  2.2630
 2747TIP3    H229657   3.107   6.140  11.665 -1.6303 -0.9174  1.1913
 2748TIP3   OH229658   3.434   3.408  13.658 -0.0727 -0.2532 -0.2023
 2748TIP3    H129659   3.491   3.455  13.718  0.1454 -0.6051 -0.1310
 2748TIP3    H229660   3.347   3.443  13.675 -0.0889 -0.6995  0.6669
 2749TIP3   OH229661   5.442   2.187   5.888 -0.2410  0.0423 -0.2998
 2749TIP3    H129662   5.503   2.203   5.960 -2.4045  0.1451  1.6200
 2749TIP3    H229663   5.446   2.266   5.835  2.2329 -0.4864 -1.0397
 2750TIP3   OH229664   5.380   1.660  13.181 -0.5289  0.3431  0.2583
 2750TIP3    H129665   5.372   1.680  13.088  1.5798  0.4526  0.0500
 2750TIP3    H229666   5.381   1.746  13.224 -1.6545  0.2880  0.4142
 2751TIP3   OH229667   1.344   0.695  11.283 -0.2669 -0.7632 -0.0638
 2751TIP3    H129668   1.256   0.704  11.320 -0.5436  0.2130 -0.8974
 2751TIP3    H229669   1.334   0.632  11.212  0.1867 -2.3440  1.2121
 2752TIP3   OH229670   1.944   2.468   0.324 -0.5758 -0.2396  0.3099
 2752TIP3    H129671   1.866   2.509   0.286  0.1954  1.9082  0.9195
 2752TIP3    H229672   1.932   2.477   0.419 -0.3472 -1.4274  0.4649
 2753TIP3   OH229673   1.788   1.960  14.013  0.4134 -0.0790  0.2337
 2753TIP3    H129674   1.835   2.028  14.060  1.7105 -1.2870  0.7555
 2753TIP3    H229675   1.729   1.922  14.078  0.6628 -0.3273  0.3193
 2754TIP3   OH229676   0.727   3.225  11.866  0.6024 -0.0067  0.0959
 2754TIP3    H129677   0.678   3.213  11.784 -0.2770 -0.0900  0.6232
 2754TIP3    H229678   0.674   3.286  11.917  1.6048  0.7585  0.2395
 2755TIP3   OH229679   3.188   5.920   4.764  0.1028  1.0120  0.1508
 2755TIP3    H129680   3.238   5.867   4.827  0.5657 -0.4401 -1.3370
 2755TIP3    H229681   3.247   5.991   4.740  1.3044 -0.3293 -1.1013
 2756TIP3   OH229682   0.333   2.646  17.051 -0.0253  0.3299  0.0227
 2756TIP3    H129683   0.280   2.569  17.027  0.3801  0.4554 -1.3947
 2756TIP3    H229684   0.410   2.640  16.995 -0.3923  2.2292 -0.7573
 2757TIP3   OH229685   1.071   0.578   3.411  0.3755 -0.6079  0.5129
 2757TIP3    H129686   1.060   0.644   3.480  1.3699 -0.0790  0.1808
 2757TIP3    H229687   1.000   0.515   3.428  1.2763 -1.1397  2.7528
 2758TIP3   OH229688   1.700   2.649  10.798 -0.3064  1.3992 -0.1844
 2758TIP3    H129689   1.676   2.562  10.831  0.9730  0.5866 -1.2902
 2758TIP3    H229690   1.630   2.706  10.828 -1.4528 -0.1085  0.1389
 2759TIP3   OH229691   0.827   1.887   3.204 -0.0754  0.2630  0.0194
 2759TIP3    H129692   0.842   1.798   3.172  2.2606  0.8742 -0.7834
 2759TIP3    H229693   0.772   1.928   3.138 -0.9424 -0.4784  0.2599
 2760TIP3   OH229694   2.316   4.553  15.227 -0.4886  0.3188 -0.2019
 2760TIP3    H129695   2.398   4.523  15.186  0.5173  2.0247  0.4615
 2760TIP3    H229696   2.250   4.492  15.195  0.7446 -0.0979 -2.1231
 2761TIP3   OH229697   0.545   4.700   1.454  0.1964 -0.1471 -0.0271
 2761TIP3    H129698   0.475   4.658   1.404 -0.0840  1.0948 -0.7208
 2761TIP3    H229699   0.521   4.793   1.456  1.5126  0.2126  0.2397
 2762TIP3   OH229700   6.216   4.975   2.284  0.5524 -0.1125 -0.5636
 2762TIP3    H129701   6.134   5.000   2.243  0.1688 -0.7246 -0.1848
 2762TIP3    H229702   6.206   4.882   2.304  0.4202  0.3191  1.6104
 2763TIP3   OH229703   1.402   6.418  15.328 -0.4988 -0.3452 -0.0788
 2763TIP3    H129704   1.405   6.421  15.424 -1.8094  0.5706 -0.0387
 2763TIP3    H229705   1.372   6.505  15.302  0.2737 -0.4383 -1.3578
 2764TIP3   OH229706   2.639   6.423   2.627  0.1503 -0.6914 -0.0329
 2764TIP3    H129707   2.687   6.430   2.709 -0.8467  0.8209  0.4643
 2764TIP3    H229708   2.572   6.491   2.632  0.0071 -0.6076 -2.0760
 2765TIP3   OH229709   6.461   2.798   5.355 -0.0400 -0.6790  0.0181
 2765TIP3    H129710   6.378   2.776   5.314 -0.1085 -2.6453  1.0943
 2765TIP3    H229711   6.514   2.834   5.283 -1.4714 -0.2961 -0.8823
 2766TIP3   OH229712   1.018   0.378   2.631 -0.4352 -0.2257 -0.6039
 2766TIP3    H129713   1.027   0.397   2.537 -0.9852  0.7734 -0.4629
 2766TIP3    H229714   1.095   0.324   2.651 -0.8642 -1.3547 -1.8457
 2767TIP3   OH229715   5.131   1.760  12.074 -0.2837  0.0515  0.0012
 2767TIP3    H129716   5.154   1.756  12.167 -2.1615 -0.4645  0.4862
 2767TIP3    H229717   5.059   1.823  12.070 -0.6009 -0.3606 -1.0228
 2768TIP3   OH229718   2.422   4.083  14.317  0.2172  0.5167 -0.7343
 2768TIP3    H129719   2.451   4.174  14.313 -0.4920  0.7922  0.0203
 2768TIP3    H229720   2.416   4.064  14.411  2.5689 -1.0692 -0.8346
 2769TIP3   OH229721   0.596   1.651  14.546  0.5793  0.3930 -0.2499
 2769TIP3    H129722   0.551   1.734  14.533  0.2321  0.3614  0.6631
 2769TIP3    H229723   0.560   1.617  14.628  0.8246 -0.5889 -0.5380
 2770TIP3   OH229724   2.108   2.295   4.528  0.5186 -0.4548  0.2118
 2770TIP3    H129725   2.064   2.218   4.565 -0.7831  0.4035  0.5294
 2770TIP3    H229726   2.046   2.367   4.541  1.5678  0.5994 -0.3614
 2771TIP3   OH229727   6.664   5.221  11.785 -0.2440 -0.5897 -0.0280
 2771TIP3    H129728   6.584   5.226  11.837  0.3949 -0.0332  0.9312
 2771TIP3    H229729   6.670   5.306  11.742 -0.8822 -1.1155 -1.2456
 2772TIP3   OH229730   1.949   4.576   0.509  0.7863  0.4695 -0.5449
 2772TIP3    H129731   2.022   4.580   0.447 -0.2316  2.2530 -1.7011
 2772TIP3    H229732   1.887   4.642   0.478 -0.5683  0.1867  1.3844
 2773TIP3   OH229733   2.935   0.207   1.112  0.0435  0.2614  0.3219
 2773TIP3    H129734   2.936   0.112   1.112  1.4263  0.2575  0.7131
 2773TIP3    H229735   3.004   0.232   1.051 -0.1121  1.0142  0.4441
 2774TIP3   OH229736   2.906   4.349  12.733  0.5576  0.0973  0.2215
 2774TIP3    H129737   2.840   4.355  12.801  0.1943 -3.8746  0.4119
 2774TIP3    H229738   2.868   4.292  12.667  3.1885 -1.0969 -0.3939
 2775TIP3   OH229739   3.945   1.097  12.925  0.6941  0.3042 -0.5251
 2775TIP3    H129740   3.886   1.162  12.962  1.2171  1.7939 -2.1680
 2775TIP3    H229741   4.030   1.117  12.964  0.5339 -0.5394  0.2888
 2776TIP3   OH229742   4.347   1.533   5.492 -0.0580 -0.1903 -0.1466
 2776TIP3    H129743   4.350   1.444   5.457 -0.0513 -0.7054  1.0980
 2776TIP3    H229744   4.386   1.526   5.579  3.2131  1.6792 -1.2625
 2777TIP3   OH229745   5.524   3.691   3.434 -0.0391  0.1910  0.3837
 2777TIP3    H129746   5.593   3.721   3.375  0.6891  0.9160  1.5428
 2777TIP3    H229747   5.507   3.601   3.408  1.0995  0.1158 -0.1652
 2778TIP3   OH229748   1.797   3.214  10.913  0.4534 -0.1574 -0.4358
 2778TIP3    H129749   1.723   3.154  10.910  0.5855 -0.3204 -0.4427
 2778TIP3    H229750   1.796   3.259  10.829  0.3068 -0.0913 -0.3989
 2779TIP3   OH229751   1.013   4.262  11.883  0.1148  0.0195  0.0256
 2779TIP3    H129752   0.919   4.268  11.862  0.2510  0.0866 -0.5804
 2779TIP3    H229753   1.047   4.349  11.864 -0.0728  0.6477  2.2290
 2780TIP3   OH229754   2.726   3.248  16.060  0.0916  0.4522 -0.1563
 2780TIP3    H129755   2.649   3.208  16.100  2.0467 -1.6259  1.7807
 2780TIP3    H229756   2.749   3.320  16.119  0.5150  0.0928  0.1197
 2781TIP3   OH229757   1.832   4.942  17.191 -0.0755  0.4095  0.5966
 2781TIP3    H129758   1.776   4.920  17.266  1.2012  1.8388  2.0457
 2781TIP3    H229759   1.918   4.908  17.215  0.3912  1.0432 -0.1368
 2782TIP3   OH229760   6.352   5.192   3.021 -0.4411  0.1793  0.0386
 2782TIP3    H129761   6.441   5.175   3.053 -1.1835 -2.2308  1.0517
 2782TIP3    H229762   6.345   5.140   2.941 -0.6456  1.2077 -0.6348
 2783TIP3   OH229763   2.921   4.305   5.076  0.0419 -0.0058 -0.5744
 2783TIP3    H129764   3.006   4.280   5.111 -0.1084 -0.8559 -0.7965
 2783TIP3    H229765   2.862   4.235   5.105 -0.5363  0.4745 -0.5891
 2784TIP3   OH229766   4.063   2.383   4.625  0.1027 -0.4144 -0.2692
 2784TIP3    H129767   4.091   2.336   4.703 -1.0523  0.1150  0.5032
 2784TIP3    H229768   4.143   2.419   4.588  0.7833 -1.5001  0.1134
 2785TIP3   OH229769   0.108   0.821   4.144  0.4715  0.2522 -0.1231
 2785TIP3    H129770   0.189   0.792   4.103 -0.3025 -3.2078  0.5103
 2785TIP3    H229771   0.044   0.821   4.072  0.2505 -0.6762  0.0658
 2786TIP3   OH229772   5.450   6.043  13.457  0.6520  0.2805 -0.1515
 2786TIP3    H129773   5.476   6.101  13.529  1.1597 -0.1799  0.0421
 2786TIP3    H229774   5.507   5.967  13.466  0.1413 -0.1521 -0.5418
 2787TIP3   OH229775   1.479   4.343   5.896 -0.6260 -0.2059  0.5742
 2787TIP3    H129776   1.486   4.409   5.965  0.3288 -0.2077  0.4823
 2787TIP3    H229777   1.430   4.386   5.826  3.3025  1.9107 -1.2077
 2788TIP3   OH229778   4.130   4.264   3.610 -0.1054  0.6576  0.1473
 2788TIP3    H129779   4.223   4.266   3.590 -0.0889 -1.5122 -0.2532
 2788TIP3    H229780   4.096   4.348   3.578  1.3970  0.7260 -1.3776
 2789TIP3   OH229781   4.376   6.195   3.717  0.8971 -0.1102  0.1638
 2789TIP3    H129782   4.408   6.146   3.793  0.6998 -1.8272 -0.8022
 2789TIP3    H229783   4.341   6.128   3.658  2.9658  0.9100 -2.4149
 2790TIP3   OH229784   5.360   2.321  11.881 -0.2166  0.5820 -0.3982
 2790TIP3    H129785   5.406   2.400  11.911 -0.7298  0.7613 -0.0719
 2790TIP3    H229786   5.396   2.304  11.794  0.6246  0.5917 -0.0599
 2791TIP3   OH229787   4.913   0.419  10.354 -0.2742  0.3406 -0.4001
 2791TIP3    H129788   4.868   0.393  10.434  0.0544 -0.1328 -0.3685
 2791TIP3    H229789   4.930   0.513  10.366 -0.3492  0.3009  0.0242
 2792TIP3   OH229790   5.544   6.583   0.327 -0.0255 -0.2674  0.2379
 2792TIP3    H129791   5.612   6.623   0.380 -0.2293  1.9062 -1.0411
 2792TIP3    H229792   5.556   6.619   0.239 -3.8163  1.6329  0.2982
 2793TIP3   OH229793   5.817   2.982   2.556 -0.8267 -0.5004  0.1365
 2793TIP3    H129794   5.793   2.928   2.480 -1.4062  0.3605 -0.3085
 2793TIP3    H229795   5.804   2.924   2.631 -0.9270 -1.1460 -0.3604
 2794TIP3   OH229796   2.146   1.772   2.441 -0.0660  0.7493 -1.0375
 2794TIP3    H129797   2.212   1.841   2.443  0.5427  0.1740 -0.8964
 2794TIP3    H229798   2.089   1.790   2.516  0.8911  0.3330 -0.1887
 2795TIP3   OH229799   0.680   2.287  12.712  0.1622  0.1648 -0.0665
 2795TIP3    H129800   0.706   2.210  12.662  3.2638  1.3301 -0.5189
 2795TIP3    H229801   0.747   2.295  12.780 -0.6987  1.8266  0.6384
 2796TIP3   OH229802   0.663   1.362   0.710 -0.0377  0.1567 -0.1147
 2796TIP3    H129803   0.673   1.454   0.737 -0.3555  1.0425 -2.7127
 2796TIP3    H229804   0.730   1.350   0.643  0.6913 -1.8938  0.8821
 2797TIP3   OH229805   5.624   4.167  12.389  0.2159  0.4113  0.1567
 2797TIP3    H129806   5.699   4.111  12.372  1.2166  1.0939  2.0469
 2797TIP3    H229807   5.590   4.189  12.302  1.0445 -1.4148 -0.6723
 2798TIP3   OH229808   1.486   5.187   5.875 -0.1412  0.3182  0.0539
 2798TIP3    H129809   1.399   5.218   5.901  0.0159 -0.0642  1.1023
 2798TIP3    H229810   1.505   5.116   5.936  0.5937 -0.1054 -0.6550
 2799TIP3   OH229811   6.644   0.928  14.727 -0.7200  0.0814 -0.1383
 2799TIP3    H129812   6.644   0.927  14.631 -1.6454 -2.7201 -0.1724
 2799TIP3    H229813   6.609   0.843  14.753 -2.3732  1.4785  2.7175
 2800TIP3   OH229814   1.642   5.446  17.133 -0.2416  0.3923  0.0287
 2800TIP3    H129815   1.597   5.482  17.209 -1.3068 -0.8148 -0.0059
 2800TIP3    H229816   1.664   5.356  17.158  1.0853  0.5628 -0.4131
 2801TIP3   OH229817   3.151   0.439   0.489  0.2279  0.4044 -0.0065
 2801TIP3    H129818   3.239   0.473   0.474  0.2054  1.7632  2.4325
 2801TIP3    H229819   3.165   0.354   0.530  0.3421 -0.2365 -1.3272
 2802TIP3   OH229820   6.358   4.246   1.358 -0.2056 -0.3063 -0.6006
 2802TIP3    H129821   6.435   4.278   1.405 -0.6096 -0.1979 -0.0135
 2802TIP3    H229822   6.284   4.262   1.417 -0.9553  1.3498 -1.8870
 2803TIP3   OH229823   4.094   3.431  11.595  0.2161 -0.4776 -0.1774
 2803TIP3    H129824   4.114   3.371  11.523  2.2252  1.0971 -1.0149
 2803TIP3    H229825   4.021   3.483  11.563  0.5533 -0.3511 -0.7571
 2804TIP3   OH229826   6.484   3.858   3.634 -0.2025 -0.1233 -0.4810
 2804TIP3    H129827   6.555   3.920   3.617  0.3712  0.1148  2.1949
 2804TIP3    H229828   6.529   3.776   3.657 -0.5762  0.4816  2.9182
 2805TIP3   OH229829   3.479   4.668  10.738 -0.0509 -0.4536  0.0991
 2805TIP3    H129830   3.412   4.712  10.790  0.6753  0.5908  0.1880
 2805TIP3    H229831   3.546   4.735  10.724 -0.0785 -0.7858 -1.9296
 2806TIP3   OH229832   0.828   6.116  15.041 -0.5158  0.8560 -0.0191
 2806TIP3    H129833   0.782   6.179  15.096 -0.8587  0.3202  0.3120
 2806TIP3    H229834   0.763   6.090  14.975 -0.5693  0.4002  0.2097
 2807TIP3   OH229835   3.639   5.137  14.322 -0.0679 -0.3831 -0.9576
 2807TIP3    H129836   3.654   5.181  14.406  0.6666 -0.7966 -0.8648
 2807TIP3    H229837   3.544   5.123  14.318 -0.3810  1.4893 -1.1335
 2808TIP3   OH229838   1.679   5.498  12.519  0.2379 -0.4426 -0.3733
 2808TIP3    H129839   1.610   5.446  12.477 -0.2260  0.9569 -1.4396
 2808TIP3    H229840   1.755   5.487  12.462 -0.1641  0.8294 -1.2032
 2809TIP3   OH229841   0.674   2.616  13.611  0.4185  0.4585  0.2652
 2809TIP3    H129842   0.615   2.684  13.643  0.2762  0.2992  0.3411
 2809TIP3    H229843   0.686   2.558  13.686  2.4174  1.6733  0.9867
 2810TIP3   OH229844   3.275   0.362   0.151 -0.2052  0.3293 -0.2092
 2810TIP3    H129845   3.347   0.329   0.097  1.1001  1.3251  0.8441
 2810TIP3    H229846   3.303   0.345   0.241 -0.7759  1.7172  0.2611
 2811TIP3   OH229847   4.865   1.600   2.153  0.0287  0.0485  0.1579
 2811TIP3    H129848   4.858   1.553   2.236 -1.0476  0.4995  0.3466
 2811TIP3    H229849   4.908   1.683   2.175 -0.0769  0.0829  0.2397
 2812TIP3   OH229850   0.632   5.603  10.815  0.0555  0.2315 -0.1973
 2812TIP3    H129851   0.564   5.626  10.752  0.4875  1.2485 -0.3047
 2812TIP3    H229852   0.700   5.560  10.763 -0.7997 -1.4819  0.0211
 2813TIP3   OH229853   0.701   4.548   0.441  0.0104 -0.3319 -0.4161
 2813TIP3    H129854   0.640   4.579   0.507  1.1687 -0.2816  0.6663
 2813TIP3    H229855   0.680   4.455   0.430 -0.0542 -0.3871  0.1761
 2814TIP3   OH229856   2.505   6.255   1.594  0.1852  0.4063  0.6130
 2814TIP3    H129857   2.446   6.308   1.541 -0.8986 -1.7055 -0.4454
 2814TIP3    H229858   2.593   6.284   1.569 -0.3408  0.6486 -1.0997
 2815TIP3   OH229859   3.860   3.151  11.498  0.3262 -0.0216  0.0336
 2815TIP3    H129860   3.928   3.084  11.502 -0.6165 -1.0053  0.0818
 2815TIP3    H229861   3.906   3.231  11.473  1.1870 -1.1440 -2.2513
 2816TIP3   OH229862   5.458   4.064  13.442  0.1819 -0.1520  0.2016
 2816TIP3    H129863   5.482   4.074  13.350 -0.9370  1.3562  0.0364
 2816TIP3    H229864   5.376   4.014  13.440  0.1469 -0.1006  0.3686
 2817TIP3   OH229865   2.041   2.136  16.071 -0.0862  0.3533 -0.1441
 2817TIP3    H129866   1.950   2.154  16.096 -0.2916 -1.8347  0.9016
 2817TIP3    H229867   2.070   2.068  16.132  1.8251  0.0556 -1.3022
 2818TIP3   OH229868   3.169   3.139   4.144 -0.7144 -0.1500  0.4414
 2818TIP3    H129869   3.221   3.069   4.106  0.0097  1.4643 -1.7911
 2818TIP3    H229870   3.078   3.114   4.127 -0.4330 -0.0022 -1.4989
 2819TIP3   OH229871   0.085   1.251  12.021 -0.1125 -0.8837  0.1126
 2819TIP3    H129872  -0.010   1.248  12.023 -0.3335  2.3995 -0.1238
 2819TIP3    H229873   0.106   1.320  11.957  2.3903 -0.7330  0.9614
 2820TIP3   OH229874   2.812   0.640  14.926  0.2291  0.4206  0.4995
 2820TIP3    H129875   2.837   0.548  14.924  2.0501  0.7651  2.9016
 2820TIP3    H229876   2.892   0.687  14.948  0.0020  2.9694 -3.1064
 2821TIP3   OH229877   1.879   3.437  15.338  0.3109  0.2841 -0.5142
 2821TIP3    H129878   1.852   3.458  15.249  0.1654  1.4531 -0.2084
 2821TIP3    H229879   1.807   3.469  15.393  0.6632  0.0994  0.0646
 2822TIP3   OH229880   5.058   5.573  14.158  0.0897  0.0772 -0.1598
 2822TIP3    H129881   5.142   5.590  14.201  0.3164 -0.2660 -0.4667
 2822TIP3    H229882   5.074   5.589  14.065 -0.1824 -0.0030 -0.2218
 2823TIP3   OH229883   1.644   5.986  10.853 -0.6149  0.1366 -0.8221
 2823TIP3    H129884   1.587   5.947  10.786  0.5425 -0.9383 -1.2436
 2823TIP3    H229885   1.678   6.065  10.812  0.1549 -0.5611 -1.5842
 2824TIP3   OH229886   5.480   4.624  16.069 -0.2921 -0.2743  0.2225
 2824TIP3    H129887   5.423   4.619  16.146  0.1154 -0.8662  0.4932
 2824TIP3    H229888   5.510   4.715  16.068  2.0536 -0.8982  2.5089
 2825TIP3   OH229889   5.868   5.242   2.184  0.1583 -0.3184  0.0772
 2825TIP3    H129890   5.809   5.294   2.240  0.5068 -0.6808  0.8017
 2825TIP3    H229891   5.836   5.152   2.193  1.6515 -0.7467  1.6302
 2826TIP3   OH229892   5.245   4.478   3.082  0.6929  0.4247  0.3126
 2826TIP3    H129893   5.268   4.480   3.175 -2.4049  0.4188  1.2109
 2826TIP3    H229894   5.179   4.547   3.072 -0.2202 -0.6162 -1.4951
 2827TIP3   OH229895   0.624   5.091   1.396  0.9189 -0.6465 -0.2423
 2827TIP3    H129896   0.600   5.181   1.418  0.0234 -0.8692 -0.2651
 2827TIP3    H229897   0.720   5.091   1.395  1.0391  1.1963 -3.6524
 2828TIP3   OH229898   2.621   6.579   6.104 -0.1355  0.0525 -0.2300
 2828TIP3    H129899   2.670   6.521   6.162 -0.3754 -0.4904 -0.5632
 2828TIP3    H229900   2.628   6.666   6.145  3.6116  0.6370 -1.7709
 2829TIP3   OH229901   0.758   0.807  14.628  0.3628 -0.9984 -0.3841
 2829TIP3    H129902   0.687   0.812  14.564  0.2863  0.5499 -0.2180
 2829TIP3    H229903   0.831   0.766  14.580 -0.4216 -1.9954 -0.7499
 2830TIP3   OH229904   1.946   5.635   5.586 -0.3268  0.0044 -0.1917
 2830TIP3    H129905   1.919   5.544   5.601 -0.3309  0.1869  1.0622
 2830TIP3    H229906   1.893   5.664   5.512  0.2717 -1.2565 -1.1629
 2831TIP3   OH229907   1.137   4.164  16.903  0.3339  0.0381 -0.1381
 2831TIP3    H129908   1.102   4.082  16.939  0.7817 -0.0372  0.1294
 2831TIP3    H229909   1.183   4.205  16.976  2.6527 -0.8861 -1.0001
 2832TIP3   OH229910   4.388   5.081  13.488 -0.0066 -0.4602  0.2442
 2832TIP3    H129911   4.355   5.065  13.576 -1.9112  0.8743 -0.1736
 2832TIP3    H229912   4.409   4.994  13.454 -3.4734 -1.5318  0.4530
 2833TIP3   OH229913   1.848   6.698   1.020  0.3174 -0.8080  0.7109
 2833TIP3    H129914   1.878   6.671   1.107  0.1317 -2.5674  0.2538
 2833TIP3    H229915   1.920   6.677   0.962 -0.8549 -2.9911 -0.0633
 2834TIP3   OH229916   4.231   3.342   3.506  0.2012 -0.4544  0.5940
 2834TIP3    H129917   4.185   3.278   3.560 -0.2845 -1.6130 -1.1167
 2834TIP3    H229918   4.202   3.427   3.541 -2.5391 -1.1241  0.2080
 2835TIP3   OH229919   5.051   0.870  15.648 -0.0550 -0.1364 -0.2236
 2835TIP3    H129920   4.992   0.903  15.716  1.4051  1.1731  0.4615
 2835TIP3    H229921   5.125   0.930  15.649  0.1344 -0.2114 -2.8449
 2836TIP3   OH229922   1.546   5.716  14.185  0.5686  0.5385  0.3045
 2836TIP3    H129923   1.566   5.634  14.140 -0.8049 -0.4044  1.3375
 2836TIP3    H229924   1.501   5.769  14.119 -1.3538 -0.7937  0.4778
 2837TIP3   OH229925   3.894   3.314  15.625  0.8440  0.4899  0.1760
 2837TIP3    H129926   3.798   3.314  15.626  0.8191 -0.6033  1.6907
 2837TIP3    H229927   3.918   3.227  15.656  2.3513  0.3686 -1.2251
 2838TIP3   OH229928   3.375   1.793  13.069  0.0832 -0.1995 -0.4342
 2838TIP3    H129929   3.311   1.862  13.085  1.6647  1.3277 -0.4255
 2838TIP3    H229930   3.424   1.786  13.151 -0.0130 -1.3008 -0.4592
 2839TIP3   OH229931   6.242   5.335   0.398 -0.6203 -0.0553  0.0869
 2839TIP3    H129932   6.229   5.428   0.379 -2.0609 -0.2465 -0.0131
 2839TIP3    H229933   6.299   5.333   0.474 -1.0047  0.9313  0.4122
 2840TIP3   OH229934   6.679   6.329   4.569  0.2756 -0.0469  0.0972
 2840TIP3    H129935   6.627   6.386   4.625 -0.1135  0.7800 -1.0610
 2840TIP3    H229936   6.678   6.244   4.613  2.3181  1.1793  2.8097
 2841TIP3   OH229937   0.220   1.561   3.268  0.3863  0.1433 -0.0053
 2841TIP3    H129938   0.157   1.579   3.198  2.0320  0.8266 -1.3631
 2841TIP3    H229939   0.207   1.468   3.288 -0.5646  0.1047 -0.7413
 2842TIP3   OH229940   1.431   0.480   5.192  0.1398  0.1340  0.6390
 2842TIP3    H129941   1.385   0.397   5.204  2.0433 -1.5262 -2.4820
 2842TIP3    H229942   1.361   0.544   5.177 -1.2907 -1.3196  0.8291
 2843TIP3   OH229943   1.011   2.048  11.753 -0.1302 -0.6454  0.4696
 2843TIP3    H129944   1.106   2.041  11.761 -0.0128 -0.5775 -0.7122
 2843TIP3    H229945   0.984   1.964  11.716 -0.4454 -0.3986  0.1362
 2844TIP3   OH229946   1.426   1.500   2.198 -0.1622 -0.5406  1.2676
 2844TIP3    H129947   1.456   1.576   2.150 -0.8184  0.1197  1.8684
 2844TIP3    H229948   1.454   1.425   2.145 -1.6592  0.1615 -0.6453
 2845TIP3   OH229949   0.594   6.261  11.105 -0.0631  0.0527 -0.3638
 2845TIP3    H129950   0.605   6.166  11.109  1.4547  0.2082 -0.4094
 2845TIP3    H229951   0.499   6.274  11.104 -0.3157 -1.3911  1.1167
 2846TIP3   OH229952   2.990   6.445  16.556  0.5210 -0.6117 -0.3351
 2846TIP3    H129953   3.077   6.424  16.521  0.7246 -1.6193  0.7274
 2846TIP3    H229954   2.949   6.360  16.571  1.0832 -0.4295  3.3858
 2847TIP3   OH229955   6.701   4.439  16.122  0.3070  0.0796  0.2097
 2847TIP3    H129956   6.771   4.452  16.186  0.3389  1.8086 -0.1225
 2847TIP3    H229957   6.746   4.428  16.038  0.2297 -1.0587  0.3034
 2848TIP3   OH229958   0.619   2.686   0.977  0.0410 -0.5533  0.2535
 2848TIP3    H129959   0.615   2.592   0.991  0.4603 -0.4978  0.8262
 2848TIP3    H229960   0.547   2.722   1.028  0.4095 -0.5019  0.7488
 2849TIP3   OH229961   2.659   4.737  13.985  0.0192 -0.2376 -0.3787
 2849TIP3    H129962   2.648   4.751  14.079  2.0057  1.2601 -0.2954
 2849TIP3    H229963   2.603   4.803  13.945 -1.4644 -1.4080 -0.3066
 2850TIP3   OH229964   5.833   3.452  12.688 -0.6972  0.4407  0.0369
 2850TIP3    H129965   5.797   3.518  12.629 -5.2252 -1.9700 -0.3431
 2850TIP3    H229966   5.836   3.496  12.773 -0.4652  2.0349 -0.7466
 2851TIP3   OH229967   0.366   5.657  16.550 -0.1085 -0.1786  0.1302
 2851TIP3    H129968   0.425   5.638  16.623 -0.4938 -0.2994  0.4142
 2851TIP3    H229969   0.411   5.725  16.500  0.4618 -0.5586  0.1108
 2852TIP3   OH229970   2.562   4.566  13.036 -0.0048 -0.0573  0.5187
 2852TIP3    H129971   2.626   4.612  13.090  0.2560  0.6904 -0.4007
 2852TIP3    H229972   2.608   4.488  13.005  0.6368  0.7220 -0.5300
 2853TIP3   OH229973   4.225   6.065   0.021  0.4765  0.1405  0.2150
 2853TIP3    H129974   4.273   6.020   0.092 -0.8063 -1.1052  0.3410
 2853TIP3    H229975   4.158   6.002  -0.005  0.6655  0.7355 -1.8627
 2854TIP3   OH229976   4.161   6.619  15.972  0.0278  0.1886 -0.2826
 2854TIP3    H129977   4.242   6.648  16.013 -0.1972  1.2837 -0.5921
 2854TIP3    H229978   4.189   6.572  15.894  0.3744  0.1569 -0.1406
 2855TIP3   OH229979   1.070   1.402  15.934  0.4796 -0.0198  0.1524
 2855TIP3    H129980   1.018   1.415  16.013  0.5420  2.1159 -0.0967
 2855TIP3    H229981   1.007   1.368  15.870 -0.3763  1.3693  0.2049
 2856TIP3   OH229982   5.194   0.970  16.410 -0.2482 -0.0107 -0.1060
 2856TIP3    H129983   5.143   0.909  16.464 -0.6477 -1.1792 -1.7175
 2856TIP3    H229984   5.195   0.930  16.323  1.3925  1.2055 -0.6990
 2857TIP3   OH229985   5.582   6.473  16.787 -0.4504  0.2571  0.0078
 2857TIP3    H129986   5.659   6.529  16.782  0.6172 -1.2364 -3.2411
 2857TIP3    H229987   5.524   6.517  16.849  2.6088  1.8837  1.9446
 2858TIP3   OH229988   5.349   3.928  12.190 -0.2425 -0.2101  0.9282
 2858TIP3    H129989   5.357   3.837  12.218 -0.0561 -0.0024  1.5698
 2858TIP3    H229990   5.437   3.964  12.200 -0.3659  0.1038  0.9001
 2859TIP3   OH229991   1.094   0.033  14.854  0.1398 -0.0387 -0.2755
 2859TIP3    H129992   1.046  -0.017  14.921 -0.2610  0.4519 -0.1877
 2859TIP3    H229993   1.124  -0.033  14.792 -0.0470 -0.4328  0.0427
 2860TIP3   OH229994   3.911   6.479   5.973  0.5091 -0.0061  0.1164
 2860TIP3    H129995   3.863   6.439   6.045 -2.2691  1.3471 -0.8689
 2860TIP3    H229996   3.985   6.523   6.016  0.3634 -1.2980  1.8012
 2861TIP3   OH229997   0.194   0.960  11.528  0.3335 -0.3443 -0.4501
 2861TIP3    H129998   0.198   0.948  11.433  0.1437 -0.6290 -0.4227
 2861TIP3    H229999   0.110   0.921  11.553  0.5079 -0.5094 -0.1281
 2862TIP3   OH230000   1.396   1.294   5.011 -0.3565 -0.4957  0.0953
 2862TIP3    H130001   1.464   1.227   5.001 -0.6055 -0.6391 -0.7070
 2862TIP3    H230002   1.334   1.276   4.940  0.8602  2.0926 -1.7806
 2863TIP3   OH230003   2.004   3.441  16.505 -0.2387  0.5610 -0.1008
 2863TIP3    H130004   1.996   3.483  16.420  1.8328  0.3708 -0.4445
 2863TIP3    H230005   2.053   3.503  16.559 -0.5911  0.2312  0.6192
 2864TIP3   OH230006   4.884   5.656   3.762  0.4651 -0.8279 -0.2190
 2864TIP3    H130007   4.878   5.687   3.852 -1.2141 -2.4350  0.3016
 2864TIP3    H230008   4.902   5.734   3.711  0.7100  0.2455  1.4235
 2865TIP3   OH230009   5.000   1.547  15.524 -0.3220 -0.6293 -0.1869
 2865TIP3    H130010   5.039   1.501  15.599  2.5363  0.2774 -1.0025
 2865TIP3    H230011   5.074   1.565  15.466 -1.5376  3.3368 -0.8004
 2866TIP3   OH230012   4.178   4.869  12.173  0.2888  0.2789 -0.0324
 2866TIP3    H130013   4.151   4.817  12.249 -0.4222  0.7179  0.0197
 2866TIP3    H230014   4.247   4.817  12.132 -1.0871 -1.2326 -0.5578
 2867TIP3   OH230015   1.591   4.902  15.939  0.2437  0.9357  0.9176
 2867TIP3    H130016   1.515   4.868  15.985  0.1636  0.7111  0.6173
 2867TIP3    H230017   1.666   4.860  15.982  0.1369  0.2318  0.4269
 2868TIP3   OH230018   4.022   4.308   2.638  0.0409  0.1707 -0.1422
 2868TIP3    H130019   4.108   4.349   2.625  0.7218 -0.8688  0.8465
 2868TIP3    H230020   3.965   4.380   2.664  0.1663  1.1712 -2.4087
 2869TIP3   OH230021   1.615   6.123  17.294  0.0663  0.1522 -0.2389
 2869TIP3    H130022   1.634   6.211  17.326  0.8900  1.0338 -2.8777
 2869TIP3    H230023   1.525   6.129  17.262  0.1307  0.0528 -0.4406
 2870TIP3   OH230024   5.972   2.600   6.039  0.2167 -0.3824  0.1615
 2870TIP3    H130025   5.918   2.557   5.973 -0.5595  0.2843  0.3519
 2870TIP3    H230026   5.912   2.616   6.112  0.2652  1.7573 -0.2079
 2871TIP3   OH230027   5.675   4.946   6.386 -0.1030  0.1379  0.0449
 2871TIP3    H130028   5.665   4.887   6.461 -3.3244  1.7122  1.0788
 2871TIP3    H230029   5.739   5.011   6.415  0.6054 -0.6838  0.3736
 2872TIP3   OH230030   2.295   4.875  12.633 -0.0551 -0.3051  0.1590
 2872TIP3    H130031   2.242   4.933  12.578 -0.7662  0.6046  1.7224
 2872TIP3    H230032   2.235   4.846  12.702  1.6010  1.5229  2.5634
 2873TIP3   OH230033   6.538   6.209  16.830 -0.4063 -0.2763 -0.1985
 2873TIP3    H130034   6.524   6.217  16.735 -2.5406 -1.8930 -0.0954
 2873TIP3    H230035   6.616   6.155  16.838 -0.0850  0.0423 -1.0210
 2874TIP3   OH230036   5.431   3.728   0.329 -0.1331  0.4316  0.2654
 2874TIP3    H130037   5.485   3.801   0.297 -0.5007  0.1216 -1.1353
 2874TIP3    H230038   5.480   3.650   0.306 -0.1079  0.2067  1.0693
 2875TIP3   OH230039   2.119   1.530  13.055 -0.4807 -0.1685 -0.7519
 2875TIP3    H130040   2.209   1.552  13.031 -0.4711 -0.8791 -1.3958
 2875TIP3    H230041   2.096   1.456  12.999 -1.2878 -0.3348 -0.2259
 2876TIP3   OH230042   6.347   3.771   5.052  0.1556  0.1767  0.2317
 2876TIP3    H130043   6.372   3.694   5.103  0.3927 -1.5172 -2.2502
 2876TIP3    H230044   6.252   3.762   5.040  0.0342  0.7896  0.7013
 2877TIP3   OH230045   1.592   4.989   4.584  0.6848  0.1587  0.1441
 2877TIP3    H130046   1.588   4.899   4.551  2.9920  0.8418 -2.3760
 2877TIP3    H230047   1.555   5.042   4.513  2.4627  1.4318  0.0973
 2878TIP3   OH230048   2.210   3.754  16.138  0.6514 -0.3044 -0.0248
 2878TIP3    H130049   2.255   3.839  16.144 -1.5616  1.0175 -0.9575
 2878TIP3    H230050   2.227   3.724  16.049  0.6715 -0.3669  0.0003
 2879TIP3   OH230051   2.267   2.359   2.356 -0.6049  0.2348  0.1397
 2879TIP3    H130052   2.302   2.418   2.290 -0.8537 -0.4162 -0.5938
 2879TIP3    H230053   2.343   2.336   2.410 -0.6048  1.5986  0.7489
 2880TIP3   OH230054   6.677   0.560  16.082  0.3218  0.6735  0.4625
 2880TIP3    H130055   6.761   0.605  16.091 -0.2886  1.9431  0.0203
 2880TIP3    H230056   6.698   0.478  16.037  1.0025  2.1420 -2.0852
 2881TIP3   OH230057   4.326   3.762   2.652  0.5167  0.2621  0.0618
 2881TIP3    H130058   4.235   3.783   2.675  0.5133 -1.2310  1.6528
 2881TIP3    H230059   4.376   3.785   2.730  1.2424 -0.5055 -0.1635
 2882TIP3   OH230060   0.330   4.701  13.952  0.2709 -0.4020 -0.4846
 2882TIP3    H130061   0.387   4.660  13.887  0.4543 -0.3542 -0.3516
 2882TIP3    H230062   0.287   4.772  13.904  0.0363 -0.6746 -0.6869
 2883TIP3   OH230063   4.908   5.084   4.300  0.3995  0.1153 -0.0160
 2883TIP3    H130064   4.859   5.010   4.335  2.3278 -1.1017  0.2675
 2883TIP3    H230065   4.967   5.045   4.234  2.9105  0.9910  1.5639
 2884TIP3   OH230066   2.298   0.509   1.230  0.6172 -0.1882  1.1855
 2884TIP3    H130067   2.365   0.456   1.186  0.1510  0.2242 -0.0787
 2884TIP3    H230068   2.259   0.450   1.293  0.5398 -1.1800  0.2473
 2885TIP3   OH230069   2.952   4.755  17.290 -0.4588 -0.3675  0.0193
 2885TIP3    H130070   2.868   4.710  17.293 -0.2533 -0.8115 -0.7547
 2885TIP3    H230071   2.950   4.805  17.208 -0.1114 -0.1042  0.1691
 2886TIP3   OH230072   1.573   2.647  11.111 -0.2051 -0.0726 -0.4340
 2886TIP3    H130073   1.579   2.705  11.035  0.1966 -0.6216 -0.8309
 2886TIP3    H230074   1.491   2.600  11.099 -0.8890  0.9101  0.2600
 2887TIP3   OH230075   4.245   6.292  16.751 -0.5982 -0.5386 -0.0672
 2887TIP3    H130076   4.228   6.338  16.833  1.3137 -0.3386  0.2635
 2887TIP3    H230077   4.336   6.261  16.759 -0.5466 -0.9651 -1.8842
 2888TIP3   OH230078   4.703   2.733   6.874  0.4079  0.0633 -0.7689
 2888TIP3    H130079   4.647   2.657   6.855 -1.0676  1.1202 -0.7850
 2888TIP3    H230080   4.710   2.779   6.791  1.4192 -0.1069 -0.7921
 2889TIP3   OH230081   5.690   0.379   2.469 -0.0617 -0.0065  0.1434
 2889TIP3    H130082   5.691   0.313   2.539  0.3926 -0.6275 -0.4359
 2889TIP3    H230083   5.632   0.343   2.402 -1.9345  1.3956  0.9296
 2890TIP3   OH230084   4.755   3.329   1.820  0.0147  0.5103  0.0755
 2890TIP3    H130085   4.786   3.296   1.736 -0.8990 -0.7198  0.2001
 2890TIP3    H230086   4.756   3.253   1.878 -2.1121  0.6596  0.3813
 2891TIP3   OH230087   4.782   4.618   4.264  0.7727  0.1486  0.2972
 2891TIP3    H130088   4.736   4.606   4.347 -0.7493  0.3186 -0.4722
 2891TIP3    H230089   4.815   4.531   4.242 -0.6854 -0.3728  0.0583
 2892TIP3   OH230090   0.279   0.206   1.495  0.2768 -0.0324  0.4176
 2892TIP3    H130091   0.354   0.163   1.455 -0.7085 -0.1590 -1.3627
 2892TIP3    H230092   0.221   0.134   1.521 -0.3954  0.1176 -0.6074
 2893TIP3   OH230093   0.381   6.192  12.457  0.1353  0.2850  0.2495
 2893TIP3    H130094   0.459   6.229  12.415  0.2092 -1.2631 -1.0908
 2893TIP3    H230095   0.322   6.266  12.468  1.6714  1.4388  1.0394
 2894TIP3   OH230096   3.426   5.216   0.506  0.0093 -0.1091  0.2790
 2894TIP3    H130097   3.506   5.216   0.558  1.4341 -1.8949 -1.6942
 2894TIP3    H230098   3.448   5.266   0.427 -1.5839  1.2573  0.6459
 2895TIP3   OH230099   5.147   5.352  10.729 -0.2151  0.2819 -0.6062
 2895TIP3    H130100   5.198   5.424  10.694 -2.3098  3.0872  1.6115
 2895TIP3    H230101   5.184   5.336  10.816 -0.3719 -0.6831 -0.6983
 2896TIP3   OH230102   5.507   5.114   2.438  0.2622 -0.2491  0.0145
 2896TIP3    H130103   5.472   5.048   2.499 -0.4293 -1.3412 -1.5037
 2896TIP3    H230104   5.585   5.073   2.402  2.2052  1.4430  2.0071
 2897TIP3   OH230105   3.952   0.686   5.840 -0.4740  0.4858  0.8096
 2897TIP3    H130106   4.046   0.696   5.829 -0.4259 -0.2084  0.5043
 2897TIP3    H230107   3.942   0.598   5.877 -0.9798  0.6987  1.1876
 2898TIP3   OH230108   2.720   3.324   2.773 -0.1021 -0.4461  0.8741
 2898TIP3    H130109   2.745   3.373   2.695  1.0473 -1.3361  0.6576
 2898TIP3    H230110   2.741   3.382   2.846 -2.1677  0.8147  0.5242
 2899TIP3   OH230111   1.360   1.022   2.225  0.2717 -0.4025  0.2086
 2899TIP3    H130112   1.328   1.109   2.201  1.6460  0.7480  2.2058
 2899TIP3    H230113   1.281   0.970   2.238 -0.5654 -0.0534 -2.7704
 2900TIP3   OH230114   4.175   3.183  13.369 -0.0133 -0.3828 -0.1564
 2900TIP3    H130115   4.111   3.192  13.440 -0.5231  0.4497 -0.7033
 2900TIP3    H230116   4.260   3.197  13.412 -0.2603 -0.6128  0.4169
 2901TIP3   OH230117   1.319   4.446   4.169 -0.2303 -0.3599  0.8449
 2901TIP3    H130118   1.251   4.460   4.102  0.6102  1.3043  0.2750
 2901TIP3    H230119   1.370   4.372   4.137  0.1486  0.4060 -0.3781
 2902TIP3   OH230120   1.147   4.178  16.393 -0.1501 -0.3381 -0.2897
 2902TIP3    H130121   1.192   4.095  16.409 -0.0327  0.0694  1.8533
 2902TIP3    H230122   1.175   4.234  16.466 -2.2608  0.7232 -0.2163
 2903TIP3   OH230123   6.156   3.677  13.990 -0.5449 -0.6893 -0.9220
 2903TIP3    H130124   6.150   3.757  13.937  2.0871 -0.7285 -1.4063
 2903TIP3    H230125   6.160   3.708  14.080 -0.1432 -0.3135 -1.0660
 2904TIP3   OH230126   3.108   3.228  15.896  0.4931  0.1815 -0.8269
 2904TIP3    H130127   3.119   3.317  15.861  0.1907  0.2795 -0.6784
 2904TIP3    H230128   3.026   3.198  15.856 -0.5553  0.7802  0.7988
 2905TIP3   OH230129   6.367   2.121  14.905  0.3341 -0.2118  0.5809
 2905TIP3    H130130   6.421   2.068  14.846 -0.4191  0.0064 -0.3310
 2905TIP3    H230131   6.289   2.142  14.854 -1.8369 -2.5867  2.6325
 2906TIP3   OH230132   1.738   5.731  13.624 -0.1348  0.2055 -0.4054
 2906TIP3    H130133   1.820   5.699  13.587  0.5951 -0.2313  1.4504
 2906TIP3    H230134   1.764   5.775  13.705 -1.4612  2.6170 -1.1836
 2907TIP3   OH230135   2.282   0.527   3.870  0.2539  0.1115  0.0492
 2907TIP3    H130136   2.279   0.438   3.834  1.5082 -0.2505  0.7805
 2907TIP3    H230137   2.340   0.520   3.945  0.4557  1.5903  0.0528
 2908TIP3   OH230138   5.401   2.844  15.089  0.6538 -0.1310  0.2887
 2908TIP3    H130139   5.383   2.842  15.183 -2.6887 -2.0437 -0.2095
 2908TIP3    H230140   5.496   2.847  15.083  1.0641 -1.1378  3.7568
 2909TIP3   OH230141   0.537   5.962   2.170 -0.5417  0.1319  0.6839
 2909TIP3    H130142   0.510   6.032   2.229  0.5962  1.3039 -0.1334
 2909TIP3    H230143   0.633   5.961   2.176 -0.5104 -0.9500  0.2235
 2910TIP3   OH230144   1.083   1.577   1.515 -0.0089 -0.4797  0.0160
 2910TIP3    H130145   1.104   1.498   1.565  1.7665 -0.1939 -0.2380
 2910TIP3    H230146   1.122   1.648   1.566 -1.0515  0.1853 -0.0849
 2911TIP3   OH230147   1.818   6.385   0.730 -0.0500  0.3385 -0.2992
 2911TIP3    H130148   1.757   6.389   0.656 -1.8978  0.0500  1.1373
 2911TIP3    H230149   1.869   6.305   0.714 -1.1908 -0.3444 -0.7241
 2912TIP3   OH230150   2.128   6.644   3.367 -0.3967 -0.0951 -0.5343
 2912TIP3    H130151   2.094   6.615   3.282 -0.1115 -2.3560  0.0512
 2912TIP3    H230152   2.221   6.659   3.352  0.1792 -2.8164 -0.1819
 2913TIP3   OH230153   0.654   4.885  15.355  0.3959 -0.1838 -0.1708
 2913TIP3    H130154   0.590   4.931  15.410 -1.7387 -0.9517 -1.8722
 2913TIP3    H230155   0.612   4.801  15.335  0.7489  0.3047 -3.4502
 2914TIP3   OH230156   3.875   4.331   4.070 -0.3959 -0.1124 -0.0444
 2914TIP3    H130157   3.868   4.377   3.987  0.7138 -0.7342 -0.5060
 2914TIP3    H230158   3.967   4.305   4.076  0.0243  1.5791  2.2790
 2915TIP3   OH230159   5.946   3.728  11.921 -0.0795  0.0314  0.2123
 2915TIP3    H130160   5.883   3.758  11.856 -1.5826 -1.5934  0.8176
 2915TIP3    H230161   6.020   3.695  11.871  0.1000  1.5315 -0.5405
 2916TIP3   OH230162   0.393   4.841   0.595  0.3475 -0.0213  0.1456
 2916TIP3    H130163   0.330   4.770   0.608  0.1767  0.3914  1.7438
 2916TIP3    H230164   0.374   4.874   0.508  0.0493 -1.5513 -0.4092
 2917TIP3   OH230165   3.412   5.327   3.001  0.4233 -0.0444  0.4798
 2917TIP3    H130166   3.385   5.316   3.092  0.3223  3.8114  1.0897
 2917TIP3    H230167   3.330   5.343   2.954  0.6263 -0.4619 -0.0295
 2918TIP3   OH230168   4.730   6.734   0.799  0.1236  0.0627  0.4948
 2918TIP3    H130169   4.687   6.746   0.883 -0.8810  1.9205 -0.2345
 2918TIP3    H230170   4.664   6.757   0.734  1.1022 -0.6116 -0.7857
 2919TIP3   OH230171   4.586   5.606  15.155  0.6530  0.1390 -0.4593
 2919TIP3    H130172   4.555   5.588  15.066  2.0626 -1.2710 -0.7107
 2919TIP3    H230173   4.508   5.635  15.202 -0.5081 -0.8585 -1.6806
 2920TIP3   OH230174   0.913   2.834  16.286  0.4568  0.2479  0.2707
 2920TIP3    H130175   0.892   2.919  16.324  2.5531  0.9280  0.0590
 2920TIP3    H230176   0.828   2.793  16.270 -0.5710  1.7086  1.6734
 2921TIP3   OH230177   2.274   3.559   1.063 -0.7082 -0.5324  0.0972
 2921TIP3    H130178   2.189   3.561   1.108 -0.5470  1.2236  0.3681
 2921TIP3    H230179   2.251   3.551   0.970 -1.4700  3.9480 -0.3135
 2922TIP3   OH230180   4.267   6.554  12.376 -0.3921 -0.6750 -0.2270
 2922TIP3    H130181   4.258   6.599  12.292  1.2691 -0.3070 -0.2441
 2922TIP3    H230182   4.355   6.517  12.374 -0.3988 -0.8388  1.2742
 2923TIP3   OH230183   1.557   4.971   5.617 -0.1295  0.4712 -0.2468
 2923TIP3    H130184   1.578   5.053   5.661  0.3522  0.5460 -0.6016
 2923TIP3    H230185   1.567   4.903   5.684 -0.3468  0.6866 -0.0001
 2924TIP3   OH230186   1.725   3.645   2.327 -0.4773 -0.2726 -0.1226
 2924TIP3    H130187   1.759   3.567   2.283  3.3132  0.1719  1.5781
 2924TIP3    H230188   1.749   3.717   2.269  0.0460 -0.0700  0.3346
 2925TIP3   OH230189   3.222   4.275  10.550 -0.4791 -0.3531  0.2255
 2925TIP3    H130190   3.221   4.310  10.461 -2.4074  1.1050  0.7518
 2925TIP3    H230191   3.298   4.317  10.591 -2.1255  2.5937  0.5263
 2926TIP3   OH230192   2.289   0.138   0.146  0.1646 -0.6275 -0.1927
 2926TIP3    H130193   2.230   0.122   0.220 -0.2730  0.9040 -0.1704
 2926TIP3    H230194   2.231   0.160   0.073  0.6657  0.3295 -0.3233
 2927TIP3   OH230195   6.465   1.207   3.897 -0.9272 -0.3378 -0.1818
 2927TIP3    H130196   6.460   1.118   3.864 -0.8874 -0.8597  1.1644
 2927TIP3    H230197   6.391   1.215   3.957  0.4363 -0.2828  1.5581
 2928TIP3   OH230198   1.620   3.000  13.149  0.4843  0.2752  0.0248
 2928TIP3    H130199   1.581   3.034  13.069 -0.5950  1.0815  0.8594
 2928TIP3    H230200   1.648   3.078  13.197  0.2059 -0.1359  0.8793
 2929TIP3   OH230201   4.144   2.067  15.776 -0.3732  0.0393  0.7887
 2929TIP3    H130202   4.099   2.057  15.860 -1.2844 -1.1323  0.1890
 2929TIP3    H230203   4.216   2.005  15.780  0.5531  1.1127  1.3022
 2930TIP3   OH230204   3.014   0.573   2.792 -0.4306  0.6426 -0.7882
 2930TIP3    H130205   3.065   0.605   2.719  0.1341  3.0695  0.5786
 2930TIP3    H230206   3.066   0.593   2.869 -2.0137  0.2521  0.4487
 2931TIP3   OH230207   3.963   2.136  12.059 -0.2586  0.2885 -0.6243
 2931TIP3    H130208   3.889   2.157  12.116 -0.2230  1.6796 -1.0479
 2931TIP3    H230209   3.946   2.047  12.029 -0.7112 -0.1552  0.8727
 2932TIP3   OH230210   6.624   3.438  14.532 -0.2224 -0.7387  0.3650
 2932TIP3    H130211   6.646   3.412  14.622 -0.1724  0.4466  0.7079
 2932TIP3    H230212   6.535   3.403  14.518 -1.4285  1.4769  1.9209
 2933TIP3   OH230213   6.537   5.746   5.120 -0.2806 -0.3663 -0.4653
 2933TIP3    H130214   6.591   5.669   5.140  0.0550 -0.3647 -1.3172
 2933TIP3    H230215   6.593   5.821   5.143 -1.5376 -0.2860  2.9136
 2934TIP3   OH230216   0.405   5.966   5.381  0.3153  0.1068  0.3760
 2934TIP3    H130217   0.353   5.977   5.460 -0.5796 -0.2734 -0.1378
 2934TIP3    H230218   0.442   5.878   5.388 -1.3602 -0.7179 -0.4986
 2935TIP3   OH230219   4.820   0.635   2.341  1.2303 -0.1573 -0.4739
 2935TIP3    H130220   4.896   0.605   2.289 -0.6241 -1.3663 -2.6762
 2935TIP3    H230221   4.769   0.688   2.280 -0.5530 -0.7881  0.4093
 2936TIP3   OH230222   3.524   4.883  11.216 -0.4417  0.0683 -0.6623
 2936TIP3    H130223   3.605   4.836  11.196  0.8322  1.9659 -0.1903
 2936TIP3    H230224   3.455   4.818  11.204  1.2339 -1.9538  0.1220
 2937TIP3   OH230225   5.314   6.391  16.037  0.0169  0.1119  0.1216
 2937TIP3    H130226   5.356   6.328  15.979 -0.1176  1.6778 -1.7757
 2937TIP3    H230227   5.226   6.357  16.050 -1.4604  1.6767 -4.1227
 2938TIP3   OH230228   0.949   5.078   5.433  0.1321 -0.0863  0.0090
 2938TIP3    H130229   0.934   5.017   5.361 -0.4832 -0.7973  0.7159
 2938TIP3    H230230   1.033   5.052   5.470  1.9219  2.1187 -2.2073
 2939TIP3   OH230231   6.317   0.017  13.849 -0.0568  0.2903  0.3668
 2939TIP3    H130232   6.388   0.054  13.797 -0.3133 -0.7650 -0.7800
 2939TIP3    H230233   6.361  -0.019  13.926  0.6445 -0.1627 -0.2268
 2940TIP3   OH230234   6.397   4.695   6.038 -0.2924 -0.1051 -0.2727
 2940TIP3    H130235   6.350   4.629   6.088  2.2532  0.1370  2.7947
 2940TIP3    H230236   6.444   4.646   5.971 -0.7202 -1.0133  0.0836
 2941TIP3   OH230237   4.645   0.001   5.824 -0.1674 -0.0157  0.0516
 2941TIP3    H130238   4.718  -0.001   5.886  0.9277 -0.4172 -1.2036
 2941TIP3    H230239   4.577  -0.052   5.865  0.3448  0.1274  1.1199
 2942TIP3   OH230240   3.350   5.165  16.808 -0.2894 -0.1176 -0.4449
 2942TIP3    H130241   3.318   5.109  16.737  0.4899  0.9754 -1.7174
 2942TIP3    H230242   3.299   5.246  16.799 -1.1901 -0.4752  1.1748
 2943TIP3   OH230243   6.399   5.262  16.047 -0.3677  0.1618 -0.2579
 2943TIP3    H130244   6.479   5.279  15.998  0.0864  1.8934  0.9929
 2943TIP3    H230245   6.389   5.166  16.045  1.6688 -0.0793 -0.5050
 2944TIP3   OH230246   0.403   3.834  10.669  0.6423  0.1069 -0.0567
 2944TIP3    H130247   0.365   3.847  10.582  0.4516  0.9126  0.1391
 2944TIP3    H230248   0.331   3.800  10.722 -0.5525  3.6459  0.8812
 2945TIP3   OH230249   3.707   6.241   4.261  0.2128 -0.0207 -0.5826
 2945TIP3    H130250   3.711   6.310   4.327 -0.6883  0.1241 -0.6540
 2945TIP3    H230251   3.630   6.263   4.208  0.7313 -0.3093 -1.4837
 2946TIP3   OH230252   6.039   0.482  11.124 -0.4320  0.2370  0.1207
 2946TIP3    H130253   5.997   0.466  11.040  1.1384  1.2658 -0.9123
 2946TIP3    H230254   6.037   0.577  11.134 -0.5569  0.1318  1.2478
 2947TIP3   OH230255   3.192   2.182   5.193  0.4338  0.0469 -0.0618
 2947TIP3    H130256   3.184   2.168   5.099 -1.0299 -1.7879  0.2872
 2947TIP3    H230257   3.111   2.147   5.230  0.4904  1.7194  1.8039
 2948TIP3   OH230258   0.596   2.718   4.139  0.1331  0.3298 -0.5080
 2948TIP3    H130259   0.648   2.771   4.201 -1.3418  1.7631 -0.4280
 2948TIP3    H230260   0.553   2.653   4.194  0.6324  0.1228 -0.3573
 2949TIP3   OH230261   4.954   0.650  14.194 -0.3852  0.1918  0.0681
 2949TIP3    H130262   4.962   0.604  14.110  1.1913  0.1164  0.2394
 2949TIP3    H230263   4.869   0.622  14.229  0.1655 -1.9398 -0.2181
 2950TIP3   OH230264   0.162   0.146  11.665  0.0674 -0.9998 -0.0369
 2950TIP3    H130265   0.152   0.212  11.734 -0.2545 -0.0602 -0.9381
 2950TIP3    H230266   0.216   0.189  11.598  0.1465 -1.7802 -0.4893
 2951TIP3   OH230267   2.484   4.317   5.473 -0.5117 -0.4304  0.1273
 2951TIP3    H130268   2.553   4.300   5.538  1.6756  1.4219 -1.5768
 2951TIP3    H230269   2.453   4.230   5.449  1.3728 -1.3553  0.8194
 2952TIP3   OH230270   4.436   1.290  14.642 -0.2385 -0.3068 -0.4903
 2952TIP3    H130271   4.416   1.220  14.705  1.0201 -1.6430 -1.4984
 2952TIP3    H230272   4.414   1.253  14.557 -0.4058  0.8779 -0.9800
 2953TIP3   OH230273   1.140   4.954  13.996  0.0252  0.4166 -0.1148
 2953TIP3    H130274   1.116   4.875  14.043  1.1590  1.3470  2.1952
 2953TIP3    H230275   1.156   5.019  14.065 -1.4760  2.8792 -1.9072
 2954TIP3   OH230276   2.121   5.744  14.375 -0.2685 -0.1756 -0.4671
 2954TIP3    H130277   2.065   5.814  14.408  0.0548 -0.0480 -0.1913
 2954TIP3    H230278   2.061   5.685  14.330 -0.6075  0.0289 -0.2845
 2955TIP3   OH230279   3.649   3.475  11.914 -0.2228  0.1566  0.3644
 2955TIP3    H130280   3.652   3.459  11.819 -0.7803 -0.6097  0.4720
 2955TIP3    H230281   3.699   3.403  11.952  0.4153  0.7286  0.6385
 2956TIP3   OH230282   3.837   3.180  15.187 -0.0764  0.6235  0.6198
 2956TIP3    H130283   3.874   3.258  15.145 -0.1833  0.3983  0.0882
 2956TIP3    H230284   3.747   3.204  15.208 -1.5399 -0.5822 -3.2711
 2957TIP3   OH230285   0.412   3.768  16.142 -0.1863  0.3854  0.0016
 2957TIP3    H130286   0.462   3.691  16.114 -1.5632 -0.0460 -1.4382
 2957TIP3    H230287   0.476   3.839  16.142  1.3874 -0.9128  2.5029
 2958TIP3   OH230288   0.947   1.833   5.011  0.1313 -0.4415 -0.4063
 2958TIP3    H130289   0.875   1.773   5.030  0.1537 -0.5662 -0.7032
 2958TIP3    H230290   0.954   1.888   5.088  0.9889 -1.7069  0.4564
 2959TIP3   OH230291   3.764   5.173   1.847 -0.0551 -0.1513 -0.6469
 2959TIP3    H130292   3.669   5.168   1.859 -0.1510 -2.1169 -1.8914
 2959TIP3    H230293   3.792   5.084   1.829  1.9337  0.5032 -1.1268
 2960TIP3   OH230294   2.144   0.645  16.691  0.0238  0.0281  0.5832
 2960TIP3    H130295   2.200   0.649  16.613 -0.6458 -0.0375  0.0915
 2960TIP3    H230296   2.057   0.622  16.657 -0.4985  0.9601  1.2291
 2961TIP3   OH230297   1.484   3.765  14.766 -0.6021 -0.8759  0.3641
 2961TIP3    H130298   1.549   3.836  14.755 -1.2739 -0.2444  0.4116
 2961TIP3    H230299   1.489   3.716  14.684 -0.1350 -0.7727  0.3249
 2962TIP3   OH230300   1.978   3.586  11.520  0.0915  0.4063  1.1259
 2962TIP3    H130301   1.888   3.618  11.511 -0.6172 -1.5490  0.9579
 2962TIP3    H230302   1.970   3.491  11.528  2.2711 -0.0918 -1.2617
 2963TIP3   OH230303   3.082   0.197   3.558 -0.2551  0.1402 -0.5449
 2963TIP3    H130304   3.114   0.280   3.594 -1.8637  1.0210 -1.0706
 2963TIP3    H230305   3.084   0.209   3.463 -0.0974 -0.5893 -0.6382
 2964TIP3   OH230306   5.725   6.291  13.115  0.2357  0.9373  0.4483
 2964TIP3    H130307   5.706   6.202  13.143  2.9682  0.2037  0.2707
 2964TIP3    H230308   5.690   6.297  13.026  0.7456 -0.2423  0.1563
 2965TIP3   OH230309   6.679   2.166  15.992  0.2175  0.3882  0.0487
 2965TIP3    H130310   6.736   2.148  16.067 -0.5337 -1.7432  0.2001
 2965TIP3    H230311   6.739   2.181  15.919  0.9556  2.2619  0.9956
 2966TIP3   OH230312   5.644   2.330   1.277 -0.3971  0.0086 -0.0792
 2966TIP3    H130313   5.698   2.288   1.344 -1.5627  0.8238  1.4341
 2966TIP3    H230314   5.554   2.314   1.306 -0.8950  2.2474 -0.2598
 2967TIP3   OH230315   4.635   5.017   1.842 -0.0769  0.1834 -0.3881
 2967TIP3    H130316   4.619   5.070   1.920  0.4974 -0.0688 -0.0894
 2967TIP3    H230317   4.621   4.927   1.872  0.8080  0.0349 -0.3886
 2968TIP3   OH230318   2.556   0.651   1.433  0.3386 -0.1959 -0.1192
 2968TIP3    H130319   2.460   0.651   1.425  0.1843  1.6518  1.0330
 2968TIP3    H230320   2.574   0.589   1.504 -0.1925  0.6330  0.7816
 2969TIP3   OH230321   4.763   6.493   2.802 -0.4119  0.4245  0.2038
 2969TIP3    H130322   4.712   6.550   2.860 -1.6448  1.2554 -1.6179
 2969TIP3    H230323   4.830   6.550   2.765  0.1323 -0.0127  0.4996
 2970TIP3   OH230324   1.416   2.836  13.739  0.1590 -0.0334 -0.4406
 2970TIP3    H130325   1.379   2.911  13.784 -0.5423 -0.1149 -0.8710
 2970TIP3    H230326   1.365   2.761  13.770 -1.0299  0.0310 -2.0891
 2971TIP3   OH230327   1.919   1.164   4.501  0.1765 -0.3928  0.2304
 2971TIP3    H130328   1.892   1.221   4.429  1.6010  1.3060  0.9612
 2971TIP3    H230329   1.979   1.101   4.461  1.6853  1.1074  0.0134
 2972TIP3   OH230330   2.478   5.582   1.991  0.1913 -0.0283 -0.2075
 2972TIP3    H130331   2.517   5.659   1.949 -0.8869 -0.4651 -2.1042
 2972TIP3    H230332   2.529   5.508   1.958  1.6732 -0.1589  2.1433
 2973TIP3   OH230333   3.176   0.930  15.646  0.2480  0.8293 -0.5441
 2973TIP3    H130334   3.082   0.921  15.664 -0.1815 -3.5732 -3.6053
 2973TIP3    H230335   3.179   0.973  15.560  1.0136  0.3064 -0.7771
 2974TIP3   OH230336   5.772   0.833   0.197 -0.2126 -0.0724 -0.0452
 2974TIP3    H130337   5.760   0.799   0.108  0.3097 -0.6397  0.0945
 2974TIP3    H230338   5.852   0.790   0.229 -1.4550 -1.4125  1.4223
 2975TIP3   OH230339   6.237   0.944  11.820 -0.2690 -0.2651 -0.7417
 2975TIP3    H130340   6.232   1.033  11.855 -2.6020 -1.0193  1.1267
 2975TIP3    H230341   6.236   0.956  11.725 -1.4673  1.6921 -0.5465
 2976TIP3   OH230342   5.479   0.503   5.114 -0.3459 -0.2361 -0.4468
 2976TIP3    H130343   5.395   0.529   5.076 -0.4222  0.2668  0.0507
 2976TIP3    H230344   5.456   0.443   5.185 -0.3667  0.6825  0.3511
 2977TIP3   OH230345   1.824   6.345  14.828  0.1894  1.0441 -0.7580
 2977TIP3    H130346   1.772   6.330  14.749 -1.1811  2.0543 -0.1020
 2977TIP3    H230347   1.886   6.413  14.802  1.5061 -0.4514 -1.6631
 2978TIP3   OH230348   5.350   2.010   6.133 -0.7977  0.9979 -0.1244
 2978TIP3    H130349   5.407   2.066   6.079 -0.0635  0.9304  0.5603
 2978TIP3    H230350   5.410   1.955   6.182 -1.4730 -2.6300 -2.9595
 2979TIP3   OH230351   1.114   0.536  14.779 -0.0664  0.0144 -0.2465
 2979TIP3    H130352   1.111   0.442  14.759  1.4546  0.0493 -0.7840
 2979TIP3    H230353   1.138   0.539  14.872 -0.3685 -0.1206 -0.1606
 2980TIP3   OH230354   0.493   2.118  11.451  0.5345  0.0691 -0.0854
 2980TIP3    H130355   0.522   2.043  11.502 -1.3850 -0.0471  0.9411
 2980TIP3    H230356   0.463   2.081  11.368 -0.1241 -0.2704  0.3008
 2981TIP3   OH230357   2.931   4.556   1.829 -0.1711 -0.6574 -0.1406
 2981TIP3    H130358   2.930   4.643   1.870  0.2181 -1.5170  1.7955
 2981TIP3    H230359   2.854   4.512   1.866  0.6708 -1.7546  0.3391
 2982TIP3   OH230360   0.188   3.372   3.884 -0.6443 -0.2315 -0.3397
 2982TIP3    H130361   0.215   3.363   3.793  2.2727  0.6013  0.3445
 2982TIP3    H230362   0.201   3.285   3.921 -1.5269 -0.4897 -0.6049
 2983TIP3   OH230363   6.745   2.241   2.112  0.1495 -0.0302  0.1733
 2983TIP3    H130364   6.840   2.231   2.116  0.1477 -0.6215 -1.0086
 2983TIP3    H230365   6.711   2.153   2.123 -0.2493  0.1298  0.2349
 2984TIP3   OH230366   1.395   2.587  13.541  0.2055 -0.6808 -0.0115
 2984TIP3    H130367   1.432   2.583  13.629  0.0713 -2.3031  0.0095
 2984TIP3    H230368   1.393   2.680  13.520 -0.6249 -0.1612  2.0704
 2985TIP3   OH230369   0.623   0.258   4.422  0.1573  0.2528 -0.2985
 2985TIP3    H130370   0.715   0.277   4.442 -0.3838  1.0856  1.5846
 2985TIP3    H230371   0.606   0.175   4.467 -0.4065  0.8925  0.7089
 2986TIP3   OH230372   6.227   4.616   1.176 -0.3946  0.2238 -0.3939
 2986TIP3    H130373   6.157   4.664   1.219 -0.2763 -0.4902  0.6355
 2986TIP3    H230374   6.283   4.586   1.248 -0.9460 -2.2221 -0.8871
 2987TIP3   OH230375   1.496   3.709  11.268 -0.4272 -0.4403  0.2933
 2987TIP3    H130376   1.423   3.711  11.206  0.3352  0.7668 -0.6106
 2987TIP3    H230377   1.467   3.767  11.339 -0.3381  0.0936 -0.0970
 2988TIP3   OH230378   6.425   2.059   6.278  0.4787  0.2891  0.7583
 2988TIP3    H130379   6.471   2.125   6.331  3.6790 -1.4301  0.3455
 2988TIP3    H230380   6.440   1.977   6.323 -2.0252 -0.4628  0.3692
 2989TIP3   OH230381   2.656   0.227  12.195  0.4932  0.7585 -0.6476
 2989TIP3    H130382   2.679   0.292  12.261  1.6462 -0.5743  0.3277
 2989TIP3    H230383   2.561   0.215  12.205  0.5007  1.2762  0.0976
 2990TIP3   OH230384   2.814   1.286  13.677 -0.1665 -0.3193  0.7046
 2990TIP3    H130385   2.845   1.196  13.683  1.6648 -0.0265 -2.2097
 2990TIP3    H230386   2.720   1.280  13.692  0.0075 -2.6198  1.1821
 2991TIP3   OH230387   3.546   5.115  12.524 -0.2054  0.0440  0.2520
 2991TIP3    H130388   3.637   5.103  12.495  0.0849 -0.5660  1.3891
 2991TIP3    H230389   3.514   5.187  12.469  1.2996  1.0012  0.5509
 2992TIP3   OH230390   5.606   1.612  13.555  0.1540  0.2404 -0.6626
 2992TIP3    H130391   5.659   1.668  13.612 -1.0690 -0.8420  1.6477
 2992TIP3    H230392   5.583   1.537  13.610  0.1508 -1.6303 -3.0624
 2993TIP3   OH230393   5.257   4.934  12.200  0.7018  0.3017  0.0381
 2993TIP3    H130394   5.189   4.998  12.224  0.9970  1.1578 -1.2844
 2993TIP3    H230395   5.212   4.850  12.201  0.0993  0.6276  1.0438
 2994TIP3   OH230396   1.109   4.964  15.736 -0.0804 -0.0992 -0.1433
 2994TIP3    H130397   1.067   4.895  15.685  0.8091 -2.5022  2.1161
 2994TIP3    H230398   1.082   5.045  15.694 -2.1576 -1.7454 -2.2646
 2995TIP3   OH230399   5.165   6.617   5.298  0.3519  0.5018 -0.0190
 2995TIP3    H130400   5.196   6.547   5.356 -0.3243  0.0139 -0.2285
 2995TIP3    H230401   5.095   6.660   5.347  1.4188  1.6887  0.5111
 2996TIP3   OH230402   2.911   3.019  12.493  0.2495 -0.0873  1.0306
 2996TIP3    H130403   2.944   2.962  12.562  0.2386 -1.0051  0.2971
 2996TIP3    H230404   2.834   3.062  12.531 -0.3154 -1.2954  1.2875
 2997TIP3   OH230405   6.500   6.486   0.558 -0.3931  1.0149 -0.3373
 2997TIP3    H130406   6.409   6.495   0.529 -0.7949 -1.3172  0.0145
 2997TIP3    H230407   6.506   6.545   0.634 -1.3747  1.7822 -0.8333
 2998TIP3   OH230408   1.555   5.464  13.376  0.2109 -0.4706 -0.1383
 2998TIP3    H130409   1.498   5.541  13.370  0.0148 -0.6668 -1.0575
 2998TIP3    H230410   1.612   5.482  13.451 -1.7193 -0.7389  1.4491
 2999TIP3   OH230411   2.230   5.096   1.907 -0.3722  0.1677  0.4935
 2999TIP3    H130412   2.312   5.140   1.885 -0.0431 -0.5287  0.2861
 2999TIP3    H230413   2.187   5.082   1.822 -0.0203 -0.7689  0.4654
 3000TIP3   OH230414   4.124   1.053  15.432 -0.3167 -0.4888  0.5413
 3000TIP3    H130415   4.218   1.060  15.449 -0.1626  1.2873 -0.7427
 3000TIP3    H230416   4.095   1.143  15.418 -2.0231 -1.0859 -0.0257
 3001TIP3   OH230417   3.505   1.206  15.384 -0.2581  0.0456  0.0799
 3001TIP3    H130418   3.493   1.298  15.361  1.4272  0.5438  1.0209
 3001TIP3    H230419   3.584   1.180  15.335 -0.6962 -0.8983 -0.1439
 3002TIP3   OH230420   6.558   0.788  16.734  0.0742 -0.0742  0.0620
 3002TIP3    H130421   6.581   0.782  16.641 -0.3412  1.1914 -0.1316
 3002TIP3    H230422   6.629   0.839  16.773 -0.3475  0.3958  0.2191
 3003TIP3   OH230423   6.088   2.385  17.164 -0.5529  0.4565  0.3871
 3003TIP3    H130424   6.171   2.385  17.115 -0.7079 -2.1325 -0.0413
 3003TIP3    H230425   6.024   2.419  17.103 -0.0677  1.0114  0.1777
 3004TIP3   OH230426   1.509   0.055  12.623  0.2081 -0.1658  0.2560
 3004TIP3    H130427   1.545   0.003  12.551 -1.0014 -1.3157  0.4385
 3004TIP3    H230428   1.480  -0.011  12.686 -0.5189  0.7828  0.9275
 3005TIP3   OH230429   5.539   4.938   4.800 -0.3942  0.1309  0.4604
 3005TIP3    H130430   5.612   4.965   4.744  0.1838 -0.9347  0.6743
 3005TIP3    H230431   5.470   4.911   4.739 -0.5225  0.9057  0.2593
 3006TIP3   OH230432   2.811   6.359   5.945  0.2671  0.2027  0.5886
 3006TIP3    H130433   2.764   6.440   5.927  0.4805  0.0290 -0.8102
 3006TIP3    H230434   2.821   6.358   6.041 -0.7534  1.2397  0.7222
 3007TIP3   OH230435   3.801   2.870  12.228 -0.4604  0.0575 -0.5371
 3007TIP3    H130436   3.852   2.951  12.232 -0.2864 -0.0437 -0.6753
 3007TIP3    H230437   3.723   2.888  12.280  0.0427 -0.0180  0.2641
 3008TIP3   OH230438   5.630   0.738  11.319  0.5821  0.2590 -0.4634
 3008TIP3    H130439   5.667   0.808  11.373  0.9812  0.5563 -1.1056
 3008TIP3    H230440   5.641   0.769  11.229  0.8154 -0.6470 -0.7589
 3009TIP3   OH230441   6.630   4.053   1.511 -0.2637 -0.1056  0.9024
 3009TIP3    H130442   6.703   3.992   1.497  0.7932  1.0867  0.9900
 3009TIP3    H230443   6.614   4.091   1.425  0.8531  1.3636  1.2968
 3010TIP3   OH230444   2.159   4.342  15.096  0.7272 -0.2877  0.2419
 3010TIP3    H130445   2.176   4.253  15.129  1.5752 -0.3983 -0.4588
 3010TIP3    H230446   2.190   4.340  15.006  2.8244  1.3352  0.8382
 3011TIP3   OH230447   5.755   3.786   1.594  0.5742  0.0164 -0.5272
 3011TIP3    H130448   5.794   3.860   1.547  1.0664  0.5521  0.6638
 3011TIP3    H230449   5.829   3.732   1.619  0.4835  0.4454  0.7655
 3012TIP3   OH230450   1.267   6.342   2.919 -0.0260  0.0752 -0.2382
 3012TIP3    H130451   1.335   6.333   2.852 -0.7555 -1.3906 -0.8341
 3012TIP3    H230452   1.308   6.393   2.989  1.0742  0.7857 -1.3721
 3013TIP3   OH230453   4.912   5.272   3.906 -0.4066  0.1215  0.0807
 3013TIP3    H130454   4.910   5.315   3.820  1.1032  3.6712  1.5975
 3013TIP3    H230455   5.003   5.281   3.935 -0.7496 -1.4967  1.8479
 3014TIP3   OH230456   6.346   1.696   1.213  0.6807  0.3400  0.0843
 3014TIP3    H130457   6.362   1.758   1.285  2.3995 -0.3892  0.3812
 3014TIP3    H230458   6.358   1.610   1.252  0.2792 -0.1192 -0.7736
 3015TIP3   OH230459   6.083   2.846  15.125 -0.6736  0.3622 -0.1636
 3015TIP3    H130460   6.107   2.889  15.207  1.8738 -0.0794 -0.6025
 3015TIP3    H230461   6.001   2.801  15.145  0.2665 -0.3974  2.3944
 3016TIP3   OH230462   4.737   2.685  17.249 -0.7176  0.0775  0.2190
 3016TIP3    H130463   4.647   2.704  17.275 -0.4688  2.4431 -0.4551
 3016TIP3    H230464   4.785   2.675  17.331 -1.4556 -0.5426  0.5794
 3017TIP3   OH230465   3.833   2.558   4.417  0.2570 -0.2695 -0.7037
 3017TIP3    H130466   3.742   2.579   4.438  0.6951  1.6736 -0.6066
 3017TIP3    H230467   3.885   2.611   4.478  1.4692 -1.3309 -0.7611
 3018TIP3   OH230468   2.438   0.259   1.143 -0.2031  0.2753  0.3002
 3018TIP3    H130469   2.525   0.280   1.107 -0.3525  0.6151  0.1337
 3018TIP3    H230470   2.457   0.205   1.220  0.1740  0.7063  0.5169
 3019TIP3   OH230471   0.956   0.952  16.238 -0.4688  0.6798  0.0042
 3019TIP3    H130472   0.992   0.864  16.226 -3.6253 -0.3903 -3.7379
 3019TIP3    H230473   0.907   0.946  16.320 -0.7582 -1.1746 -0.2397
 3020TIP3   OH230474   1.769   4.951   5.359  0.3886 -0.0101 -0.4487
 3020TIP3    H130475   1.803   5.031   5.319  1.4685 -0.3294 -0.1933
 3020TIP3    H230476   1.720   4.981   5.436  0.8195  0.4055 -0.3354
 3021TIP3   OH230477   4.553   4.032  14.096  0.0047 -0.3327  0.0950
 3021TIP3    H130478   4.529   4.124  14.083 -0.3409 -0.2491  1.1831
 3021TIP3    H230479   4.552   4.021  14.191  0.2999 -1.3981 -0.0178
 3022TIP3   OH230480   6.569   4.593   1.859 -0.6496 -0.0929 -0.3346
 3022TIP3    H130481   6.622   4.672   1.859 -0.4725 -0.2134 -0.2578
 3022TIP3    H230482   6.484   4.622   1.824 -1.1824  0.5218  1.3961
 3023TIP3   OH230483   5.645   1.625  14.641  0.2563  0.1075 -0.3124
 3023TIP3    H130484   5.630   1.621  14.547  0.1984 -0.7537 -0.2815
 3023TIP3    H230485   5.736   1.651  14.651 -0.4640  3.0544 -0.5435
 3024TIP3   OH230486   3.290   5.737  14.674 -0.1044 -0.7209  0.6979
 3024TIP3    H130487   3.209   5.770  14.636 -0.0378 -0.6942  0.5800
 3024TIP3    H230488   3.278   5.748  14.769  0.9682  2.1436  0.5952
 3025TIP3   OH230489   1.396   5.086   1.514 -0.3242  0.5587 -0.5473
 3025TIP3    H130490   1.475   5.104   1.463 -1.0165 -2.4628 -3.0137
 3025TIP3    H230491   1.430   5.052   1.597  1.1615 -2.0063 -2.0561
 3026TIP3   OH230492   5.478   1.475  16.447  0.4278  0.1079  0.1787
 3026TIP3    H130493   5.416   1.462  16.375 -0.9622 -0.3113  1.4124
 3026TIP3    H230494   5.447   1.555  16.491  2.7873  1.9001 -1.1535
 3027TIP3   OH230495   2.326   1.653   3.226  0.3521  0.1413 -0.7462
 3027TIP3    H130496   2.381   1.618   3.156 -1.5894 -1.3360 -1.6312
 3027TIP3    H230497   2.312   1.579   3.285 -0.4891  0.5420 -0.4224
 3028TIP3   OH230498   0.823   3.808   0.816 -0.1069  0.3037 -0.5244
 3028TIP3    H130499   0.745   3.831   0.866  0.3681  1.0165 -0.0881
 3028TIP3    H230500   0.804   3.721   0.780 -1.1593  0.5321 -0.5653
 3029TIP3   OH230501   1.600   1.841   1.172 -0.6847  0.2905 -0.0852
 3029TIP3    H130502   1.624   1.893   1.248  0.4234  0.9086 -0.8185
 3029TIP3    H230503   1.658   1.765   1.175  0.5374  1.1288 -1.1531
 3030TIP3   OH230504   3.175   4.342   5.503  0.4535  0.0161 -0.2328
 3030TIP3    H130505   3.208   4.252   5.504  0.5016 -0.1239  3.9762
 3030TIP3    H230506   3.080   4.332   5.501  0.4613 -0.1059 -0.0223
 3031TIP3   OH230507   2.250   0.940   3.432  0.1916 -0.5261  0.4956
 3031TIP3    H130508   2.286   0.861   3.473 -0.7634 -1.4202 -0.3415
 3031TIP3    H230509   2.188   0.974   3.496  1.2574  0.0826  1.2404
 3032TIP3   OH230510   3.226   4.035  14.940  0.0401  0.5910  0.0071
 3032TIP3    H130511   3.180   4.066  15.017 -0.4526  0.2395 -0.1411
 3032TIP3    H230512   3.191   4.087  14.868 -0.9738 -0.4519 -0.2799
 3033TIP3   OH230513   6.591   2.199   2.489 -0.4994  0.3509 -0.1481
 3033TIP3    H130514   6.507   2.194   2.444  0.1173 -0.6761 -1.2248
 3033TIP3    H230515   6.590   2.126   2.551  1.1344 -2.2849 -2.9727
 3034TIP3   OH230516   1.230   6.537   3.940 -0.1039  0.5047 -0.5006
 3034TIP3    H130517   1.284   6.486   3.878 -0.1389  0.4452 -0.4819
 3034TIP3    H230518   1.167   6.474   3.974 -0.2491  0.5970 -0.5956
 3035TIP3   OH230519   4.041   2.310  16.388  0.0955  0.4297 -0.2121
 3035TIP3    H130520   4.070   2.362  16.464  1.3199  0.1072 -0.4390
 3035TIP3    H230521   3.956   2.274  16.415  0.3892  0.5275  0.9134
 3036TIP3   OH230522   4.510   5.626  17.104  0.5111  0.1176 -1.0486
 3036TIP3    H130523   4.553   5.708  17.128 -0.4625  0.3432  0.0485
 3036TIP3    H230524   4.476   5.641  17.016 -1.9709  1.9340  0.0986
 3037TIP3   OH230525   2.997   0.760  12.502 -0.1338  0.0989  0.3159
 3037TIP3    H130526   3.030   0.850  12.507 -0.0122  0.0454  0.4606
 3037TIP3    H230527   2.959   0.744  12.588 -1.8522  0.6689 -0.2969
 3038TIP3   OH230528   3.141   0.234  13.370 -0.5905 -0.7752  0.1729
 3038TIP3    H130529   3.232   0.209  13.353 -0.6852 -0.2731 -1.1384
 3038TIP3    H230530   3.091   0.193  13.300 -1.4657 -1.4692  1.1672
 3039TIP3   OH230531   6.595   5.230   1.712  0.4588 -0.2901  0.8438
 3039TIP3    H130532   6.501   5.215   1.706  0.4750 -0.2839  0.5248
 3039TIP3    H230533   6.618   5.272   1.629  0.8307 -0.7963  0.6834
 3040TIP3   OH230534   4.805   0.346  13.682  0.1469 -0.3191  0.3550
 3040TIP3    H130535   4.764   0.270  13.723  0.8189 -0.7930  0.1602
 3040TIP3    H230536   4.898   0.323  13.675 -0.0465 -0.6523 -2.2718
 3041TIP3   OH230537   6.663   3.599  12.554 -0.2525  0.0340 -0.6405
 3041TIP3    H130538   6.581   3.623  12.596 -0.3408  0.4758 -1.0603
 3041TIP3    H230539   6.643   3.601  12.460 -0.2927 -1.7520 -0.7118
 3042TIP3   OH230540   1.685   1.134  15.959  0.0771  0.1964  0.7426
 3042TIP3    H130541   1.629   1.076  16.010  0.1911 -1.3876 -0.8474
 3042TIP3    H230542   1.673   1.105  15.868  1.5056  1.5160  0.0861
 3043TIP3   OH230543   5.091   5.540   1.950 -0.1341 -0.3717  0.6633
 3043TIP3    H130544   5.157   5.546   2.019  0.0154 -0.4314  0.5258
 3043TIP3    H230545   5.050   5.626   1.948  2.1076  0.7783 -1.4158
 3044TIP3   OH230546   4.527   5.166  17.339 -0.0390 -0.5545 -0.2210
 3044TIP3    H130547   4.576   5.248  17.336 -1.0820  0.1599  1.0019
 3044TIP3    H230548   4.444   5.189  17.381  0.2083 -2.4983  1.5179
 3045TIP3   OH230549   2.443   2.671   6.461  0.6818 -0.0663  0.7832
 3045TIP3    H130550   2.514   2.669   6.396  0.2593  0.5486  0.2965
 3045TIP3    H230551   2.484   2.639   6.541  1.9931  1.8377  0.9497
 3046TIP3   OH230552   4.761   4.617   0.600  1.3898  0.1375  0.0141
 3046TIP3    H130553   4.855   4.598   0.603  1.7522  1.7660 -0.0841
 3046TIP3    H230554   4.752   4.685   0.534 -0.0978 -1.0591 -1.0949
 3047TIP3   OH230555   3.540   0.527  11.561 -0.1332  0.7178  0.5715
 3047TIP3    H130556   3.549   0.495  11.472 -1.3987  0.8769  0.3656
 3047TIP3    H230557   3.599   0.602  11.566 -2.3820  2.7717 -1.2039
 3048TIP3   OH230558   3.320   1.181   5.851 -0.4640 -0.5904  0.2416
 3048TIP3    H130559   3.231   1.146   5.856 -0.7928 -0.1224 -1.6578
 3048TIP3    H230560   3.317   1.244   5.780  1.4578 -0.7433 -0.0228
 3049TIP3   OH230561   4.787   3.657   0.584 -0.3813 -0.3194  0.0306
 3049TIP3    H130562   4.849   3.638   0.514  1.0567 -0.0081  1.1832
 3049TIP3    H230563   4.783   3.752   0.587 -1.7210 -0.3257 -0.6888
 3050TIP3   OH230564   1.904   4.795   1.025  0.3391  0.0269  0.0923
 3050TIP3    H130565   1.850   4.819   0.949  1.3829 -0.1297 -0.7127
 3050TIP3    H230566   1.842   4.755   1.086 -0.2447 -1.5185 -1.4270
 3051TIP3   OH230567   5.910   3.982  11.436 -0.4739  0.4676  0.3745
 3051TIP3    H130568   6.003   3.968  11.423 -0.2989  2.5891 -1.1743
 3051TIP3    H230569   5.869   3.902  11.404  0.7720 -0.2761  0.5819
 3052TIP3   OH230570   0.724   3.158   5.042  0.6350 -0.9107 -0.2761
 3052TIP3    H130571   0.715   3.077   4.992 -0.8053 -0.1931 -1.2426
 3052TIP3    H230572   0.647   3.161   5.098 -0.0546  0.4209 -1.2434
 3053TIP3   OH230573   0.454   2.093   5.064  0.3188 -0.0312  0.1698
 3053TIP3    H130574   0.365   2.078   5.033 -0.2434  1.6235  0.9069
 3053TIP3    H230575   0.464   2.188   5.066  1.5262 -0.1526  1.6786
 3054TIP3   OH230576   5.682   0.776   1.965  0.0179 -0.2297 -0.0564
 3054TIP3    H130577   5.689   0.681   1.953 -1.7971 -0.6217  1.4955
 3054TIP3    H230578   5.645   0.786   2.053 -0.9718  1.8811 -0.6542
 3055TIP3   OH230579   3.010   5.602  16.853 -0.0382  0.1106  0.2589
 3055TIP3    H130580   3.086   5.656  16.877 -0.5016  1.7381 -1.6784
 3055TIP3    H230581   3.047   5.517  16.830  1.0130  0.4080  0.7596
 3056TIP3   OH230582   5.594   0.074  15.803 -0.8983 -0.2092 -0.3722
 3056TIP3    H130583   5.630  -0.014  15.815 -0.5975 -0.4396 -2.4831
 3056TIP3    H230584   5.560   0.098  15.889  1.4620 -1.2422  0.9421
 3057TIP3   OH230585   4.436   5.087   3.528  0.3359  0.3091  0.0485
 3057TIP3    H130586   4.410   5.132   3.609  0.4659 -0.1811  0.3702
 3057TIP3    H230587   4.521   5.125   3.507  0.7161 -0.1892  0.6434
 3058TIP3   OH230588   4.931   6.331   2.983  0.4124 -0.6308  0.1673
 3058TIP3    H130589   5.014   6.355   2.943  0.3883 -0.3193  0.3029
 3058TIP3    H230590   4.865   6.376   2.930  0.2334 -1.9250 -0.7565
 3059TIP3   OH230591   2.151   0.806   5.419  0.5012  0.1053  0.0425
 3059TIP3    H130592   2.184   0.863   5.488 -0.6342 -1.3173  1.8545
 3059TIP3    H230593   2.064   0.780   5.450  1.0200 -2.6656 -0.6401
 3060TIP3   OH230594   6.448   2.080   4.622  0.2448  0.3048 -0.1374
 3060TIP3    H130595   6.424   2.044   4.708 -0.0436 -0.1154 -0.3858
 3060TIP3    H230596   6.366   2.079   4.572  0.4816  0.2138 -0.5298
 3061TIP3   OH230597   6.679   3.755   5.303  0.4504 -0.4916 -0.4449
 3061TIP3    H130598   6.710   3.803   5.380 -0.3851 -0.0672 -0.3575
 3061TIP3    H230599   6.584   3.757   5.311  0.3920 -2.7077 -0.1210
 3062TIP3   OH230600   2.659   0.204   4.794  0.8598  0.1023 -0.0705
 3062TIP3    H130601   2.566   0.183   4.796  0.7295  0.6538 -0.0599
 3062TIP3    H230602   2.702   0.128   4.832  0.6001 -1.1663 -2.1644
 3063TIP3   OH230603   6.623   0.394   4.676  0.2131  0.1197  0.1270
 3063TIP3    H130604   6.542   0.358   4.714 -0.1109  0.6864 -0.0211
 3063TIP3    H230605   6.598   0.481   4.645  1.0209  0.5060  0.5587
 3064TIP3   OH230606   4.306   4.816  13.958 -0.6095 -0.3560 -0.4317
 3064TIP3    H130607   4.320   4.837  13.865  0.4404 -0.8257 -0.3937
 3064TIP3    H230608   4.262   4.894  13.993  1.1078  0.8512 -0.8065
 3065TIP3   OH230609   1.982   4.381   1.521  0.5777 -0.2993 -0.7239
 3065TIP3    H130610   2.068   4.339   1.526 -0.5055 -2.9754 -2.4318
 3065TIP3    H230611   2.000   4.475   1.531  3.7295 -0.7183 -1.4994
 3066TIP3   OH230612   2.249   1.680  12.281  0.0178 -0.2246 -0.1728
 3066TIP3    H130613   2.284   1.594  12.258  2.0814  1.1493 -2.6609
 3066TIP3    H230614   2.154   1.668  12.281  0.2497 -2.4577 -0.5172
 3067TIP3   OH230615   4.265   1.715   0.041  0.3307  0.1230  0.2703
 3067TIP3    H130616   4.319   1.791   0.021  1.6971 -1.0905 -0.8798
 3067TIP3    H230617   4.178   1.738   0.008  0.3518  1.7230  1.2480
 3068TIP3   OH230618   4.955   4.969   5.590  0.3561  0.1368 -0.6198
 3068TIP3    H130619   4.984   5.005   5.674 -1.4185 -1.0220  0.5513
 3068TIP3    H230620   4.862   4.992   5.584  0.7467  1.5029 -3.0241
 3069TIP3   OH230621   4.604   0.640  15.565 -0.4374 -0.4495 -0.4443
 3069TIP3    H130622   4.560   0.560  15.535 -2.6891  0.9931 -1.1981
 3069TIP3    H230623   4.554   0.667  15.642  0.5308  0.0675  0.0149
 3070TIP3   OH230624   2.416   2.684  13.581 -0.5670  0.4727 -0.3228
 3070TIP3    H130625   2.365   2.728  13.514 -1.6502 -0.3906 -0.0981
 3070TIP3    H230626   2.381   2.594  13.582  1.6440 -0.4558 -0.8635
 3071TIP3   OH230627   1.288   4.760  15.725 -0.5656  0.3441  0.0429
 3071TIP3    H130628   1.235   4.823  15.774  0.6881  1.2569  0.2596
 3071TIP3    H230629   1.377   4.793  15.731 -0.2702  0.1554 -2.3424
 3072TIP3   OH230630   4.339   4.559   3.164 -0.0578 -0.2952  0.1883
 3072TIP3    H130631   4.338   4.654   3.179  0.0878 -0.4247  1.0890
 3072TIP3    H230632   4.428   4.532   3.186 -0.5837 -0.8945  1.7406
 3073TIP3   OH230633   4.779   2.505  12.640 -0.3000 -0.1758 -0.5069
 3073TIP3    H130634   4.738   2.419  12.628  0.7925 -0.6157 -1.1815
 3073TIP3    H230635   4.705   2.567  12.634 -0.7235 -0.7848 -3.6804
 3074TIP3   OH230636   1.218   2.496   2.420 -0.0072  0.0564  0.3236
 3074TIP3    H130637   1.219   2.590   2.438 -1.9325  0.0967  0.3470
 3074TIP3    H230638   1.297   2.481   2.367  0.1150  1.7486 -0.0214
 3075TIP3   OH230639   1.550   6.021   0.858  0.0464  0.3808 -0.3623
 3075TIP3    H130640   1.628   5.976   0.891 -1.1579 -1.8043 -0.2948
 3075TIP3    H230641   1.552   6.004   0.763  0.6074  1.9541 -0.6637
 3076TIP3   OH230642   5.981   3.663   6.075  0.2804  0.1368 -1.0141
 3076TIP3    H130643   5.904   3.610   6.097  1.5016 -1.3372 -0.1684
 3076TIP3    H230644   5.962   3.748   6.114 -0.4731 -0.5138  0.0970
 3077TIP3   OH230645   3.788   2.665  13.569  0.0955 -0.0166  1.0833
 3077TIP3    H130646   3.851   2.737  13.563  1.0107 -0.8533  0.1975
 3077TIP3    H230647   3.770   2.656  13.662  2.8124 -1.0128  1.5973
 3078TIP3   OH230648   0.203   5.758  15.090 -0.4713 -0.0566  0.2701
 3078TIP3    H130649   0.185   5.734  14.999 -0.9618 -0.9143  0.5871
 3078TIP3    H230650   0.125   5.732  15.138  0.1396 -0.4496  1.0851
 3079TIP3   OH230651   2.886   4.401  13.312 -0.5992 -0.5383 -0.8021
 3079TIP3    H130652   2.951   4.431  13.375  0.4240 -0.3818 -1.8832
 3079TIP3    H230653   2.849   4.321  13.350 -1.7228  0.8003  1.0618
 3080TIP3   OH230654   3.023   4.205  10.741  0.1389 -0.0096 -0.1186
 3080TIP3    H130655   3.088   4.234  10.677  0.7587  1.2626  1.0147
 3080TIP3    H230656   3.061   4.230  10.826 -1.7874  0.7116  0.5776
 3081TIP3   OH230657   5.822   2.338  12.859 -0.0669 -0.5663 -0.6133
 3081TIP3    H130658   5.819   2.394  12.781  0.4074  2.3204  1.2634
 3081TIP3    H230659   5.781   2.391  12.928 -0.4532 -2.9717  1.1229
 3082TIP3   OH230660   3.991   5.161   5.466  0.0295 -0.6323 -0.0172
 3082TIP3    H130661   3.957   5.197   5.385  2.0588  3.0085  0.5539
 3082TIP3    H230662   3.916   5.160   5.526 -0.2433  2.7538 -0.1369
 3083TIP3   OH230663   2.896   1.799   6.627 -0.2643 -0.1989 -0.2174
 3083TIP3    H130664   2.870   1.710   6.650  0.2216 -0.2960 -0.0416
 3083TIP3    H230665   2.821   1.853   6.651 -0.6489 -0.5846 -0.5297
 3084TIP3   OH230666   4.460   4.748   4.080  0.3592  0.7741  0.0171
 3084TIP3    H130667   4.406   4.825   4.098 -0.1663  0.3642  0.1863
 3084TIP3    H230668   4.535   4.783   4.031 -0.4581  1.2188 -0.9355
 3085TIP3   OH230669   3.968   0.149   2.923 -0.5664  0.7689 -0.3327
 3085TIP3    H130670   4.006   0.092   2.856 -0.5813  0.1205  0.1971
 3085TIP3    H230671   4.041   0.169   2.982 -0.5882  1.2034 -0.4528
 3086TIP3   OH230672   0.165   6.218  13.302 -0.2932  0.0520 -1.1779
 3086TIP3    H130673   0.099   6.165  13.258 -0.1413 -1.1018 -0.0625
 3086TIP3    H230674   0.125   6.305  13.309 -2.5357 -1.0242  1.1081
 3087TIP3   OH230675   1.400   5.741  13.916 -0.2835  0.0763  0.3066
 3087TIP3    H130676   1.328   5.703  13.867 -0.7361 -0.4816  1.3708
 3087TIP3    H230677   1.467   5.672  13.918 -0.6051 -0.2308  1.1653
 3088TIP3   OH230678   1.883   0.157  12.489  0.0187 -0.2617 -0.4516
 3088TIP3    H130679   1.870   0.231  12.548 -0.1033  1.0899 -2.1091
 3088TIP3    H230680   1.802   0.152  12.438  0.7309 -0.3387 -1.6197
 3089TIP3   OH230681   4.359   3.742  12.151 -0.7797 -0.3427 -0.3162
 3089TIP3    H130682   4.281   3.704  12.192 -0.9038  0.2081 -0.0334
 3089TIP3    H230683   4.330   3.767  12.063 -0.9131 -0.1668 -0.2227
 3090TIP3   OH230684   5.398   2.186   0.871  0.2651  0.0357 -0.1794
 3090TIP3    H130685   5.442   2.157   0.952 -0.3736  1.1161  0.5815
 3090TIP3    H230686   5.464   2.173   0.803  0.3831 -2.1354  0.2661
 3091TIP3   OH230687   1.589   0.588  14.386  0.0749 -0.2625  0.0032
 3091TIP3    H130688   1.596   0.594  14.481  0.5739 -0.4676 -0.0145
 3091TIP3    H230689   1.668   0.632  14.353 -0.1415 -0.1111 -0.3164
 3092TIP3   OH230690   6.572   5.481  14.339  0.3405  0.1696  0.1162
 3092TIP3    H130691   6.628   5.505  14.265  2.2086  2.5420  2.1026
 3092TIP3    H230692   6.515   5.557  14.351 -1.2992 -0.9807  0.0215
 3093TIP3   OH230693   2.815   5.865  14.955 -0.0123 -0.1272 -0.0167
 3093TIP3    H130694   2.820   5.787  15.010  1.3519  0.1150  0.2446
 3093TIP3    H230695   2.769   5.837  14.876 -0.8694 -0.8013  0.6954
 3094TIP3   OH230696   2.685   0.708  11.610 -0.4676  0.5214 -0.8135
 3094TIP3    H130697   2.591   0.710  11.628 -0.3240 -0.2487  0.0880
 3094TIP3    H230698   2.698   0.778  11.546 -1.4602  1.4835 -0.0194
 3095TIP3   OH230699   1.759   5.833  11.353 -0.0850 -0.2505  0.2755
 3095TIP3    H130700   1.673   5.810  11.318 -0.1012  0.8519 -0.4944
 3095TIP3    H230701   1.767   5.783  11.434 -1.2876 -0.6662  0.1592
 3096TIP3   OH230702   0.373   3.859  13.602 -0.0986 -0.1433 -0.6340
 3096TIP3    H130703   0.356   3.768  13.625 -0.7042 -0.1541 -1.1032
 3096TIP3    H230704   0.354   3.908  13.682  2.1043 -0.5855  0.2477
 3097TIP3   OH230705   1.630   5.573   2.725 -0.1461  0.7712  0.1830
 3097TIP3    H130706   1.673   5.492   2.754 -0.4543  0.4536 -0.2489
 3097TIP3    H230707   1.566   5.592   2.794  0.6430  1.2241  0.8124
 3098TIP3   OH230708   1.342   0.932   5.857 -0.1001 -0.5869 -0.2420
 3098TIP3    H130709   1.364   0.864   5.793  0.0268 -0.0035 -0.8334
 3098TIP3    H230710   1.247   0.923   5.869 -0.4623  0.4532 -1.9205
 3099TIP3   OH230711   2.620   3.027  12.933 -0.3993  0.1381 -0.1579
 3099TIP3    H130712   2.550   3.089  12.953 -0.0149  0.6252 -0.3261
 3099TIP3    H230713   2.611   2.959  13.000  0.8778  1.7568  1.7742
 3100TIP3   OH230714   2.464   3.699  13.654  0.0894 -0.3802  0.4644
 3100TIP3    H130715   2.534   3.738  13.602 -1.0009 -0.3826 -1.0494
 3100TIP3    H230716   2.468   3.746  13.738  1.7339 -0.2256  0.3331
 3101TIP3   OH230717   3.236   0.223   0.648  0.2118  0.2013  0.4337
 3101TIP3    H130718   3.326   0.247   0.669 -0.4772  1.9981  1.5579
 3101TIP3    H230719   3.192   0.216   0.733 -0.1671 -3.2761  0.0976
 3102TIP3   OH230720   1.912   0.596   0.532 -0.0148 -0.5797  0.4059
 3102TIP3    H130721   1.954   0.649   0.600 -1.0637  1.0034 -0.1167
 3102TIP3    H230722   1.957   0.512   0.536  2.2112  0.5313  0.8447
 3103TIP3   OH230723   0.358   4.357  17.183  0.4020  0.3165 -0.0844
 3103TIP3    H130724   0.326   4.431  17.132  2.1764  0.0233 -1.7687
 3103TIP3    H230725   0.334   4.280  17.130 -0.0247 -0.2026  0.8456
 3104TIP3   OH230726   5.015   3.311  11.345  0.5201  0.1024 -0.3615
 3104TIP3    H130727   5.058   3.380  11.394  0.2698  0.7847 -1.0802
 3104TIP3    H230728   5.023   3.338  11.253  0.8093 -1.0429 -0.6921
 3105TIP3   OH230729   0.101   3.047   5.264 -0.7087  0.2215  0.1391
 3105TIP3    H130730   0.141   3.126   5.301  1.9730 -1.4708  1.1342
 3105TIP3    H230731   0.166   3.014   5.202 -1.3900 -1.6569  0.3626
 3106TIP3   OH230732   4.078   5.418   0.169 -0.6939 -0.6906 -0.3424
 3106TIP3    H130733   4.001   5.418   0.225 -0.4294  0.9703  0.0991
 3106TIP3    H230734   4.099   5.511   0.158  0.8570 -1.0790 -0.9777
 3107TIP3   OH230735   0.945   0.090   4.417  0.2523  0.3517  0.5656
 3107TIP3    H130736   1.029   0.104   4.375 -0.5525  1.5612 -0.7307
 3107TIP3    H230737   0.888   0.055   4.348 -1.0676  2.2913  0.5772
 3108TIP3   OH230738   2.757   0.952  11.503  0.1001  0.3102 -1.1808
 3108TIP3    H130739   2.816   0.964  11.428  1.9223 -1.1251 -0.0734
 3108TIP3    H230740   2.802   0.995  11.576  1.1924 -3.0035  0.2726
 3109TIP3   OH230741   0.738   3.364   3.935  0.4375  0.7458 -0.5897
 3109TIP3    H130742   0.731   3.358   4.030  2.5638  0.6859 -0.3889
 3109TIP3    H230743   0.663   3.418   3.909 -1.7071 -1.3284  0.8008
 3110TIP3   OH230744   1.092   0.987  12.135  0.0083  0.2118  0.5634
 3110TIP3    H130745   1.070   0.996  12.228 -0.2917 -1.8155  0.7279
 3110TIP3    H230746   1.008   0.990  12.090  0.0488 -0.0219  0.4718
 3111TIP3   OH230747   3.587   5.584   5.591 -0.0234  0.0769 -0.1292
 3111TIP3    H130748   3.535   5.617   5.664  0.0639  0.5561 -0.2797
 3111TIP3    H230749   3.643   5.658   5.566 -0.4448  0.0965 -1.0475
 3112TIP3   OH230750   0.306   0.601  12.805  0.6078 -1.1260  0.0340
 3112TIP3    H130751   0.397   0.618  12.828  0.6472 -1.4609  0.1327
 3112TIP3    H230752   0.281   0.527  12.860 -0.0403 -0.3740  0.7841
 3113TIP3   OH230753   0.355   2.725   5.876 -0.0614 -0.4135  0.5595
 3113TIP3    H130754   0.331   2.666   5.948  0.5002  1.0691  2.0403
 3113TIP3    H230755   0.398   2.669   5.812 -2.3334 -2.1408  0.4247
 3114TIP3   OH230756   3.580   4.138   5.576  0.2122 -0.5415  0.0697
 3114TIP3    H130757   3.612   4.099   5.657 -0.4418  2.3077  1.8299
 3114TIP3    H230758   3.489   4.107   5.569 -0.7077  1.4165  2.1114
 3115TIP3   OH230759   5.758   5.210  13.464 -0.0769  0.0058 -0.2995
 3115TIP3    H130760   5.825   5.187  13.399  0.0150  0.7804 -0.4898
 3115TIP3    H230761   5.677   5.174  13.427  0.2065 -0.8729 -0.1040
 3116TIP3   OH230762   5.896   6.066  11.406 -0.1461 -0.5913  0.2679
 3116TIP3    H130763   5.865   6.145  11.450  0.7671  0.5736 -1.1061
 3116TIP3    H230764   5.832   5.998  11.431 -0.3377  0.2854  2.3477
 3117TIP3   OH230765   4.412   2.878  11.806  0.1506  0.6967 -0.5232
 3117TIP3    H130766   4.317   2.889  11.808 -0.2725 -1.8239 -1.9710
 3117TIP3    H230767   4.447   2.966  11.795 -1.9032  1.8405  1.3432
 3118TIP3   OH230768   5.603   3.163  14.004  0.4754 -0.1186  0.3720
 3118TIP3    H130769   5.667   3.235  14.008  0.4366 -0.0732  0.2055
 3118TIP3    H230770   5.568   3.157  14.093 -0.9118  1.3525 -0.0210
 3119TIP3   OH230771   1.456   5.081   4.842  0.6107  1.0048 -0.1576
 3119TIP3    H130772   1.386   5.101   4.779  0.1908  0.9060  0.2734
 3119TIP3    H230773   1.504   5.009   4.801  1.3368  1.9894 -1.1125
 3120TIP3   OH230774   1.784   5.936  13.852 -0.2177 -0.0963  0.2950
 3120TIP3    H130775   1.858   5.877  13.865 -1.9255 -3.1609 -2.5510
 3120TIP3    H230776   1.820   6.007  13.798  1.2341  0.0224  1.3506
 3121TIP3   OH230777   1.261   1.494  14.512 -0.4892 -0.0443  0.1659
 3121TIP3    H130778   1.329   1.448  14.464 -0.8889  2.1023 -2.7357
 3121TIP3    H230779   1.182   1.442  14.498 -0.0607 -1.0298  1.1775
 3122TIP3   OH230780   2.447   6.340   5.565 -0.1190  0.4174 -0.6874
 3122TIP3    H130781   2.532   6.318   5.525  0.6480 -0.1593  1.1720
 3122TIP3    H230782   2.461   6.329   5.659 -2.3567  0.0096 -0.3515
 3123TIP3   OH230783   3.513   6.008  10.487 -0.2053 -0.8165 -0.2536
 3123TIP3    H130784   3.422   5.990  10.508  0.2089 -2.6647  0.1523
 3123TIP3    H230785   3.526   6.099  10.514 -1.2857 -1.2690  2.0902
 3124TIP3   OH230786   1.179   5.888  15.396 -0.0277  0.2431 -0.3878
 3124TIP3    H130787   1.139   5.928  15.319  0.6008 -0.1567 -0.9369
 3124TIP3    H230788   1.192   5.961  15.457  0.6960  0.8121 -1.1923
 3125TIP3   OH230789   0.919   1.800   5.405  0.3483  0.2023  0.0642
 3125TIP3    H130790   0.831   1.788   5.372 -0.1141  1.3698  0.7831
 3125TIP3    H230791   0.942   1.890   5.381 -0.1265  1.2346  3.0061
 3126TIP3   OH230792   3.530   2.646   6.401 -0.1246 -0.5360  0.1178
 3126TIP3    H130793   3.524   2.741   6.398  1.1980 -0.4037  0.7608
 3126TIP3    H230794   3.460   2.615   6.344  0.8735  0.8463 -1.9933
 3127TIP3   OH230795   1.580   2.989   5.406  0.4835 -0.0442 -0.1596
 3127TIP3    H130796   1.589   2.894   5.410  1.7927 -0.1642 -3.1295
 3127TIP3    H230797   1.648   3.022   5.465 -0.2548 -0.8982  1.2157
 3128TIP3   OH230798   4.143   6.736   0.012  0.0338 -0.1677  0.0489
 3128TIP3    H130799   4.219   6.787  -0.015 -0.0817  0.1894  0.3771
 3128TIP3    H230800   4.157   6.650  -0.025 -0.9750  0.7368 -2.6308
 3129TIP3   OH230801   5.093   6.341  14.702 -0.1891 -0.5414 -0.1645
 3129TIP3    H130802   5.065   6.286  14.775 -2.4208 -1.2982 -1.4717
 3129TIP3    H230803   5.056   6.297  14.625  1.4631  0.6218 -1.6683
 3130TIP3   OH230804   5.103   2.523  17.097 -0.3499  0.2279  0.2310
 3130TIP3    H130805   5.169   2.590  17.116  0.6687 -0.8152  0.4478
 3130TIP3    H230806   5.043   2.565  17.036 -0.0306  1.5135  0.7628
 3131TIP3   OH230807   4.300   1.525  11.553 -0.0245  0.3543 -0.4693
 3131TIP3    H130808   4.340   1.504  11.637 -3.9432 -1.3903  1.2380
 3131TIP3    H230809   4.280   1.619  11.559 -0.3659  0.2258  0.6512
 3132TIP3   OH230810   2.652   1.218  10.715 -0.1724  0.1571 -0.1410
 3132TIP3    H130811   2.562   1.230  10.683 -0.2974  0.8346  0.4367
 3132TIP3    H230812   2.705   1.219  10.635 -0.6810 -0.3944 -0.5022
 3133TIP3   OH230813   0.944   4.415  16.354  0.0644  0.0105  0.1816
 3133TIP3    H130814   1.012   4.348  16.349 -1.1702 -1.2980 -0.1222
 3133TIP3    H230815   0.909   4.421  16.265  0.2415  1.1880  0.1756
 3134TIP3   OH230816   2.748   0.906  15.975 -0.2634  0.3043 -0.2831
 3134TIP3    H130817   2.734   0.865  16.061 -0.2462  1.2892  0.2050
 3134TIP3    H230818   2.670   0.961  15.962  0.0829  0.7286 -0.5648
 3135TIP3   OH230819   4.483   3.909  13.412 -0.3804  0.3544  0.1609
 3135TIP3    H130820   4.563   3.877  13.372 -0.2572  0.1930  0.5341
 3135TIP3    H230821   4.508   3.990  13.456 -0.4126  0.2771  0.3219
 3136TIP3   OH230822   2.452   6.129   3.396  0.0485 -1.0818 -0.0980
 3136TIP3    H130823   2.440   6.040   3.364  0.6648 -1.3535  0.4027
 3136TIP3    H230824   2.544   6.133   3.423  0.6138  0.3104 -1.9773
 3137TIP3   OH230825   6.437   4.175   6.043  0.5464 -0.4645 -0.0899
 3137TIP3    H130826   6.384   4.163   6.122  0.6889 -1.3799 -0.1244
 3137TIP3    H230827   6.456   4.086   6.013  1.2304 -0.1349 -0.6641
 3138TIP3   OH230828   3.007   1.141  11.976 -0.5114 -0.0435  0.0764
 3138TIP3    H130829   3.076   1.157  12.041 -0.6115 -0.0407  0.1809
 3138TIP3    H230830   3.026   1.204  11.906 -0.9557  0.6108  0.5271
 3139TIP3   OH230831   0.650   0.956   5.319 -0.7185  0.1940  0.3533
 3139TIP3    H130832   0.571   0.908   5.294 -0.4991  0.3879 -0.7726
 3139TIP3    H230833   0.637   0.977   5.411 -0.9561 -1.7459  0.8043
 3140TIP3   OH230834   6.587   0.723   5.768  0.3023  0.8021 -0.2001
 3140TIP3    H130835   6.626   0.667   5.835 -2.5355 -0.6594  0.3864
 3140TIP3    H230836   6.625   0.693   5.686 -0.0995 -1.0764  0.2533
 3141TIP3   OH230837   2.220   5.344  15.789 -0.0306  0.5130 -0.0092
 3141TIP3    H130838   2.251   5.426  15.826 -0.9149  1.0916 -0.5155
 3141TIP3    H230839   2.284   5.323  15.720  0.7879  0.2035  0.8343
 3142TIP3   OH230840   6.403   2.799  11.691 -0.5693  0.2802  0.0181
 3142TIP3    H130841   6.334   2.857  11.659 -0.6524  0.3840  0.3855
 3142TIP3    H230842   6.359   2.714  11.702 -0.6770  0.3817  0.3925
 3143TIP3   OH230843   5.779   3.828  17.164  0.6940 -0.5856  0.1547
 3143TIP3    H130844   5.731   3.880  17.100  1.3610  0.1179  0.2068
 3143TIP3    H230845   5.867   3.820  17.127  0.7555 -1.2109  0.4184
 3144TIP3   OH230846   5.765   5.144  12.626  0.4913 -0.2047  0.4174
 3144TIP3    H130847   5.807   5.121  12.710 -0.4942 -0.4537  0.8495
 3144TIP3    H230848   5.735   5.061  12.590  1.6028 -0.2035 -0.5902
 3145TIP3   OH230849   5.035   4.323  12.458  0.9362 -0.4451 -0.3353
 3145TIP3    H130850   5.004   4.411  12.435  0.9733 -0.2225  0.4087
 3145TIP3    H230851   4.993   4.265  12.395 -1.8684 -0.2724  1.1923
 3146TIP3   OH230852   3.554   1.023  17.224 -0.2376  0.4828  0.1337
 3146TIP3    H130853   3.489   1.093  17.231 -0.4979  0.2854 -0.2360
 3146TIP3    H230854   3.604   1.045  17.146  1.5645  1.7895  1.5755
 3147TIP3   OH230855   4.120   1.910  12.343  0.1462  0.2954  0.2535
 3147TIP3    H130856   4.039   1.886  12.388  1.4605 -0.5156  2.3614
 3147TIP3    H230857   4.168   1.964  12.407  1.0760  1.1475 -1.1086
 3148TIP3   OH230858   4.492   6.492   4.979 -0.0591 -0.6097 -0.2792
 3148TIP3    H130859   4.461   6.458   4.896  0.6443 -0.5642 -0.5655
 3148TIP3    H230860   4.529   6.578   4.959  1.2947 -1.1391 -0.1625
 3149TIP3   OH230861   1.990   6.008   4.505  0.7712 -0.0891  0.4899
 3149TIP3    H130862   2.002   6.051   4.420  2.2158 -0.0487  0.6875
 3149TIP3    H230863   1.912   5.954   4.494  0.0062  1.1253 -0.3572
 3150TIP3   OH230864   5.579   5.773  13.495  0.1029 -0.4399 -0.1093
 3150TIP3    H130865   5.664   5.731  13.504  0.7286  0.7707 -0.2255
 3150TIP3    H230866   5.521   5.721  13.551  0.7305 -1.7343 -0.6242
 3151TIP3   OH230867   6.048   1.986   2.753 -0.3413  0.5943 -0.1445
 3151TIP3    H130868   6.109   1.947   2.817 -1.0526 -0.6597 -0.1981
 3151TIP3    H230869   5.978   1.921   2.744 -1.2035  1.5866 -0.8082
 3152TIP3   OH230870   0.142   1.771  10.788  0.1529  0.0262 -0.0086
 3152TIP3    H130871   0.118   1.797  10.699  1.3672 -0.0719 -0.3825
 3152TIP3    H230872   0.153   1.676  10.783 -0.8229 -0.1259  0.5146
 3153TIP3   OH230873   1.236   5.718   1.271 -0.2483 -0.0789 -0.1602
 3153TIP3    H130874   1.154   5.749   1.232 -0.9420 -1.1282  0.3966
 3153TIP3    H230875   1.228   5.741   1.364  0.3730  0.3649 -0.2107
 3154TIP3   OH230876   3.033   2.165  13.174 -0.3136 -0.3847  0.4336
 3154TIP3    H130877   2.996   2.238  13.224 -0.4118 -0.6805  0.7981
 3154TIP3    H230878   3.127   2.181  13.174 -0.2637 -0.6451  1.1453
 3155TIP3   OH230879   3.325   6.585  11.691  0.2138  0.4203 -0.1114
 3155TIP3    H130880   3.371   6.520  11.743  2.0000  0.8168 -1.1037
 3155TIP3    H230881   3.329   6.665  11.743 -0.9712  0.0644  0.5861
 3156TIP3   OH230882   3.239   3.102  15.270  0.3470 -0.8217 -0.2331
 3156TIP3    H130883   3.156   3.109  15.222  0.2566  0.9824  0.1072
 3156TIP3    H230884   3.270   3.014  15.251  0.2073 -0.3123 -3.4458
 3157TIP3   OH230885   1.465   5.098   5.138 -0.5550  0.5250  0.6441
 3157TIP3    H130886   1.475   5.191   5.156 -1.0775  0.5095  1.0101
 3157TIP3    H230887   1.458   5.093   5.043  1.2350  0.6945  0.4687
 3158TIP3   OH230888   4.802   6.325  12.039  0.0946 -0.1021  0.4392
 3158TIP3    H130889   4.839   6.257  11.983 -0.1386 -0.4831  0.7469
 3158TIP3    H230890   4.814   6.406  11.989  0.3464 -0.3705  0.0605
 3159TIP3   OH230891   2.214   6.497  15.286  0.2854  0.4135 -0.6372
 3159TIP3    H130892   2.157   6.421  15.296  1.4316 -0.2136  1.8506
 3159TIP3    H230893   2.165   6.568  15.328  1.4770 -0.2781  2.1394
 3160TIP3   OH230894   4.274   6.107  12.160  0.0840  0.0887 -0.2630
 3160TIP3    H130895   4.321   6.028  12.135  2.2000  1.1374  0.1929
 3160TIP3    H230896   4.292   6.170  12.091 -0.7934  0.4863 -0.1488
 3161TIP3   OH230897   0.612   6.558   2.508 -0.0856  0.1686 -0.1056
 3161TIP3    H130898   0.600   6.463   2.500 -2.4686  0.5273 -1.8236
 3161TIP3    H230899   0.700   6.574   2.474 -0.0024 -1.3405 -0.6715
 3162TIP3   OH230900   2.659   3.314   4.991 -0.2609  0.0105  0.5023
 3162TIP3    H130901   2.624   3.295   5.078 -0.0524 -0.7081  0.4334
 3162TIP3    H230902   2.583   3.338   4.939 -0.4875 -0.3332  0.6760
 3163TIP3   OH230903   6.322   2.259   2.817 -0.4007 -0.4701 -0.3674
 3163TIP3    H130904   6.358   2.337   2.775  0.8389 -1.2056 -0.7496
 3163TIP3    H230905   6.231   2.256   2.790 -0.5399  0.9765 -0.1301
 3164TIP3   OH230906   4.506   5.345  16.639 -0.6594 -0.1533 -0.0525
 3164TIP3    H130907   4.462   5.272  16.596  0.4894 -0.3670 -0.9032
 3164TIP3    H230908   4.496   5.418  16.578 -2.3705  0.6177  1.0839
 3165TIP3   OH230909   5.716   0.586  15.359  0.6688  0.1193 -0.5735
 3165TIP3    H130910   5.637   0.600  15.410  0.5355  0.3141 -0.8312
 3165TIP3    H230911   5.779   0.548  15.421 -0.0074 -1.1801 -0.6506
 3166TIP3   OH230912   5.288   3.869  14.087 -0.4821  0.4196  0.2961
 3166TIP3    H130913   5.252   3.958  14.093  1.9909  1.5271  0.2475
 3166TIP3    H230914   5.212   3.813  14.074 -2.0703  2.6374 -0.7142
 3167TIP3   OH230915   4.208   2.891   3.752  0.4134  0.6064  0.0599
 3167TIP3    H130916   4.250   2.930   3.676 -0.2326  1.4304  0.1104
 3167TIP3    H230917   4.268   2.910   3.825 -0.3325  2.4333  0.2660
 3168TIP3   OH230918   5.852   5.656   2.354 -0.1668  0.2330 -0.2138
 3168TIP3    H130919   5.810   5.628   2.273 -0.5483 -0.6967  0.2921
 3168TIP3    H230920   5.834   5.585   2.416 -1.5690  1.7922  1.2612
 3169TIP3   OH230921   2.108   3.760   1.781 -0.2205 -0.0383 -0.1686
 3169TIP3    H130922   2.159   3.819   1.725 -1.4057  0.7321 -0.4606
 3169TIP3    H230923   2.040   3.815   1.818  0.2427 -0.6362  1.6820
 3170TIP3   OH230924   0.488   5.481  17.062 -0.7755 -0.1062  0.4862
 3170TIP3    H130925   0.407   5.470  17.113 -0.3614 -0.3560  1.1003
 3170TIP3    H230926   0.510   5.573  17.071 -0.1605 -0.3481  1.6057
 3171TIP3   OH230927   2.128   5.653   2.994  0.4274  0.1770 -0.3454
 3171TIP3    H130928   2.107   5.746   2.994  0.5946  0.2140 -0.3014
 3171TIP3    H230929   2.055   5.612   2.947 -0.6107  0.1049  1.2616
 3172TIP3   OH230930   1.809   6.150  16.208 -0.0785  0.0429 -0.3377
 3172TIP3    H130931   1.749   6.203  16.154  0.0620  0.8060  0.2422
 3172TIP3    H230932   1.806   6.191  16.294  1.5822  0.3555 -0.3881
 3173TIP3   OH230933   3.904   2.228   4.447 -0.1290  0.4201 -0.2205
 3173TIP3    H130934   3.944   2.142   4.453 -2.0753 -0.4322  1.8900
 3173TIP3    H230935   3.960   2.284   4.501  0.7962  0.3932 -1.1083
 3174TIP3   OH230936   1.134   6.599  15.571  0.0265  0.2638  0.4362
 3174TIP3    H130937   1.042   6.583  15.591 -0.3694  1.9428  0.1048
 3174TIP3    H230938   1.178   6.595  15.656 -0.3709 -0.3797  0.6152
 3175TIP3   OH230939   2.041   2.396   4.971 -0.3312  0.2856  0.2112
 3175TIP3    H130940   1.946   2.390   4.979 -0.4900 -0.6184 -1.6541
 3175TIP3    H230941   2.055   2.433   4.883  1.0208 -0.3825  0.1225
 3176TIP3   OH230942   2.035   5.362  11.191 -0.4134  0.9063  0.6599
 3176TIP3    H130943   2.028   5.307  11.113 -0.1103 -0.6007  1.6620
 3176TIP3    H230944   1.949   5.403  11.200  0.0231  2.3995 -1.3590
 3177TIP3   OH230945   2.504   2.497  16.977 -0.3353 -0.3112 -0.2956
 3177TIP3    H130946   2.596   2.506  17.002 -1.0481  0.9885  2.0947
 3177TIP3    H230947   2.496   2.405  16.950  1.2493 -0.9695  1.2870
 3178TIP3   OH230948   6.458   1.143  14.971 -0.3086 -0.0702 -0.3312
 3178TIP3    H130949   6.420   1.228  14.994  0.5463  0.3067 -0.2475
 3178TIP3    H230950   6.392   1.079  14.996 -1.9424  0.6654 -2.4262
 3179TIP3   OH230951   0.504   5.556  12.139  0.2918 -0.4988 -0.3114
 3179TIP3    H130952   0.515   5.569  12.234 -0.7579  0.3239 -0.2878
 3179TIP3    H230953   0.415   5.587  12.121  0.2614 -1.2189 -1.4726
 3180TIP3   OH230954   0.039   5.332   3.910  0.4990  0.5230  0.5705
 3180TIP3    H130955   0.040   5.410   3.965 -0.1122  0.3751  0.8050
 3180TIP3    H230956  -0.009   5.267   3.962 -0.9231  0.6557 -0.5086
 3181TIP3   OH230957   4.368   2.209  16.712 -0.0890 -0.0429 -0.0009
 3181TIP3    H130958   4.351   2.274  16.780  1.8320 -0.5421  1.0511
 3181TIP3    H230959   4.361   2.125  16.757  0.6126 -0.4050 -0.5454
 3182TIP3   OH230960   0.485   0.602   0.572  0.1279 -0.0867  0.4865
 3182TIP3    H130961   0.537   0.606   0.492 -0.2014 -1.0144  0.2174
 3182TIP3    H230962   0.402   0.562   0.545  0.1564 -0.7664  1.3576
 3183TIP3   OH230963   4.008   2.790  14.061 -0.2219  0.2654 -0.0533
 3183TIP3    H130964   4.051   2.820  13.981 -0.5111 -0.4973 -0.4977
 3183TIP3    H230965   3.937   2.734  14.032  0.6386 -1.3245  0.7566
 3184TIP3   OH230966   5.758   2.781   1.796  0.0789  0.5012  0.0103
 3184TIP3    H130967   5.666   2.793   1.823 -0.2011 -0.6540 -0.3658
 3184TIP3    H230968   5.755   2.707   1.735  0.8656  2.2671 -2.3038
 3185TIP3   OH230969   1.681   4.981  16.541 -0.2139  0.1649 -0.1095
 3185TIP3    H130970   1.688   4.990  16.446 -2.7154 -0.2272 -0.4007
 3185TIP3    H230971   1.661   5.069  16.572  0.0550  0.1859  0.0114
 3186TIP3   OH230972   5.227   5.587   2.182  0.2789  0.6916  0.7484
 3186TIP3    H130973   5.190   5.508   2.220  1.0858 -0.9185 -1.5958
 3186TIP3    H230974   5.318   5.588   2.213 -0.0681  1.4015  1.7682
 3187TIP3   OH230975   1.948   0.961  14.198 -0.0798  0.0205 -0.2883
 3187TIP3    H130976   1.901   1.036  14.161 -0.2090 -0.1058 -0.3797
 3187TIP3    H230977   1.885   0.920  14.257 -0.4114 -0.7149 -1.1391
 3188TIP3   OH230978   2.718   3.249  12.420  0.0530  0.3340  0.4820
 3188TIP3    H130979   2.710   3.317  12.354  1.5110  1.2858  1.2322
 3188TIP3    H230980   2.643   3.263  12.478  0.3832  1.3941  0.6824
 3189TIP3   OH230981   6.519   1.390   2.065  0.2275  0.0117 -0.4017
 3189TIP3    H130982   6.425   1.380   2.080 -0.1368  0.8986 -1.8887
 3189TIP3    H230983   6.559   1.318   2.115 -1.2279 -0.4321  0.1876
 3190TIP3   OH230984   3.060   3.598   3.761  0.2300 -0.0913  0.5196
 3190TIP3    H130985   3.092   3.685   3.784  1.7917 -0.7158  0.8001
 3190TIP3    H230986   3.086   3.542   3.834  1.7688 -1.3314 -0.8929
 3191TIP3   OH230987   4.974   3.245   2.607  0.3725 -0.2293  0.1657
 3191TIP3    H130988   4.994   3.161   2.565  0.9320  0.0261 -0.0985
 3191TIP3    H230989   5.048   3.302   2.583 -1.0033  0.9801 -1.4580
 3192TIP3   OH230990   0.586   3.952   2.857  0.4301  0.5032  0.4506
 3192TIP3    H130991   0.585   3.985   2.947  1.0507 -1.6968  1.3358
 3192TIP3    H230992   0.505   3.902   2.850 -0.3665  1.8881 -0.7694
 3193TIP3   OH230993   0.750   0.584  13.144 -0.2876 -0.5966  0.5229
 3193TIP3    H130994   0.744   0.614  13.235  0.0898  1.6087 -0.1248
 3193TIP3    H230995   0.838   0.608  13.116 -0.5426 -0.8598 -0.5626
 3194TIP3   OH230996   0.501   2.306   0.327 -0.2019  0.3912  0.0628
 3194TIP3    H130997   0.434   2.265   0.273 -0.8298  0.3213  0.8789
 3194TIP3    H230998   0.471   2.397   0.337 -0.3338  0.2838  0.6718
 3195TIP3   OH230999   5.263   5.161  16.294 -0.0038  0.1811  0.3045
 3195TIP3    H131000   5.331   5.211  16.248 -0.1630  1.1757  1.1060
 3195TIP3    H231001   5.268   5.192  16.385 -2.6469  1.6148  0.0888
 3196TIP3   OH231002   1.274   1.048  14.339 -0.1559  0.5630 -0.8237
 3196TIP3    H131003   1.242   0.964  14.307 -2.1731  1.2414 -0.6919
 3196TIP3    H231004   1.244   1.053  14.430 -0.3968  1.5717 -0.9388
 3197TIP3   OH231005   0.784   2.870  11.172 -0.0803 -0.7853  0.1238
 3197TIP3    H131006   0.823   2.823  11.245  1.7359 -0.3156 -0.5057
 3197TIP3    H231007   0.750   2.800  11.115 -0.8520 -1.1688  1.0203
 3198TIP3   OH231008   6.739   6.678   3.783  0.5658  0.2741 -0.4876
 3198TIP3    H131009   6.791   6.716   3.853  1.6439 -1.1859 -0.4426
 3198TIP3    H231010   6.802   6.660   3.713 -0.0810 -0.4416 -0.9076
 3199TIP3   OH231011   3.539   2.111   0.089  0.8324  0.4052  0.3209
 3199TIP3    H131012   3.558   2.198   0.124  0.1304  0.4944  0.4946
 3199TIP3    H231013   3.450   2.093   0.118  0.3266  0.3681 -1.1994
 3200TIP3   OH231014   1.318   0.719  15.914  0.0140 -0.4575 -0.6627
 3200TIP3    H131015   1.240   0.674  15.882 -0.9762  0.9707 -0.3699
 3200TIP3    H231016   1.321   0.800  15.864 -0.2677  0.7597  1.2032
 3201TIP3   OH231017   5.803   3.308  16.441 -0.4839 -0.5215  0.3543
 3201TIP3    H131018   5.721   3.284  16.399 -0.1032  0.5050 -1.0415
 3201TIP3    H231019   5.780   3.379  16.502 -0.4556  0.7396 -1.0558
 3202TIP3   OH231020   4.132   3.973   0.703 -0.4657 -0.0426  0.4717
 3202TIP3    H131021   4.038   3.983   0.692 -0.8796 -0.5764  2.8509
 3202TIP3    H231022   4.161   4.055   0.743  0.0980  0.1491 -0.3181
 3203TIP3   OH231023   3.343   2.767   6.004 -0.6188  0.2721 -0.5549
 3203TIP3    H131024   3.335   2.793   6.096  0.5570 -2.1660  0.3154
 3203TIP3    H231025   3.424   2.808   5.975  0.4810 -1.1987  0.3659
 3204TIP3   OH231026   2.472   0.735  17.293  0.3048  0.0732  0.0416
 3204TIP3    H131027   2.430   0.790  17.226  0.5961  0.2068 -0.0348
 3204TIP3    H231028   2.562   0.725  17.261  0.0910 -0.9529 -0.2533
 3205TIP3   OH231029   3.082   1.545  14.879  0.1735  0.8259  0.2107
 3205TIP3    H131030   3.099   1.455  14.849  0.1070  0.1764  2.0350
 3205TIP3    H231031   3.158   1.595  14.848  0.7363 -0.0722  0.0990
 3206TIP3   OH231032   5.694   5.444   3.662 -0.5608 -0.2512  0.1940
 3206TIP3    H131033   5.666   5.528   3.625 -1.7332 -0.0951  1.3677
 3206TIP3    H231034   5.777   5.463   3.705  1.3201 -0.6148 -2.9364
 3207TIP3   OH231035   2.730   0.318   2.200 -0.4484 -0.0853  0.4221
 3207TIP3    H131036   2.813   0.328   2.248  0.0601 -1.3859 -0.1620
 3207TIP3    H231037   2.667   0.368   2.252  0.9182  1.9849  0.2436
 3208TIP3   OH231038   5.275   6.026   0.581 -0.1655  0.5576  0.5859
 3208TIP3    H131039   5.318   5.993   0.502 -0.8117 -0.6756  0.7219
 3208TIP3    H231040   5.183   6.002   0.570 -0.4013  1.0585  1.3654
 3209TIP3   OH231041   0.041   1.439  15.824  0.0154  0.0497 -0.0885
 3209TIP3    H131042   0.051   1.376  15.753 -1.6735 -0.8121  0.3574
 3209TIP3    H231043  -0.005   1.513  15.785 -0.0944 -0.0281 -0.1083
 3210TIP3   OH231044   3.489   4.805  12.701  0.3903  0.3772 -0.0650
 3210TIP3    H131045   3.542   4.875  12.739  2.9380 -1.1071 -0.6206
 3210TIP3    H231046   3.473   4.832  12.611 -0.3179  1.0811  0.2585
 3211TIP3   OH231047   6.231   3.255  13.397  0.4694  0.3567  0.1933
 3211TIP3    H131048   6.324   3.236  13.386  0.5594 -1.6209  3.0627
 3211TIP3    H231049   6.190   3.226  13.316  2.4124  2.3766 -1.6158
 3212TIP3   OH231050   0.382   0.261  17.300  0.0205  0.0561  0.1912
 3212TIP3    H131051   0.297   0.260  17.256  0.2650 -0.6696 -0.2874
 3212TIP3    H231052   0.436   0.199  17.250  0.6838  0.1430  0.7763
 3213TIP3   OH231053   2.826   4.030   4.058 -0.3529  0.1340 -0.2757
 3213TIP3    H131054   2.756   4.095   4.062 -0.1041  0.4303 -0.6681
 3213TIP3    H231055   2.816   3.990   3.971 -1.1190 -1.0544  0.3251
 3214TIP3   OH231056   0.959   4.703   5.581 -0.2848  0.0069 -0.1598
 3214TIP3    H131057   0.942   4.609   5.590 -0.4152  0.0518  0.0728
 3214TIP3    H231058   0.936   4.723   5.490 -0.0441 -0.2292 -0.2726
 3215TIP3   OH231059   3.287   4.949  15.074  0.1536  0.2622  0.2772
 3215TIP3    H131060   3.307   4.859  15.048  1.3512  0.2986  1.0113
 3215TIP3    H231061   3.345   4.966  15.149 -0.6955  1.3411  0.7169
 3216TIP3   OH231062   5.304   3.807   1.565  0.5105  0.4387  0.2791
 3216TIP3    H131063   5.221   3.761   1.568  0.0741  1.2246  0.6860
 3216TIP3    H231064   5.355   3.762   1.498 -1.1595  1.4494 -1.7577
 3217TIP3   OH231065   3.224   1.803  12.422  0.1288 -0.1722 -0.3166
 3217TIP3    H131066   3.266   1.875  12.375 -1.0288  1.6105  1.2226
 3217TIP3    H231067   3.251   1.815  12.513  0.8869 -2.4638 -0.1911
 3218TIP3   OH231068   3.533   1.898  13.923 -0.9426  0.1759 -0.0271
 3218TIP3    H131069   3.577   1.827  13.876 -2.4490 -0.4478 -0.5298
 3218TIP3    H231070   3.543   1.875  14.015 -0.8953 -0.3722 -0.1681
 3219TIP3   OH231071   1.469   3.249  14.931  0.6305 -0.1822  0.2156
 3219TIP3    H131072   1.457   3.234  15.025 -0.4259 -0.5734  0.0250
 3219TIP3    H231073   1.384   3.229  14.892  0.9495  0.3551 -0.7863
 3220TIP3   OH231074   2.297   0.235  14.018  0.2759  0.2390  0.0879
 3220TIP3    H131075   2.336   0.319  14.042  0.3055  0.8482 -1.9263
 3220TIP3    H231076   2.357   0.170  14.054  0.2421  1.0520  1.6925
 3221TIP3   OH231077   6.146   0.292  16.511 -0.4470 -0.2932 -0.1647
 3221TIP3    H131078   6.136   0.361  16.577 -0.5302  0.9850 -1.4602
 3221TIP3    H231079   6.238   0.267  16.517 -0.7332 -1.0886  1.2620
 3222TIP3   OH231080   5.452   1.105   3.509  0.5320  0.7110 -0.2068
 3222TIP3    H131081   5.515   1.173   3.534  0.7215  0.1549  0.9031
 3222TIP3    H231082   5.453   1.105   3.413 -0.0788  2.8156 -0.2584
 3223TIP3   OH231083   0.430   5.832   4.179 -0.4287  0.2272 -0.0636
 3223TIP3    H131084   0.503   5.893   4.186 -0.7299  0.5146  0.6038
 3223TIP3    H231085   0.434   5.780   4.259 -0.7810  0.0533 -0.1552
 3224TIP3   OH231086   0.340   3.024  14.820  0.0825  0.4485  0.1201
 3224TIP3    H131087   0.413   2.982  14.866 -1.1503 -0.1985  1.5710
 3224TIP3    H231088   0.376   3.107  14.789  1.3138  0.3704  1.2287
 3225TIP3   OH231089   4.267   0.652  15.240  0.8548 -0.2410  0.0164
 3225TIP3    H131090   4.204   0.636  15.311  1.0191 -1.3755 -0.0829
 3225TIP3    H231091   4.225   0.720  15.187  0.3810  0.0768  0.7689
 3226TIP3   OH231092   1.165   0.324  13.734  0.1678 -0.0526 -0.0056
 3226TIP3    H131093   1.189   0.330  13.641  0.9386 -0.8669  0.1231
 3226TIP3    H231094   1.246   0.301  13.778 -0.5679 -1.6223  0.6161
 3227TIP3   OH231095   4.167   6.629   5.992  0.4573  0.4685 -0.5763
 3227TIP3    H131096   4.212   6.546   5.975  0.0764  0.1000  0.1840
 3227TIP3    H231097   4.232   6.696   5.969  1.4462 -0.0474  0.5749
 3228TIP3   OH231098   6.686   4.562   5.280  0.1478  0.4150  0.0367
 3228TIP3    H131099   6.599   4.536   5.249  0.2427  0.6426 -0.4245
 3228TIP3    H231100   6.711   4.493   5.341 -0.2116  0.1703 -0.0895
 3229TIP3   OH231101   4.076   5.819   4.722 -0.4739  0.5407  0.8708
 3229TIP3    H131102   4.129   5.897   4.706 -0.1822  0.3549  0.9166
 3229TIP3    H231103   4.049   5.827   4.813  0.0862  0.2711  1.0599
 3230TIP3   OH231104   5.155   3.111   3.099 -0.3700  0.6591 -0.5930
 3230TIP3    H131105   5.222   3.042   3.107 -0.7184  0.1945 -1.5535
 3230TIP3    H231106   5.202   3.184   3.060 -0.4546  0.2720 -1.4316
 3231TIP3   OH231107   3.225   5.652   4.668  0.3614  0.2884 -0.5919
 3231TIP3    H131108   3.204   5.745   4.676 -2.3280 -0.2325 -0.6347
 3231TIP3    H231109   3.299   5.649   4.608 -0.0672  2.3564 -1.3002
 3232TIP3   OH231110   3.230   3.443  15.045  0.0957  0.4184 -0.2703
 3232TIP3    H131111   3.307   3.494  15.070 -0.4422  1.0538  0.0920
 3232TIP3    H231112   3.178   3.502  14.991 -0.5007  0.2313  0.0960
 3233TIP3   OH231113   2.680   6.404   0.654 -0.3064  0.1598  0.1191
 3233TIP3    H131114   2.759   6.451   0.629 -0.1328 -0.1594  0.0648
 3233TIP3    H231115   2.712   6.330   0.706 -0.5268 -0.3146 -0.4133
 3234TIP3   OH231116   6.570   2.152  14.670  0.0319  0.5939 -0.0666
 3234TIP3    H131117   6.609   2.146  14.757 -1.4713  0.0995  0.6049
 3234TIP3    H231118   6.632   2.205  14.620  0.8577  1.0134  1.3306
 3235TIP3   OH231119   6.038   0.615  10.811  0.4646  0.3963  0.8820
 3235TIP3    H131120   6.002   0.558  10.743 -0.0833  0.2220  1.3061
 3235TIP3    H231121   6.133   0.609  10.800  0.4195 -0.6015  0.9078
 3236TIP3   OH231122   3.507   2.614   1.760 -0.0982  0.0727  0.1733
 3236TIP3    H131123   3.516   2.708   1.746  2.4534  0.4207  3.0731
 3236TIP3    H231124   3.565   2.573   1.695 -0.5663  0.5050 -0.5316
 3237TIP3   OH231125   6.061   0.923   2.355 -0.3727 -0.1701 -0.8338
 3237TIP3    H131126   6.060   0.983   2.430 -1.0591 -0.2088 -0.8078
 3237TIP3    H231127   6.113   0.969   2.288  0.0068 -0.0164 -0.4365
 3238TIP3   OH231128   2.974   4.493  12.436  0.8548  0.6960 -0.3207
 3238TIP3    H131129   3.023   4.470  12.515  0.0143 -0.2587 -0.0590
 3238TIP3    H231130   2.949   4.585  12.449  2.2289  1.0909 -0.2992
 3239TIP3   OH231131   3.707   1.551   2.833  0.2978  0.1892  0.2388
 3239TIP3    H131132   3.687   1.589   2.918  0.2047 -1.1101  0.8339
 3239TIP3    H231133   3.666   1.610   2.769  1.2291  1.7292  1.0206
 3240TIP3   OH231134   0.266   4.426  12.118 -0.4509  0.3296 -0.3926
 3240TIP3    H131135   0.344   4.469  12.083  0.0895  0.8988  1.4354
 3240TIP3    H231136   0.209   4.415  12.041  0.9847  0.8087 -1.5828
 3241TIP3   OH231137   3.250   0.456  12.108  0.7775  0.2998  0.2304
 3241TIP3    H131138   3.224   0.536  12.153  0.4669 -1.1485  2.8352
 3241TIP3    H231139   3.315   0.485  12.043 -1.2953  2.9491 -0.8345
 3242TIP3   OH231140   4.436   0.384   5.451  0.0924  0.1799  0.0193
 3242TIP3    H131141   4.351   0.420   5.425 -0.6837 -1.0728  0.7132
 3242TIP3    H231142   4.450   0.418   5.539 -0.0516 -0.2084  0.1937
 3243TIP3   OH231143   5.507   0.922   1.514 -0.0636 -0.3170 -0.2833
 3243TIP3    H131144   5.423   0.927   1.469 -0.0558 -1.3822 -0.4347
 3243TIP3    H231145   5.572   0.916   1.444  0.2068  1.0227 -0.1839
 3244TIP3   OH231146   1.955   5.754   5.854  0.3306 -0.3706 -0.2849
 3244TIP3    H131147   2.040   5.741   5.896  0.1020  0.3034  0.4017
 3244TIP3    H231148   1.960   5.702   5.773  1.1671 -0.8173  0.0423
 3245TIP3   OH231149   0.245   0.512   5.558 -0.2312  0.8690 -0.0135
 3245TIP3    H131150   0.169   0.489   5.611 -0.7551  0.2597 -1.0005
 3245TIP3    H231151   0.230   0.603   5.533 -0.8179  0.6471 -0.4900
 3246TIP3   OH231152   6.714   4.738  10.962 -0.2650  0.0149  0.0095
 3246TIP3    H131153   6.672   4.655  10.986  1.9399 -0.9672  0.8110
 3246TIP3    H231154   6.753   4.720  10.876 -2.3034  1.2787 -1.2611
 3247TIP3   OH231155   0.621   4.994   3.684  0.0721 -0.0190 -0.0354
 3247TIP3    H131156   0.609   5.064   3.748 -0.0243 -0.6024  0.5921
 3247TIP3    H231157   0.630   5.039   3.600  0.7675  0.7836  0.4625
 3248TIP3   OH231158   2.092   1.935  14.989  0.2873 -0.1950 -0.3652
 3248TIP3    H131159   2.032   1.918  15.062  0.7688  1.0764  0.3583
 3248TIP3    H231160   2.072   1.866  14.925 -0.2605 -1.2454  0.8818
 3249TIP3   OH231161   0.498   6.119   2.387 -0.1698  0.0904  0.3723
 3249TIP3    H131162   0.569   6.182   2.373 -0.1016  0.1788  1.0735
 3249TIP3    H231163   0.492   6.111   2.482 -1.5106  0.5537  0.3493
 3250TIP3   OH231164   5.379   3.317   1.560  0.1933 -0.6926 -0.1459
 3250TIP3    H131165   5.284   3.327   1.560  0.3181  0.8251  0.1765
 3250TIP3    H231166   5.408   3.363   1.481  0.8023  1.2945  1.1350
 3251TIP3   OH231167   2.354   3.887   4.208 -0.2458  0.5407  0.4790
 3251TIP3    H131168   2.389   3.968   4.245 -0.4708  0.4391  0.9166
 3251TIP3    H231169   2.275   3.914   4.160  0.8858  0.9112 -1.2839
 3252TIP3   OH231170   5.986   2.300   3.476 -0.2216 -0.1381  0.4629
 3252TIP3    H131171   6.051   2.235   3.451  0.1400  0.5232 -0.3615
 3252TIP3    H231172   5.941   2.262   3.552 -0.6296 -1.7252 -0.5353
 3253TIP3   OH231173   2.586   5.031   5.103  0.1939 -0.4943  0.2223
 3253TIP3    H131174   2.653   5.079   5.153  1.0577 -1.0918 -0.3241
 3253TIP3    H231175   2.503   5.070   5.130  0.8209  0.8526  0.2735
 3254TIP3   OH231176   3.223   3.174  14.555 -0.2462 -0.2911  0.3996
 3254TIP3    H131177   3.289   3.202  14.492 -0.3220  0.7616  0.7781
 3254TIP3    H231178   3.236   3.230  14.631  1.2388 -2.9206  2.2522
 3255TIP3   OH231179   3.950   0.195   3.649  0.0438 -0.4551 -0.8643
 3255TIP3    H131180   4.015   0.242   3.701  0.0367  0.9038 -2.0198
 3255TIP3    H231181   3.872   0.192   3.706  0.9889 -1.9016  0.4340
 3256TIP3   OH231182   3.840   6.379   1.825 -0.1702 -0.1499 -0.1715
 3256TIP3    H131183   3.832   6.285   1.809  1.8328 -0.3686 -0.0855
 3256TIP3    H231184   3.763   6.417   1.780 -1.5123 -1.8614  0.5648
 3257TIP3   OH231185   3.431   6.019  13.545 -0.2354 -0.4765 -0.2170
 3257TIP3    H131186   3.455   6.010  13.453  1.4404  1.5066 -0.0769
 3257TIP3    H231187   3.487   5.956  13.590  1.7351  1.1025 -0.3003
 3258TIP3   OH231188   6.128   3.317   2.918 -0.2509  0.2343 -0.0447
 3258TIP3    H131189   6.220   3.337   2.901 -0.6566  1.1330 -1.3497
 3258TIP3    H231190   6.128   3.224   2.940  0.8247 -0.1107 -1.3474
 3259TIP3   OH231191   3.952   3.131  13.680 -0.2798 -0.2695 -0.3588
 3259TIP3    H131192   3.899   3.085  13.745  1.7843 -1.2328  0.7169
 3259TIP3    H231193   3.942   3.223  13.702 -0.4644 -0.5164  0.6380
 3260TIP3   OH231194   4.449   5.498  11.308  0.0978 -0.8266 -0.3977
 3260TIP3    H131195   4.387   5.566  11.334  0.3812  0.9915 -3.7915
 3260TIP3    H231196   4.532   5.524  11.347  0.0866  0.5883 -1.2550
 3261TIP3   OH231197   1.040   2.546   5.538 -0.1585 -0.2648  0.5358
 3261TIP3    H131198   0.945   2.552   5.545 -0.3560  0.3021 -1.7269
 3261TIP3    H231199   1.059   2.570   5.447  2.2941  1.4505  1.3686
 3262TIP3   OH231200   1.332   4.906   5.899  0.0044  0.4035  0.1766
 3262TIP3    H131201   1.348   4.890   5.991 -0.1659 -0.6656  0.0323
 3262TIP3    H231202   1.416   4.891   5.856 -0.1986 -0.2751  0.0161
 3263TIP3   OH231203   5.144   6.082   3.420  0.1954 -0.0137  0.3449
 3263TIP3    H131204   5.146   6.049   3.510  0.4599  0.1413  0.3952
 3263TIP3    H231205   5.064   6.134   3.416 -1.1776 -2.0557 -0.2268
 3264TIP3   OH231206   4.240   3.756  14.468  0.2612 -0.3714  0.1477
 3264TIP3    H131207   4.181   3.743  14.542  1.7408 -0.9030  1.2796
 3264TIP3    H231208   4.185   3.739  14.391 -1.0662 -0.8224  1.1443
 3265TIP3   OH231209   4.478   1.360  16.204  0.3161 -0.0342  0.2506
 3265TIP3    H131210   4.440   1.320  16.125 -0.9383 -0.3077  0.9736
 3265TIP3    H231211   4.541   1.424  16.170 -2.2971  2.0202 -1.0851
 3266TIP3   OH231212   3.740   4.695   5.844  0.0602 -0.2251  0.1132
 3266TIP3    H131213   3.718   4.683   5.937  0.2559 -0.1733  0.1674
 3266TIP3    H231214   3.713   4.785   5.825  1.3415  0.2633  0.5081
 3267TIP3   OH231215   0.888   4.922   2.656 -0.1838 -0.1346  0.4065
 3267TIP3    H131216   0.915   4.859   2.590 -1.7067 -1.0988  0.6515
 3267TIP3    H231217   0.965   4.932   2.712  1.0952  0.6255 -1.3935
 3268TIP3   OH231218   5.114   1.583   1.655  0.0318 -0.1372 -0.1101
 3268TIP3    H131219   5.060   1.522   1.706  0.6826 -0.6947 -0.0795
 3268TIP3    H231220   5.178   1.615   1.717 -1.3770  1.9771  0.3567
 3269TIP3   OH231221   2.371   6.489   1.531  0.3472 -0.7206 -0.6531
 3269TIP3    H131222   2.375   6.468   1.624  2.4963 -2.1714 -0.9872
 3269TIP3    H231223   2.457   6.528   1.512  0.0319 -0.6702 -2.0715
 3270TIP3   OH231224   6.128   0.302   5.165 -0.0589  0.1368 -0.3271
 3270TIP3    H131225   6.034   0.290   5.155 -0.2727  0.5907  1.0144
 3270TIP3    H231226   6.163   0.294   5.076 -1.3171 -0.3406 -0.7923
 3271TIP3   OH231227   5.823   4.160   3.798  0.1778  0.3411 -0.0273
 3271TIP3    H131228   5.794   4.251   3.804 -0.3301  0.0983  2.6595
 3271TIP3    H231229   5.868   4.144   3.881  1.8671 -1.3717 -1.1869
 3272TIP3   OH231230   1.812   2.397  11.547  0.2713  0.2646 -0.3947
 3272TIP3    H131231   1.854   2.468  11.595  1.2462 -0.3504 -0.3021
 3272TIP3    H231232   1.769   2.439  11.473  0.0512  1.0485  0.1725
 3273TIP3   OH231233   3.587   3.910   0.503  0.0870  0.0555  0.2896
 3273TIP3    H131234   3.544   3.901   0.418  1.3202  1.7098 -0.5508
 3273TIP3    H231235   3.548   3.988   0.542  0.3905  0.0061  0.7019
 3274TIP3   OH231236   0.816   2.846  12.534  0.5771  0.2527  0.2705
 3274TIP3    H131237   0.869   2.899  12.474 -0.8066  1.0216 -0.3028
 3274TIP3    H231238   0.746   2.811  12.480  0.0257 -0.0871  1.1821
 3275TIP3   OH231239   6.214   4.430  11.562 -0.2312  0.4245  0.1337
 3275TIP3    H131240   6.255   4.368  11.502  1.7337  0.9922  0.8039
 3275TIP3    H231241   6.124   4.438  11.531  0.3320 -0.3665 -1.8599
 3276TIP3   OH231242   5.850   6.419   0.638 -0.2230 -0.7175  0.0515
 3276TIP3    H131243   5.790   6.460   0.701 -0.5268  0.4897 -0.9773
 3276TIP3    H231244   5.936   6.455   0.660 -0.2543 -0.6533  0.0693
 3277TIP3   OH231245   4.728   4.083   5.558 -0.6748  0.2638 -0.7569
 3277TIP3    H131246   4.683   4.012   5.512 -2.4723  1.0378 -0.2980
 3277TIP3    H231247   4.722   4.060   5.650 -0.8913  0.7798 -0.6375
 3278TIP3   OH231248   1.905   3.009  15.454  0.2227  0.0809 -0.3404
 3278TIP3    H131249   1.964   2.936  15.473  0.9708  0.2051 -2.0291
 3278TIP3    H231250   1.962   3.083  15.437 -0.5105  0.8660  0.4839
 3279TIP3   OH231251   1.702   4.141  15.174 -0.4811  0.1335  0.1490
 3279TIP3    H131252   1.767   4.100  15.230 -1.6687  0.8514  2.1773
 3279TIP3    H231253   1.745   4.149  15.089  0.8316 -2.4914  0.4598
 3280TIP3   OH231254   2.991   0.262  14.242  0.3278  0.0049 -0.0357
 3280TIP3    H131255   3.062   0.325  14.257 -0.4295  0.5036  1.8090
 3280TIP3    H231256   3.025   0.202  14.177  2.1761  0.6411  0.2874
 3281TIP3   OH231257   5.912   3.816   4.237  0.3859 -0.7645  0.2344
 3281TIP3    H131258   5.870   3.901   4.250  0.3001 -0.7451 -0.1409
 3281TIP3    H231259   5.972   3.806   4.311 -0.8855 -1.1742  1.2379
 3282TIP3   OH231260   0.396   5.457  15.580 -0.0221 -1.0133 -0.1984
 3282TIP3    H131261   0.436   5.528  15.629  1.7040 -0.5196 -2.1789
 3282TIP3    H231262   0.363   5.498  15.500 -0.2814 -2.2070 -0.7370
 3283TIP3   OH231263   0.334   4.814  13.613  0.6150 -0.1492 -0.2330
 3283TIP3    H131264   0.409   4.852  13.659  0.0346 -0.3914  0.9529
 3283TIP3    H231265   0.259   4.840  13.666  0.1339 -2.3215  0.2299
 3284TIP3   OH231266   0.463   2.001   0.229 -0.2576  0.6092 -0.1655
 3284TIP3    H131267   0.477   2.006   0.323 -3.5345  0.2134  0.4529
 3284TIP3    H231268   0.392   2.063   0.211 -2.9160 -2.5239 -1.4939
 3285TIP3   OH231269   0.029   3.506   5.315  0.6559  0.1979  0.2773
 3285TIP3    H131270  -0.037   3.441   5.293  1.8770 -1.1979  0.6292
 3285TIP3    H231271  -0.013   3.590   5.295 -0.9872 -0.6672 -0.0819
 3286TIP3   OH231272   3.405   5.467  12.562  0.4152 -0.0806 -0.0566
 3286TIP3    H131273   3.412   5.562  12.572 -0.3050  0.1072 -1.1188
 3286TIP3    H231274   3.459   5.448  12.485 -0.7289 -0.2939 -0.8232
 3287TIP3   OH231275   1.278   6.340  13.897  0.0041  0.3171 -0.5156
 3287TIP3    H131276   1.304   6.378  13.813  0.5170 -1.4921 -1.2172
 3287TIP3    H231277   1.197   6.292  13.878  0.2036 -0.2338 -0.0132
 3288TIP3   OH231278   4.712   2.590  11.123 -0.2934  0.1638 -0.1669
 3288TIP3    H131279   4.777   2.544  11.069  0.3740  0.4128  0.4177
 3288TIP3    H231280   4.628   2.562  11.087  0.1366  0.5665 -1.5461
 3289TIP3   OH231281   1.074   5.561   6.799  0.0831 -0.9996 -0.0547
 3289TIP3    H131282   0.993   5.594   6.760  0.1671 -0.4994  0.1827
 3289TIP3    H231283   1.047   5.520   6.881  0.0607 -0.8685  0.0046
 3290TIP3   OH231284   1.580   1.825   6.385  0.0972  0.0042 -0.7418
 3290TIP3    H131285   1.635   1.765   6.333  0.6000 -1.3140  1.2013
 3290TIP3    H231286   1.601   1.804   6.476 -1.9767  1.0598  0.0457
 3291TIP3   OH231287   1.659   4.863  13.392  0.1807  0.7261  0.2182
 3291TIP3    H131288   1.613   4.946  13.377 -2.4533 -0.5579  0.6311
 3291TIP3    H231289   1.613   4.800  13.337  0.8500 -0.8233  1.3627
 3292TIP3   OH231290   5.257   5.137  13.203 -0.0073 -0.3158 -0.1644
 3292TIP3    H131291   5.251   5.147  13.108 -2.4316 -0.2062 -0.0612
 3292TIP3    H231292   5.224   5.219  13.238 -0.6586 -0.9475  0.7523
 3293TIP3   OH231293   6.318   0.941  15.112 -0.0857 -0.1222  0.1022
 3293TIP3    H131294   6.394   0.931  15.169 -1.8579 -1.5150  2.4016
 3293TIP3    H231295   6.300   0.853  15.079 -2.5011 -0.5260  2.2027
 3294TIP3   OH231296   4.882   6.321  12.497  0.1818 -0.5472  0.3968
 3294TIP3    H131297   4.875   6.276  12.581 -0.0398 -0.8765  0.2021
 3294TIP3    H231298   4.826   6.271  12.438 -0.2058  0.0790  0.2190
 3295TIP3   OH231299   2.008   0.749   0.737  0.6532  0.1458 -0.6271
 3295TIP3    H131300   2.043   0.665   0.768 -0.0959  0.0868  0.0767
 3295TIP3    H231301   2.086   0.802   0.720  1.1255 -0.5701 -0.7570
 3296TIP3   OH231302   1.073   5.750  11.027 -0.3985 -0.1707  0.1979
 3296TIP3    H131303   1.103   5.716  10.943 -0.2434  1.1432 -0.3084
 3296TIP3    H231304   0.978   5.739  11.026 -0.2280 -1.9556  0.7052
 3297TIP3   OH231305   2.410   0.676  16.046 -0.8194  0.3023  0.1301
 3297TIP3    H131306   2.409   0.590  16.089 -2.6913 -0.5661 -1.4767
 3297TIP3    H231307   2.412   0.739  16.118  0.8249 -1.0448  1.3508
 3298TIP3   OH231308   4.341   5.312  17.134  0.2170 -0.1600  0.2412
 3298TIP3    H131309   4.269   5.281  17.189  0.0007  0.1127  0.1093
 3298TIP3    H231310   4.385   5.378  17.188 -0.1512  0.2961 -0.0086
 3299TIP3   OH231311   5.077   3.688   4.296 -0.0106  0.0303 -0.1760
 3299TIP3    H131312   5.150   3.669   4.236 -0.1232 -2.7795  0.4436
 3299TIP3    H231313   5.117   3.732   4.370  0.4119  1.9250 -1.4698
 3300TIP3   OH231314   0.462   0.681   3.097 -0.3419 -0.4105  0.1262
 3300TIP3    H131315   0.380   0.691   3.145 -0.3179  0.3055  0.0261
 3300TIP3    H231316   0.435   0.675   3.005 -0.3996 -1.9312  0.2123
 3301TIP3   OH231317   3.436   5.801   3.536  1.0045  0.1539  0.2215
 3301TIP3    H131318   3.387   5.787   3.455  1.0474  0.0623  0.2120
 3301TIP3    H231319   3.485   5.882   3.521  1.3342 -0.0836  0.0017
 3302TIP3   OH231320   4.422   4.566   6.089 -0.0858 -0.7293  0.4088
 3302TIP3    H131321   4.490   4.621   6.127 -0.6700 -0.9681  1.8592
 3302TIP3    H231322   4.360   4.628   6.050 -0.9645 -0.2829  2.4036
 3303TIP3   OH231323   3.374   1.990  15.314 -0.4690 -0.2350  0.6889
 3303TIP3    H131324   3.302   2.049  15.296 -0.1111  0.1083  0.3727
 3303TIP3    H231325   3.399   2.009  15.405 -1.7826 -1.4455  1.3501
 3304TIP3   OH231326   5.662   1.248  11.624  0.0376  0.3346  0.5010
 3304TIP3    H131327   5.708   1.310  11.680  1.0809 -0.2984  0.3582
 3304TIP3    H231328   5.577   1.237  11.666 -0.2364  1.9721  0.4429
 3305TIP3   OH231329   2.663   2.262  15.760 -0.8007  0.0047 -0.3126
 3305TIP3    H131330   2.710   2.223  15.833 -0.7323 -1.7691 -1.2527
 3305TIP3    H231331   2.731   2.307  15.709  0.1564 -3.0185 -1.9799
 3306TIP3   OH231332   6.574   0.130   5.392  0.8188  0.0194  0.1873
 3306TIP3    H131333   6.637   0.136   5.320 -1.0039 -0.9767 -1.5700
 3306TIP3    H231334   6.624   0.091   5.464  2.4660  0.1939 -0.8102
 3307TIP3   OH231335   6.560   4.683   2.554  0.3468 -0.4298  0.0276
 3307TIP3    H131336   6.639   4.737   2.547  0.8958 -1.4413 -2.2814
 3307TIP3    H231337   6.591   4.601   2.592  0.5057 -0.9849 -1.2802
 3308TIP3   OH231338   3.125   0.116   5.465  0.0123 -0.9141  0.1108
 3308TIP3    H131339   3.148   0.189   5.408  1.6296 -0.9554  0.6474
 3308TIP3    H231340   3.180   0.044   5.434  0.6964 -1.0181  1.4968
 3309TIP3   OH231341   3.311   0.293  14.435 -0.4603 -0.4627  0.5059
 3309TIP3    H131342   3.258   0.351  14.381  1.0490  1.6890  1.1831
 3309TIP3    H231343   3.400   0.303  14.400  0.1411 -0.8524  1.8742
 3310TIP3   OH231344   6.255   1.225   0.793 -0.7651  0.2392  0.5583
 3310TIP3    H131345   6.185   1.175   0.836 -0.8937  0.1408  0.2377
 3310TIP3    H231346   6.242   1.315   0.823 -0.3264  0.0327  1.4071
 3311TIP3   OH231347   3.760   5.307  13.411  0.0112  0.7149  0.0659
 3311TIP3    H131348   3.682   5.338  13.458  1.5504  0.2450  3.2383
 3311TIP3    H231349   3.738   5.217  13.387 -0.3376  0.4473  1.2903
 3312TIP3   OH231350   6.693   3.738  13.200 -0.2435 -0.4800 -0.6131
 3312TIP3    H131351   6.734   3.780  13.125  0.7308  0.1716  0.2538
 3312TIP3    H231352   6.754   3.754  13.272 -1.4258 -0.5909  0.4415
 3313TIP3   OH231353   6.150   6.433  10.651 -0.1206 -0.3894  0.1926
 3313TIP3    H131354   6.134   6.339  10.660  3.1337 -1.2223 -1.3396
 3313TIP3    H231355   6.230   6.449  10.700  0.9784  0.9497 -1.8983
 3314TIP3   OH231356   5.466   1.660  14.001  0.0445 -0.8435 -0.4047
 3314TIP3    H131357   5.523   1.584  13.996 -0.0942 -1.3359  3.2070
 3314TIP3    H231358   5.520   1.728  14.041 -0.3038  0.5319 -2.1421
 3315TIP3   OH231359   3.121   2.411   0.560 -0.2593 -0.2298  0.1943
 3315TIP3    H131360   3.150   2.321   0.577  0.9893  0.1584  0.2194
 3315TIP3    H231361   3.138   2.457   0.642 -1.2582 -0.0443  0.3095
 3316TIP3   OH231362   6.754   3.627  11.871 -0.0958 -0.2662  0.4967
 3316TIP3    H131363   6.720   3.709  11.907 -0.3219 -0.5612  0.9565
 3316TIP3    H231364   6.693   3.604  11.800  0.2387  0.2103  0.0474
 3317TIP3   OH231365   0.588   5.030  12.715 -0.0936 -0.2735 -0.2107
 3317TIP3    H131366   0.577   5.026  12.620  1.3134 -1.8954 -0.3474
 3317TIP3    H231367   0.584   5.124  12.735 -1.5541  0.0422 -1.6881
 3318TIP3   OH231368   3.461   2.195   2.360 -0.5541  0.5523  0.5173
 3318TIP3    H131369   3.472   2.139   2.283 -1.3712  1.3280 -0.1803
 3318TIP3    H231370   3.372   2.175   2.392  0.0906 -0.4216  1.8195
 3319TIP3   OH231371   4.626   1.168  11.166 -0.3206 -0.2198 -0.2866
 3319TIP3    H131372   4.642   1.246  11.114 -0.8283 -0.6179 -1.0592
 3319TIP3    H231373   4.711   1.148  11.207  0.5891 -0.9099 -2.3764
 3320TIP3   OH231374   0.018   4.853   5.793  0.1440  0.1406 -0.0678
 3320TIP3    H131375   0.051   4.791   5.858 -1.5138  1.5043  2.2211
 3320TIP3    H231376  -0.059   4.811   5.756  0.2049 -0.0143 -0.0167
 3321TIP3   OH231377   1.730   4.565  13.469 -0.5449 -0.2845 -0.0626
 3321TIP3    H131378   1.648   4.608  13.443 -1.1705 -1.0158  0.6216
 3321TIP3    H231379   1.714   4.536  13.559  0.4758 -0.4432  0.0806
 3322TIP3   OH231380   6.071   6.577   5.655  0.3317 -0.1395  0.0175
 3322TIP3    H131381   6.119   6.505   5.615 -1.2921 -3.0119  2.7484
 3322TIP3    H231382   6.004   6.599   5.592  2.1910  0.6149 -1.8028
 3323TIP3   OH231383   6.123   4.500   5.773  0.0755  0.4040  0.6727
 3323TIP3    H131384   6.183   4.429   5.792  0.8110  0.4969 -1.0740
 3323TIP3    H231385   6.037   4.459   5.767  0.4560 -0.3054 -0.0463
 3324TIP3   OH231386   1.320   5.550  11.208 -0.0419  0.6749  0.0968
 3324TIP3    H131387   1.374   5.472  11.197 -0.3129  0.3041  1.2162
 3324TIP3    H231388   1.239   5.530  11.161  0.0767  0.4801 -0.0267
 3325TIP3   OH231389   0.023   6.013  17.088  0.3008 -0.3724  0.3420
 3325TIP3    H131390  -0.021   5.933  17.115 -0.4260  0.1261  0.6748
 3325TIP3    H231391   0.014   6.016  16.993  3.0657 -2.2547 -0.0831
 3326TIP3   OH231392   2.827   1.880   2.859  0.0997 -0.4156  0.6829
 3326TIP3    H131393   2.756   1.868   2.797 -1.8119  1.5273  2.3600
 3326TIP3    H231394   2.879   1.800   2.851 -1.7557 -1.5400 -1.2074
 3327TIP3   OH231395   2.353   6.580   5.455 -0.0956 -0.3137 -0.0821
 3327TIP3    H131396   2.358   6.519   5.528 -2.0890  1.0385  1.3093
 3327TIP3    H231397   2.424   6.555   5.397 -0.0313 -3.0705  1.0571
 3328TIP3   OH231398   2.340   3.649   2.967 -0.0336  0.2884 -0.0262
 3328TIP3    H131399   2.334   3.707   2.891  3.3193 -0.1822 -0.8115
 3328TIP3    H231400   2.349   3.708   3.041 -0.5243  0.7501 -0.3245
 3329TIP3   OH231401   4.292   6.345  10.881 -0.0875  0.4812  0.3109
 3329TIP3    H131402   4.249   6.272  10.837  0.1874  0.5226 -0.0263
 3329TIP3    H231403   4.221   6.406  10.902 -0.0987  0.9968 -1.0914
 3330TIP3   OH231404   5.280   2.861  12.658  0.2682 -0.0645  0.3552
 3330TIP3    H131405   5.312   2.949  12.674 -0.2661  0.0902  0.5982
 3330TIP3    H231406   5.300   2.844  12.565  0.5655  0.2246  0.3674
 3331TIP3   OH231407   4.312   6.478   3.993  0.1835  0.5547 -0.4549
 3331TIP3    H131408   4.222   6.511   3.982 -0.4615  0.3066  2.9674
 3331TIP3    H231409   4.303   6.405   4.055  2.6250 -0.3445 -1.0608
 3332TIP3   OH231410   1.479   0.096  10.654  0.4870  0.1019 -0.1845
 3332TIP3    H131411   1.568   0.114  10.684  1.0181 -0.5176 -1.3271
 3332TIP3    H231412   1.455   0.171  10.600 -0.4808  1.2311  1.6942
 3333TIP3   OH231413   5.045   1.950   6.031 -0.0601  0.0586 -0.4213
 3333TIP3    H131414   5.066   1.883   6.096 -1.3279 -1.4420 -1.5015
 3333TIP3    H231415   4.966   1.992   6.064 -0.0414  0.0900 -0.4165
 3334TIP3   OH231416   1.335   3.705  12.200  0.3153 -0.0188  0.4076
 3334TIP3    H131417   1.303   3.650  12.128  1.1642 -0.1920  0.1466
 3334TIP3    H231418   1.314   3.794  12.173  1.7839  0.0307 -0.7066
 3335TIP3   OH231419   5.410   6.561   2.256 -0.1925  0.6670  0.1542
 3335TIP3    H131420   5.408   6.655   2.241  1.5646  0.6674 -0.2380
 3335TIP3    H231421   5.322   6.532   2.234 -0.8525  2.2405  0.5491
 3336TIP3   OH231422   4.464   1.262  12.828 -0.3089 -0.3166 -0.2686
 3336TIP3    H131423   4.517   1.239  12.752  1.6604 -0.1924  0.9736
 3336TIP3    H231424   4.374   1.252  12.799  0.3685 -0.0887 -2.6523
 3337TIP3   OH231425   5.343   0.564  16.514 -0.3477 -0.0124  0.5762
 3337TIP3    H131426   5.331   0.631  16.582  1.1007  0.4251  0.4495
 3337TIP3    H231427   5.333   0.611  16.432 -2.6937 -0.6583  0.4221
 3338TIP3   OH231428   5.991   3.975  12.818 -0.0636  0.5619 -0.0058
 3338TIP3    H131429   5.983   3.893  12.768 -0.9507  0.6778 -0.0657
 3338TIP3    H231430   5.964   4.043  12.757 -1.2719  0.6957  0.6561
 3339TIP3   OH231431   2.682   6.474  16.840  0.0099 -0.0501 -0.7500
 3339TIP3    H131432   2.735   6.551  16.822 -0.5085  0.8744  1.3264
 3339TIP3    H231433   2.651   6.445  16.754  0.2239  2.0569 -1.5925
 3340TIP3   OH231434   3.171   5.825   4.048 -0.1974 -0.0979 -0.0186
 3340TIP3    H131435   3.189   5.744   4.094  1.3250  0.2453  0.0402
 3340TIP3    H231436   3.097   5.864   4.095  0.1443 -0.6387  0.9885
 3341TIP3   OH231437   5.167   3.602   0.551  0.1672  0.6813 -0.7909
 3341TIP3    H131438   5.158   3.640   0.639 -0.2564  1.5649 -1.2037
 3341TIP3    H231439   5.097   3.537   0.546  0.4532  0.3283 -0.3314
 3342TIP3   OH231440   5.463   0.970  14.431  0.8880 -0.3641 -0.2319
 3342TIP3    H131441   5.504   0.951  14.347 -0.4913 -1.7289 -0.6598
 3342TIP3    H231442   5.471   1.065  14.442  0.0424  0.0147 -2.4977
 3343TIP3   OH231443   6.086   6.498  16.900  0.5268  0.6306  0.1477
 3343TIP3    H131444   6.131   6.423  16.938 -0.7781 -0.9119 -1.1760
 3343TIP3    H231445   6.114   6.498  16.808  1.6024  2.6714  0.4204
 3344TIP3   OH231446   0.510   4.750  16.696  0.1476 -0.4586 -0.0704
 3344TIP3    H131447   0.500   4.693  16.773  1.4297 -0.8490 -0.1714
 3344TIP3    H231448   0.527   4.690  16.624  1.5008  0.0418 -0.1794
 3345TIP3   OH231449   4.468   4.001  16.431  0.5429 -0.5645  0.3826
 3345TIP3    H131450   4.562   4.001  16.451  0.7440 -1.3102 -0.4849
 3345TIP3    H231451   4.461   4.056  16.353  0.4390 -1.4342 -0.2412
 3346TIP3   OH231452   2.165   5.437  14.413  0.6956 -0.5466  0.2322
 3346TIP3    H131453   2.230   5.369  14.430 -0.9431 -1.8200  1.8150
 3346TIP3    H231454   2.173   5.497  14.486  0.5508 -0.3459  0.0846
 3347TIP3   OH231455   3.771   5.930   6.029 -0.5294  0.1335  0.1440
 3347TIP3    H131456   3.783   5.913   5.935 -1.3434  0.4302 -0.0192
 3347TIP3    H231457   3.701   5.995   6.033  0.7848  1.5812  0.8721
 3348TIP3   OH231458   3.379   5.333  13.845  1.2742  0.1994 -0.1793
 3348TIP3    H131459   3.371   5.249  13.800  2.2931 -0.3921  0.6701
 3348TIP3    H231460   3.290   5.367  13.849  0.9523 -0.4727 -1.2120
 3349TIP3   OH231461   3.817   5.740   1.126  0.8855 -0.0744 -0.6909
 3349TIP3    H131462   3.779   5.827   1.130 -1.9623 -1.1499 -1.8399
 3349TIP3    H231463   3.767   5.688   1.188  0.6095 -1.4958 -2.0321
 3350TIP3   OH231464   6.665   1.935  17.062  0.1094 -0.3685  0.0839
 3350TIP3    H131465   6.723   1.975  17.127 -0.1205 -0.2889  0.2405
 3350TIP3    H231466   6.693   1.843  17.058 -0.3067 -0.5333  0.7817
 3351TIP3   OH231467   6.264   1.228  13.376 -0.6333  0.4676 -0.0457
 3351TIP3    H131468   6.355   1.219  13.405 -0.5557  2.1441  0.3288
 3351TIP3    H231469   6.233   1.138  13.365  1.1865 -0.1451 -0.5610
 3352TIP3   OH231470   1.332   1.172   0.158 -0.2428 -0.1628  0.4187
 3352TIP3    H131471   1.354   1.223   0.080 -0.3577 -0.0429  0.4641
 3352TIP3    H231472   1.351   1.231   0.231 -0.9892  0.0467  0.4502
 3353TIP3   OH231473   0.809   5.307   6.157 -0.0371 -0.2038 -0.1160
 3353TIP3    H131474   0.878   5.354   6.203  0.2821  0.9847 -1.7115
 3353TIP3    H231475   0.735   5.368   6.155 -0.6928 -0.9617  0.4392
 3354TIP3   OH231476   4.106   4.205   4.162  0.1642 -0.3323  0.1801
 3354TIP3    H131477   4.186   4.233   4.206 -1.2072  3.7796  0.4373
 3354TIP3    H231478   4.130   4.198   4.070  1.1092 -0.5625  0.4384
 3355TIP3   OH231479   4.434   5.996  14.803  0.1033 -0.5932 -0.0598
 3355TIP3    H131480   4.518   5.949  14.806 -0.7369 -2.1573  0.1735
 3355TIP3    H231481   4.402   5.982  14.714 -0.4450 -1.0210  0.1974
 3356TIP3   OH231482   3.661   0.520  15.269  0.0702  0.3784 -0.0169
 3356TIP3    H131483   3.634   0.568  15.190 -0.8460 -2.2265 -1.3804
 3356TIP3    H231484   3.591   0.458  15.285  1.6687 -1.2400  1.0461
 3357TIP3   OH231485   2.340   1.206  17.320 -0.5572  0.1813  0.0508
 3357TIP3    H131486   2.324   1.125  17.271  1.4121  0.0539 -0.4509
 3357TIP3    H231487   2.391   1.178  17.396 -3.2986  0.4238  2.1138
 3358TIP3   OH231488   0.876   0.668  16.621 -0.4194  0.3589  0.8086
 3358TIP3    H131489   0.898   0.597  16.681  0.7787  0.0940  0.1036
 3358TIP3    H231490   0.786   0.651  16.594  0.2953 -1.8016 -0.5061
 3359TIP3   OH231491   2.662   0.430   5.041 -0.3663 -0.6495  0.3323
 3359TIP3    H131492   2.740   0.378   5.019  0.2548  0.9224 -1.4488
 3359TIP3    H231493   2.613   0.435   4.959 -1.2593  0.1965  0.8938
 3360TIP3   OH231494   6.459   5.679  16.711 -0.1216  0.1386 -0.1075
 3360TIP3    H131495   6.495   5.753  16.662 -1.3551  0.3264 -0.7740
 3360TIP3    H231496   6.383   5.715  16.756  0.1693 -0.3753  0.8195
 3361TIP3   OH231497   5.629   5.436  11.057 -0.1878 -0.2358 -0.3107
 3361TIP3    H131498   5.690   5.498  11.017 -0.7510  0.7619  0.3548
 3361TIP3    H231499   5.557   5.490  11.089 -0.0882 -1.0870  1.4423
 3362TIP3   OH231500   2.351   6.090   4.733  0.0005 -0.3568 -0.4784
 3362TIP3    H131501   2.399   6.170   4.716  0.2049 -0.2603  0.4981
 3362TIP3    H231502   2.337   6.051   4.647 -1.0359  1.2589 -1.0830
 3363TIP3   OH231503   6.500   2.457   1.929 -0.0793 -0.0135 -0.2212
 3363TIP3    H131504   6.521   2.515   2.002 -1.0303  0.0848 -0.0099
 3363TIP3    H231505   6.419   2.413   1.955  0.5381 -1.3220 -0.4571
 3364TIP3   OH231506   3.730   5.204  16.098  0.3331  0.1446 -0.6718
 3364TIP3    H131507   3.759   5.216  16.189 -0.4814 -1.5363 -0.1543
 3364TIP3    H231508   3.709   5.292  16.068 -1.2870  0.5762  1.4490
 3365TIP3   OH231509   1.920   0.475   4.903 -0.4616  0.4886  0.2200
 3365TIP3    H131510   1.993   0.530   4.874  0.3671 -0.8641 -0.3335
 3365TIP3    H231511   1.957   0.421   4.972 -0.4643 -1.3229 -1.1291
 3366TIP3   OH231512   1.070   2.812   5.751  0.2472  0.0311  0.0369
 3366TIP3    H131513   1.060   2.852   5.664  0.7563  0.4511  0.1605
 3366TIP3    H231514   1.128   2.873   5.798  0.1201 -0.2872  0.6082
 3367TIP3   OH231515   3.074   5.318   3.987 -0.0415  0.5122 -0.8248
 3367TIP3    H131516   3.107   5.366   4.063 -1.9677  0.8367 -0.1440
 3367TIP3    H231517   2.982   5.342   3.981 -0.1822 -0.2877 -2.6927
 3368TIP3   OH231518   1.620   2.280  14.717  0.3777  0.2811 -0.1736
 3368TIP3    H131519   1.554   2.254  14.781  0.0362 -1.9475 -1.3391
 3368TIP3    H231520   1.571   2.328  14.650  0.5558  1.6117  0.6017
 3369TIP3   OH231521   4.684   6.138   3.337  0.3561  0.0366  0.0245
 3369TIP3    H131522   4.666   6.057   3.384 -0.0302  0.1362  0.0491
 3369TIP3    H231523   4.628   6.203   3.379  0.7247  0.3341  0.0582
 3370TIP3   OH231524   2.218   3.592  14.083 -0.3810  0.2163 -0.6431
 3370TIP3    H131525   2.213   3.685  14.104  1.7586  0.3352 -0.4401
 3370TIP3    H231526   2.259   3.552  14.160 -0.3448 -0.7282 -1.1351
 3371TIP3   OH231527   0.304   4.617  10.861  0.1778 -0.3999 -0.3831
 3371TIP3    H131528   0.225   4.669  10.871  0.2163 -0.6946  2.0406
 3371TIP3    H231529   0.277   4.542  10.807 -0.8377  0.1824 -0.7001
 3372TIP3   OH231530   2.588   0.699  14.591  0.4005 -0.9440  0.1910
 3372TIP3    H131531   2.608   0.772  14.532  0.2189 -1.1731 -0.1625
 3372TIP3    H231532   2.588   0.737  14.678 -0.8597 -0.2696 -0.0841
 3373TIP3   OH231533   4.821   3.434   2.143  0.4259  0.3011 -0.1326
 3373TIP3    H131534   4.766   3.397   2.211  0.1271  0.0751 -0.4904
 3373TIP3    H231535   4.903   3.384   2.148  0.0790 -0.3162 -0.5155
 3374TIP3   OH231536   0.975   4.537   6.503  0.0815  0.3612 -0.0031
 3374TIP3    H131537   0.994   4.471   6.436  0.3073 -0.1974  0.5952
 3374TIP3    H231538   0.935   4.487   6.575 -2.0153  1.2338 -0.4919
 3375TIP3   OH231539   5.865   0.942   2.982  0.1181  0.0739  0.6514
 3375TIP3    H131540   5.940   0.909   3.031 -0.4587  0.4083  1.7900
 3375TIP3    H231541   5.884   0.920   2.891  2.4155  1.6882  0.6753
 3376TIP3   OH231542   0.488   1.690  15.950 -1.1300 -0.8999 -0.1795
 3376TIP3    H131543   0.561   1.744  15.921 -1.0745 -0.1293  1.3241
 3376TIP3    H231544   0.528   1.625  16.009 -1.7779  0.4171  1.8124
 3377TIP3   OH231545   5.084   2.873   3.336 -0.5226 -0.1249  0.2973
 3377TIP3    H131546   5.099   2.959   3.377 -1.7708 -0.5558  1.7559
 3377TIP3    H231547   5.170   2.847   3.304  0.5249  0.3814  2.4777
 3378TIP3   OH231548   4.397   1.062  15.357 -0.1079 -0.0054 -0.1340
 3378TIP3    H131549   4.452   1.139  15.344 -0.5445  0.6367  1.6151
 3378TIP3    H231550   4.459   0.991  15.375  0.1965  0.5709  1.1497
 3379TIP3   OH231551   6.749   2.410   2.785 -0.0084  0.2858  0.0379
 3379TIP3    H131552   6.765   2.491   2.834  0.8294  0.7544 -0.9706
 3379TIP3    H231553   6.692   2.437   2.713 -3.9186 -0.9700  2.3643
 3380TIP3   OH231554   5.949   5.736   1.625  0.2080  0.2838  0.3699
 3380TIP3    H131555   5.995   5.753   1.543  0.9303 -1.4199  0.3863
 3380TIP3    H231556   6.017   5.712   1.687 -0.4414  0.4755  1.1804
 3381TIP3   OH231557   5.264   1.323  14.920 -0.2747 -0.2852  0.7552
 3381TIP3    H131558   5.266   1.261  14.993 -0.0158 -0.3073  0.7294
 3381TIP3    H231559   5.346   1.371  14.927 -0.0353 -0.5988  0.2107
 3382TIP3   OH231560   4.887   0.181   4.049  0.0448 -0.9916 -0.9938
 3382TIP3    H131561   4.841   0.136   3.977 -0.1700 -0.8707 -0.9321
 3382TIP3    H231562   4.930   0.110   4.097  1.4384 -0.9578 -2.1085
 3383TIP3   OH231563   2.837   3.957   1.630  0.3048  0.8872 -0.1752
 3383TIP3    H131564   2.931   3.964   1.647  0.3559  0.7030 -0.3843
 3383TIP3    H231565   2.798   4.027   1.683  0.5242  0.7333  0.1936
 3384TIP3   OH231566   4.155   1.499   6.860  0.2893 -0.4625 -0.5474
 3384TIP3    H131567   4.239   1.543   6.842  0.8017 -0.9686  0.5505
 3384TIP3    H231568   4.163   1.415   6.814  0.4945 -0.6192 -0.2292
 3385TIP3   OH231569   1.738   6.646  14.385  0.1155 -0.4103 -0.0039
 3385TIP3    H131570   1.684   6.657  14.463 -2.2881 -1.0216 -1.4851
 3385TIP3    H231571   1.785   6.729  14.376 -1.4017  0.5722  0.7605
 3386TIP3   OH231572   2.321   3.325  12.462  0.0673 -0.9609 -0.4208
 3386TIP3    H131573   2.246   3.384  12.469 -2.0499 -3.3002 -1.7170
 3386TIP3    H231574   2.286   3.246  12.420  2.3978 -3.6989  2.3170
 3387TIP3   OH231575   0.214   3.005   1.922  0.0607  0.4547  0.0230
 3387TIP3    H131576   0.212   3.099   1.905  0.2168  0.5026  0.2579
 3387TIP3    H231577   0.188   2.996   2.014  0.5207  0.3095  0.1439
 3388TIP3   OH231578   1.286   2.359   3.929 -0.5979 -0.0990  0.2578
 3388TIP3    H131579   1.374   2.375   3.895 -0.6702  0.1013  0.1668
 3388TIP3    H231580   1.243   2.310   3.860 -0.1904 -1.2190  0.7730
 3389TIP3   OH231581   1.719   0.516   3.539  0.0552  0.2196  0.7561
 3389TIP3    H131582   1.813   0.514   3.521 -0.1037  3.1135 -1.0271
 3389TIP3    H231583   1.682   0.452   3.478  0.7384  0.4568  0.0629
 3390TIP3   OH231584   6.707   1.190  10.703  0.3009 -0.0244  0.1360
 3390TIP3    H131585   6.652   1.198  10.781 -0.9464  0.5893 -0.7764
 3390TIP3    H231586   6.721   1.096  10.693  2.7767 -0.0530  2.5987
 3391TIP3   OH231587   6.582   6.289  15.707  0.2279 -0.0528  0.4084
 3391TIP3    H131588   6.523   6.364  15.713 -0.3823 -0.4135 -0.8064
 3391TIP3    H231589   6.638   6.308  15.632  0.7580 -0.3383  0.7236
 3392TIP3   OH231590   0.438   4.626   4.769  0.1508  0.7950 -0.0432
 3392TIP3    H131591   0.418   4.718   4.751  0.2280  0.7162 -0.5488
 3392TIP3    H231592   0.474   4.627   4.857 -0.7242  1.1230  0.3179
 3393TIP3   OH231593   3.508   1.551  13.348  0.1033  0.5875 -0.0576
 3393TIP3    H131594   3.548   1.620  13.295 -0.2116  0.0818 -0.9772
 3393TIP3    H231595   3.424   1.588  13.376 -0.4259  0.3016 -1.2168
 3394TIP3   OH231596   4.140   1.566  16.830  0.5619  0.2996 -0.2152
 3394TIP3    H131597   4.226   1.556  16.871  0.1451 -1.8874  0.2413
 3394TIP3    H231598   4.124   1.481  16.788 -1.4142  0.6305 -0.1958
 3395TIP3   OH231599   6.587   4.818   4.778 -0.0275  0.7188 -0.4549
 3395TIP3    H131600   6.538   4.893   4.809 -0.4473  0.3226 -0.1441
 3395TIP3    H231601   6.662   4.855   4.731  1.1399  1.3564  1.7636
 3396TIP3   OH231602   0.540   1.642   3.313  0.0313  0.0068  0.0135
 3396TIP3    H131603   0.485   1.647   3.391  0.7345 -0.7536  0.5853
 3396TIP3    H231604   0.480   1.655   3.240 -1.1337 -1.9185  0.5516
 3397TIP3   OH231605   2.136   5.641  11.059  0.5660 -0.4702  0.0164
 3397TIP3    H131606   2.117   5.574  10.993 -0.0209 -2.0578  1.7092
 3397TIP3    H231607   2.059   5.642  11.115  2.4299 -1.8889  2.8403
 3398TIP3   OH231608   1.238   5.276  12.054 -0.0783  0.0049 -0.5661
 3398TIP3    H131609   1.289   5.196  12.048 -0.6963 -0.3646 -1.0632
 3398TIP3    H231610   1.233   5.295  12.148 -0.7043 -1.0578 -0.3729
 3399TIP3   OH231611   3.614   2.606  11.265  0.1106  0.2049  0.5776
 3399TIP3    H131612   3.542   2.646  11.313 -0.6044  2.1640 -1.9383
 3399TIP3    H231613   3.637   2.670  11.198  2.4096 -1.5112 -0.4041
 3400TIP3   OH231614   0.594   3.288   5.286 -0.3850 -0.0155 -0.2621
 3400TIP3    H131615   0.681   3.288   5.326  0.1078 -0.0679 -1.3071
 3400TIP3    H231616   0.540   3.238   5.347 -0.2564  1.9154  1.5450
 3401TIP3   OH231617   1.356   2.431  15.676  0.5492 -0.3087  0.1381
 3401TIP3    H131618   1.378   2.349  15.720 -0.0807 -0.5619 -0.0113
 3401TIP3    H231619   1.262   2.426  15.660  0.8320 -0.4248 -1.6390
 3402TIP3   OH231620   5.432   2.627  14.175 -0.6061  0.3157 -0.1478
 3402TIP3    H131621   5.383   2.638  14.093 -0.6473 -0.6711 -0.2685
 3402TIP3    H231622   5.503   2.691  14.169 -0.2634 -0.1395 -1.2244
 3403TIP3   OH231623   6.619   2.029   5.664  0.6930 -0.0756  0.1616
 3403TIP3    H131624   6.681   2.089   5.705  0.3108  1.2070 -1.0920
 3403TIP3    H231625   6.671   1.979   5.602  0.5241  0.8510 -0.7350
 3404TIP3   OH231626   2.088   3.271   0.694  0.0031 -0.1145  0.1125
 3404TIP3    H131627   2.005   3.224   0.705  0.6667 -1.3256  0.0321
 3404TIP3    H231628   2.120   3.285   0.783 -0.1977  0.2157  0.1366
 3405TIP3   OH231629   2.938   5.005  15.326  0.4604  0.1834  0.0418
 3405TIP3    H131630   2.959   4.985  15.235  0.2207 -1.2831  0.2806
 3405TIP3    H231631   3.003   4.956  15.377  0.4596  0.8175  0.6682
 3406TIP3   OH231632   5.871   5.058  14.152  0.7003  0.5832  0.5069
 3406TIP3    H131633   5.826   5.007  14.085  1.0104  1.5099 -0.4258
 3406TIP3    H231634   5.886   4.996  14.223  1.8475 -0.8720 -0.9324
 3407TIP3   OH231635   3.385   5.259  10.620  0.0462 -0.7283 -0.3950
 3407TIP3    H131636   3.443   5.200  10.667  1.3662 -0.0466 -1.1031
 3407TIP3    H231637   3.415   5.347  10.644 -1.8892 -0.2893  0.6529
 3408TIP3   OH231638   1.542   4.709   1.891  0.0505  0.0758 -0.1113
 3408TIP3    H131639   1.553   4.772   1.820 -0.3686 -0.5372 -0.7341
 3408TIP3    H231640   1.484   4.753   1.953  0.2406  0.5342 -0.2554
 3409TIP3   OH231641   1.049   5.675   3.178 -0.0803 -0.1154 -0.3369
 3409TIP3    H131642   1.144   5.663   3.176 -0.2716 -2.4433  1.3491
 3409TIP3    H231643   1.030   5.698   3.268 -1.3235 -2.0737 -0.0581
 3410TIP3   OH231644   6.044   0.866  15.658 -0.3767 -0.3365  0.1818
 3410TIP3    H131645   6.064   0.774  15.676  0.8539 -0.2853 -0.7643
 3410TIP3    H231646   5.962   0.864  15.609 -0.9307 -0.8372  1.1010
 3411TIP3   OH231647   1.649   5.430  11.843 -0.7533 -0.1095  0.5197
 3411TIP3    H131648   1.651   5.338  11.868 -1.4801 -0.4002 -0.4003
 3411TIP3    H231649   1.581   5.434  11.776 -0.0322  0.9127 -0.1740
 3412TIP3   OH231650   4.400   5.174   3.217 -0.7536 -0.1300 -0.5624
 3412TIP3    H131651   4.384   5.177   3.311  0.2297 -0.3464 -0.3760
 3412TIP3    H231652   4.404   5.081   3.196  0.2729 -0.0987 -0.5748
 3413TIP3   OH231653   6.465   1.815  15.722  0.3796  0.1874  0.4094
 3413TIP3    H131654   6.416   1.740  15.687 -0.4712  0.9828 -0.1182
 3413TIP3    H231655   6.556   1.786  15.720  0.2018 -0.3695 -1.0349
 3414TIP3   OH231656   6.349   2.472  16.463 -0.0187  0.0039  0.4285
 3414TIP3    H131657   6.441   2.497  16.471  0.0143 -0.4331  1.6055
 3414TIP3    H231658   6.339   2.446  16.371  1.2044 -0.6438  0.4620
 3415TIP3   OH231659   2.300   3.350  13.878  0.1780 -0.0804  0.1919
 3415TIP3    H131660   2.300   3.445  13.872  0.9016 -0.1253 -0.7564
 3415TIP3    H231661   2.303   3.321  13.787  0.1610 -1.0119  0.4812
 3416TIP3   OH231662   3.747   0.089  13.690 -0.2196  0.0103 -0.0773
 3416TIP3    H131663   3.792   0.067  13.772 -2.0436 -0.3663  0.8697
 3416TIP3    H231664   3.654   0.085  13.711 -0.7464  0.1753 -2.1114
 3417TIP3   OH231665   4.753   2.961  16.675  0.1043 -1.3072 -0.3033
 3417TIP3    H131666   4.732   3.051  16.698 -0.6151 -1.2476 -1.1318
 3417TIP3    H231667   4.668   2.917  16.672  0.0753 -1.2208 -3.1492
 3418TIP3   OH231668   4.005   4.090   4.420  0.7756  0.0906  0.5557
 3418TIP3    H131669   4.003   4.183   4.439  2.1515  0.4248 -0.7343
 3418TIP3    H231670   3.987   4.084   4.326  0.6219 -0.9560  0.6394
 3419TIP3   OH231671   5.778   1.951  17.275  0.2223  0.8273  0.2621
 3419TIP3    H131672   5.858   2.003  17.266 -0.4751  1.7312 -1.2796
 3419TIP3    H231673   5.763   1.946  17.369  2.9145 -0.7249  0.7102
 3420TIP3   OH231674   3.188   3.199  15.541  0.1350  0.4847 -0.2502
 3420TIP3    H131675   3.099   3.187  15.510  0.0018 -2.3471  0.9057
 3420TIP3    H231676   3.242   3.193  15.463 -0.6043  1.2335 -0.8365
 3421TIP3   OH231677   3.207   4.411  17.014 -0.2156  0.0991 -0.0895
 3421TIP3    H131678   3.122   4.393  16.972 -1.3751  0.2529  2.0343
 3421TIP3    H231679   3.245   4.324  17.028 -0.0342  0.0233 -0.9813
 3422TIP3   OH231680   6.452   2.366   4.706  0.5852  0.1374  0.0886
 3422TIP3    H131681   6.469   2.296   4.770 -1.4778  0.1805  0.7746
 3422TIP3    H231682   6.467   2.324   4.621 -2.2518 -1.7988  0.3896
 3423TIP3   OH231683   0.755   0.506   1.176  0.0971  0.5778  0.1312
 3423TIP3    H131684   0.782   0.415   1.188 -0.1791  0.5579  0.6002
 3423TIP3    H231685   0.684   0.519   1.238 -2.0339  0.2007 -2.0531
 3424TIP3   OH231686   0.171   5.238   3.027  0.8794  0.3711  0.6699
 3424TIP3    H131687   0.244   5.278   3.075 -0.6832  3.1745  0.9191
 3424TIP3    H231688   0.094   5.260   3.079 -0.5279  0.6485 -1.4317
 3425TIP3   OH231689   3.462   6.196   1.814  0.1190 -0.3108 -0.5107
 3425TIP3    H131690   3.455   6.281   1.859 -0.6149 -0.1212 -0.9773
 3425TIP3    H231691   3.419   6.135   1.873  0.7334 -0.3909 -0.1276
 3426TIP3   OH231692   1.905   4.085  12.219  0.1042  0.3118  0.3132
 3426TIP3    H131693   1.874   4.010  12.168  1.7770 -2.3425  2.8571
 3426TIP3    H231694   1.992   4.104  12.185 -0.5392  1.5833 -0.7132
 3427TIP3   OH231695   2.645   1.156   2.902 -0.2058 -0.1470  0.2834
 3427TIP3    H131696   2.703   1.230   2.882 -0.8803  0.4999  0.6436
 3427TIP3    H231697   2.703   1.080   2.904  1.0968  0.7801  2.9591
 3428TIP3   OH231698   1.720   5.393  15.517 -0.2612  0.2772  0.7025
 3428TIP3    H131699   1.683   5.319  15.565  1.1652 -0.6768  0.3819
 3428TIP3    H231700   1.678   5.389  15.431 -0.7646  0.3137  0.9436
 3429TIP3   OH231701   4.424   5.968  14.112  0.1163 -0.2027  0.2495
 3429TIP3    H131702   4.329   5.964  14.098  0.0959 -4.4807  0.5531
 3429TIP3    H231703   4.441   5.909  14.184  3.2605 -1.6889 -1.4822
 3430TIP3   OH231704   6.466   6.267   0.372  0.0151 -0.4384 -0.8014
 3430TIP3    H131705   6.478   6.335   0.438  0.7876 -2.2819  1.0796
 3430TIP3    H231706   6.460   6.314   0.289  0.7261  1.8785  0.3828
 3431TIP3   OH231707   5.147   5.737   4.662 -0.1612 -0.3913  0.1817
 3431TIP3    H131708   5.088   5.663   4.649 -2.1951  0.7128  2.4342
 3431TIP3    H231709   5.227   5.697   4.698 -0.1911 -1.7255 -1.1368
 3432TIP3   OH231710   5.903   0.773  17.228  0.0391 -1.2588 -0.0167
 3432TIP3    H131711   5.982   0.738  17.267 -0.3646 -2.6283 -0.3589
 3432TIP3    H231712   5.869   0.701  17.174 -1.1468 -0.5248 -0.2947
 3433TIP3   OH231713   0.531   5.286  11.441 -0.3546  0.0968  0.8706
 3433TIP3    H131714   0.585   5.333  11.504 -1.8311 -0.5372  2.7061
 3433TIP3    H231715   0.511   5.202  11.483  0.6848 -1.4988 -1.5332
 3434TIP3   OH231716   1.628   0.422  11.971  0.6890 -0.3428 -0.0315
 3434TIP3    H131717   1.683   0.486  12.017 -0.4618  0.1054  0.7856
 3434TIP3    H231718   1.563   0.395  12.037 -1.2463  0.5795 -1.4516
 3435TIP3   OH231719   4.219   1.329   3.137  0.2141 -0.1177  0.6225
 3435TIP3    H131720   4.232   1.296   3.048  0.3473  0.7927  0.2938
 3435TIP3    H231721   4.198   1.251   3.189 -1.2084 -0.4862 -0.4596
 3436TIP3   OH231722   2.223   3.105   3.039 -0.8003 -0.4418 -0.1991
 3436TIP3    H131723   2.258   3.115   3.128  1.9830  2.2979 -1.4170
 3436TIP3    H231724   2.225   3.011   3.023 -0.5035 -0.9349  2.2774
 3437TIP3   OH231725   4.924   1.645   0.386  0.4606 -0.2815  0.0944
 3437TIP3    H131726   4.972   1.572   0.347 -1.9556 -1.1610 -1.4780
 3437TIP3    H231727   4.990   1.713   0.399  2.5716 -2.3026  0.5255
 3438TIP3   OH231728   4.209   6.385  16.180  0.1044 -0.6840 -0.8043
 3438TIP3    H131729   4.238   6.462  16.228 -1.3838 -0.9958  0.6811
 3438TIP3    H231730   4.114   6.394  16.175 -0.0013 -1.9246 -1.4985
 3439TIP3   OH231731   3.169   4.240   4.170  0.1616  0.4904  0.3821
 3439TIP3    H131732   3.170   4.148   4.197  2.3048  0.8990  2.0051
 3439TIP3    H231733   3.089   4.275   4.208 -1.5981 -1.0118 -1.7023
 3440TIP3   OH231734   5.301   0.772   3.447 -0.1079  0.6202  0.0134
 3440TIP3    H131735   5.212   0.763   3.480  0.1432  1.6652  1.0038
 3440TIP3    H231736   5.354   0.792   3.524  0.9077  0.5517 -0.6449
 3441TIP3   OH231737   5.236   0.161   3.430 -0.4137  0.3362 -0.1819
 3441TIP3    H131738   5.272   0.249   3.443  0.1969  0.5140 -2.5403
 3441TIP3    H231739   5.188   0.167   3.347 -0.9966 -1.3745 -0.0121
 3442TIP3   OH231740   0.995   3.980   4.401  0.1564  0.6051  0.0636
 3442TIP3    H131741   1.008   4.027   4.484 -1.2059  0.2569  0.5054
 3442TIP3    H231742   1.015   3.889   4.422  0.3014  0.5909 -0.1317
 3443TIP3   OH231743   3.438   0.305   6.458  0.1174 -0.5791  0.0504
 3443TIP3    H131744   3.474   0.277   6.373 -0.3917 -1.9451  0.2607
 3443TIP3    H231745   3.463   0.236   6.519 -0.7965 -0.3553  0.7000
 3444TIP3   OH231746   2.384   3.762   4.502 -0.8057 -0.2685  0.1089
 3444TIP3    H131747   2.468   3.807   4.496 -1.2746  0.8422  1.2735
 3444TIP3    H231748   2.376   3.738   4.594 -0.7716 -2.4376 -0.3959
 3445TIP3   OH231749   2.597   4.153   6.102 -0.2025 -0.3487  0.1912
 3445TIP3    H131750   2.675   4.194   6.065 -0.2046 -0.5740 -0.0712
 3445TIP3    H231751   2.623   4.064   6.122 -1.0668 -1.2708 -2.3718
 3446TIP3   OH231752   4.487   4.146  13.554 -0.1937 -0.3895 -0.0362
 3446TIP3    H131753   4.455   4.210  13.617 -0.6999 -0.7626  0.0881
 3446TIP3    H231754   4.501   4.197  13.474 -0.0342 -0.0127  0.2263
 3447TIP3   OH231755   1.294   3.260   0.970 -0.7382  0.4552  0.2682
 3447TIP3    H131756   1.220   3.223   0.922 -0.5616  0.9363 -0.4047
 3447TIP3    H231757   1.283   3.230   1.060 -1.3315 -0.0996  0.0161
 3448TIP3   OH231758   4.716   3.054   2.797 -0.0448  0.2656 -0.8219
 3448TIP3    H131759   4.806   3.085   2.813 -0.7804  2.1704  0.0096
 3448TIP3    H231760   4.722   2.959   2.799  1.8512  0.3618 -0.0940
 3449TIP3   OH231761   2.303   6.304  13.902 -0.1824  0.2191 -0.2503
 3449TIP3    H131762   2.215   6.286  13.934  0.1562 -1.0098  0.0637
 3449TIP3    H231763   2.320   6.233  13.840  0.0816  1.2092 -1.3517
 3450TIP3   OH231764   0.116   4.751  14.712 -0.2443  0.0097 -0.5246
 3450TIP3    H131765   0.134   4.842  14.736  0.2121  0.0448 -0.9820
 3450TIP3    H231766   0.124   4.702  14.794 -0.3029  0.3535 -0.3137
 3451TIP3   OH231767   0.668   2.226   5.990 -0.0817  1.3539  0.0225
 3451TIP3    H131768   0.720   2.151   6.016  2.3392  2.1330 -2.1794
 3451TIP3    H231769   0.664   2.281   6.069  1.3643  0.6547  0.6161
 3452TIP3   OH231770   5.909   2.877  12.593  0.1262  0.0862  0.5672
 3452TIP3    H131771   5.893   2.806  12.530 -0.9621 -0.8746  1.8609
 3452TIP3    H231772   5.823   2.916  12.608  0.2083 -0.2450  2.0588
 3453TIP3   OH231773   4.544   2.717   1.364  0.4968  0.0247  0.4013
 3453TIP3    H131774   4.470   2.771   1.392 -0.2752 -1.2259  0.8619
 3453TIP3    H231775   4.585   2.767   1.293 -2.3149 -0.3549 -1.6494
 3454TIP3   OH231776   3.576   0.492   1.524  0.3811  0.2881 -0.4543
 3454TIP3    H131777   3.545   0.401   1.525 -0.9236  0.6794  1.6730
 3454TIP3    H231778   3.516   0.538   1.467  0.3708  0.0245 -0.6589
 3455TIP3   OH231779   4.503   5.226   5.152  0.0702 -0.1381  0.2762
 3455TIP3    H131780   4.585   5.273   5.138  1.1972 -1.2369  2.6228
 3455TIP3    H231781   4.436   5.281   5.111  1.7426  1.7521 -0.0513
 3456TIP3   OH231782   3.868   1.809  13.275 -0.6629 -0.7502  0.5961
 3456TIP3    H131783   3.865   1.896  13.235 -2.3652 -0.6726  0.8095
 3456TIP3    H231784   3.954   1.805  13.317  0.2398  0.0464 -1.0787
 3457TIP3   OH231785   2.946   1.023  12.216  0.2762  0.0042  0.3584
 3457TIP3    H131786   2.977   1.067  12.137 -1.6107 -1.6485 -1.4074
 3457TIP3    H231787   2.945   0.930  12.193 -2.9049 -0.3042  1.3054
 3458TIP3   OH231788   0.030   6.493  17.128  0.0705  0.2961 -0.5253
 3458TIP3    H131789  -0.015   6.543  17.197  2.0863  1.5101 -0.0183
 3458TIP3    H231790   0.064   6.416  17.173  0.6394  0.6469 -0.3530
 3459TIP3   OH231791   1.282   3.734  14.041 -0.2962 -0.2910 -0.5098
 3459TIP3    H131792   1.330   3.696  14.115  2.4533  1.4199 -1.2987
 3459TIP3    H231793   1.213   3.786  14.082 -0.7101 -1.7176  0.7138
 3460TIP3   OH231794   2.822   1.620  14.011 -0.3683 -0.1708 -0.3132
 3460TIP3    H131795   2.881   1.638  13.938  1.9368  0.3320  1.5460
 3460TIP3    H231796   2.790   1.532  13.995 -0.4606  0.1600 -2.2293
 3461TIP3   OH231797   4.098   2.056   5.001  0.1298 -0.3000  0.1733
 3461TIP3    H131798   4.133   2.108   5.073  0.1223  0.5083 -0.3876
 3461TIP3    H231799   4.016   2.020   5.035 -2.4417  3.8835 -0.7907
 3462TIP3   OH231800   0.839   6.410  12.226 -0.4009 -0.2187 -0.6360
 3462TIP3    H131801   0.787   6.352  12.281 -1.9562 -0.5345 -2.3715
 3462TIP3    H231802   0.776   6.452  12.167  0.9472  1.6499 -0.8596
 3463TIP3   OH231803   2.339   4.860   5.994 -0.3534 -0.0276  0.5686
 3463TIP3    H131804   2.343   4.955   5.984  0.6668 -0.0317  0.7665
 3463TIP3    H231805   2.302   4.828   5.911 -0.5438  0.5272  0.4387
 3464TIP3   OH231806   0.827   0.716   6.279  0.0146 -0.5675  0.2409
 3464TIP3    H131807   0.895   0.769   6.321 -0.7866 -0.0563  0.9134
 3464TIP3    H231808   0.758   0.778   6.258 -0.0078 -0.9753 -1.0120
 3465TIP3   OH231809   1.527   3.026   4.558  0.3444  0.0598  0.3027
 3465TIP3    H131810   1.451   3.076   4.590  0.3402 -0.5507  1.2640
 3465TIP3    H231811   1.602   3.066   4.601  0.6012  0.7163 -0.7118
 3466TIP3   OH231812   4.738   1.123  15.476 -0.6384  0.0105 -0.0073
 3466TIP3    H131813   4.710   1.145  15.565 -0.3788 -0.2551  0.1432
 3466TIP3    H231814   4.830   1.149  15.474 -0.4529 -0.6263  0.0276
 3467TIP3   OH231815   4.222   1.171  11.673 -0.2454 -0.3911 -0.1082
 3467TIP3    H131816   4.287   1.226  11.717 -0.3776  0.6900 -1.2209
 3467TIP3    H231817   4.267   1.088  11.658 -0.3535 -1.0087  2.4746
 3468TIP3   OH231818   4.910   1.191   4.559 -0.3872  0.0639 -0.1573
 3468TIP3    H131819   4.968   1.115   4.564 -2.1073 -1.4194 -1.4719
 3468TIP3    H231820   4.957   1.252   4.502  1.6466  0.6769  2.0132
 3469TIP3   OH231821   1.688   0.528   4.745 -0.1493  0.0141  0.0997
 3469TIP3    H131822   1.768   0.476   4.739  0.0241  0.2617  0.2148
 3469TIP3    H231823   1.676   0.564   4.657 -0.1058  0.0140  0.0938
 3470TIP3   OH231824   3.591   1.451  14.852  0.5819 -0.1422  0.3875
 3470TIP3    H131825   3.671   1.442  14.801  0.5773  0.3658  0.2818
 3470TIP3    H231826   3.618   1.497  14.932  0.3126  0.5283  0.1063
 3471TIP3   OH231827   0.843   1.636  17.262 -0.0269 -0.3669  0.4566
 3471TIP3    H131828   0.922   1.583  17.271  0.4694 -0.1932 -2.1694
 3471TIP3    H231829   0.782   1.581  17.214 -0.3928  0.5618 -0.1759
 3472TIP3   OH231830   5.830   5.537  17.084  0.1976 -0.1722 -0.3390
 3472TIP3    H131831   5.844   5.628  17.113 -1.6361 -0.1470  0.5852
 3472TIP3    H231832   5.749   5.540  17.034 -1.1707 -1.6467  1.6701
 3473TIP3   OH231833   6.613   4.373   0.102  0.5471  0.3994  0.7454
 3473TIP3    H131834   6.706   4.384   0.084  0.4397 -0.1845 -0.2412
 3473TIP3    H231835   6.569   4.427   0.036  0.1668 -0.6131  0.1436
 3474TIP3   OH231836   2.670   5.608   0.838 -0.1056 -0.9246  0.3095
 3474TIP3    H131837   2.681   5.694   0.797  1.2946 -1.4860 -0.5875
 3474TIP3    H231838   2.735   5.607   0.909 -1.2986 -0.6265  1.4388
 3475TIP3   OH231839   5.973   1.320   0.840 -0.4262  0.0448 -0.1198
 3475TIP3    H131840   5.930   1.399   0.809 -0.2615 -0.0022 -0.4746
 3475TIP3    H231841   6.057   1.349   0.874 -1.2967  0.3371  1.9083
 3476TIP3   OH231842   5.800   3.219  12.471  0.2795 -0.2780 -0.1908
 3476TIP3    H131843   5.795   3.267  12.554 -0.7637  0.0312 -0.4174
 3476TIP3    H231844   5.861   3.270  12.417  0.8006 -0.3661  0.3081
 3477TIP3   OH231845   0.193   4.631  14.965  0.0206  0.1944  0.5386
 3477TIP3    H131846   0.262   4.575  14.927 -0.2535  0.4083 -0.3011
 3477TIP3    H231847   0.218   4.641  15.057  0.2707 -1.0137  0.6178
 3478TIP3   OH231848   2.681   5.770  14.005  0.2507  0.0803 -0.6289
 3478TIP3    H131849   2.593   5.806  14.004  1.1044  2.5734  2.0878
 3478TIP3    H231850   2.674   5.691  14.058 -0.3056  0.4600 -0.1249
 3479TIP3   OH231851   2.131   0.099   6.011  0.4766 -0.3214 -0.4373
 3479TIP3    H131852   2.098   0.065   6.095  0.3398 -0.0721 -0.3892
 3479TIP3    H231853   2.183   0.176   6.035 -1.4807  1.1742 -0.7458
 3480TIP3   OH231854   3.880   6.068   2.066  0.5658 -0.0478 -0.3292
 3480TIP3    H131855   3.927   6.147   2.040  2.0632 -0.8936 -0.3321
 3480TIP3    H231856   3.795   6.099   2.096  0.8774  1.4882 -0.9516
 3481TIP3   OH231857   1.418   0.458  12.874  0.6877 -0.4465 -0.1191
 3481TIP3    H131858   1.428   0.378  12.926  0.0223 -0.6055 -0.2284
 3481TIP3    H231859   1.411   0.428  12.784 -0.7780 -0.3731 -0.0582
 3482TIP3   OH231860   6.533   4.991  15.761  0.0124  0.1201  0.1625
 3482TIP3    H131861   6.538   4.947  15.847  2.9796  2.1246  1.1673
 3482TIP3    H231862   6.557   4.923  15.698 -0.6477 -0.9993  1.0821
 3483TIP3   OH231863   3.663   0.034   4.776  0.0802  0.2857  1.0685
 3483TIP3    H131864   3.631   0.118   4.808 -1.0587  0.6512 -0.8788
 3483TIP3    H231865   3.718   0.056   4.701  0.6326 -0.6664  1.1673
 3484TIP3   OH231866   0.393   1.992  12.991  0.6880 -0.2010  0.1131
 3484TIP3    H131867   0.386   2.000  12.896  0.3084  0.6377  0.2025
 3484TIP3    H231868   0.419   2.079  13.021 -0.9229  0.0408  0.9327
 3485TIP3   OH231869   1.323   6.221   0.877  0.2085  0.0840  1.0430
 3485TIP3    H131870   1.409   6.187   0.899 -0.3799 -0.9882  1.7884
 3485TIP3    H231871   1.285   6.157   0.817  0.5621  1.4046 -0.6628
 3486TIP3   OH231872   0.060   5.790  16.856 -0.0054  0.1449 -0.3239
 3486TIP3    H131873   0.074   5.708  16.808 -1.1361 -0.3728  0.1757
 3486TIP3    H231874  -0.029   5.782  16.891 -0.3922  1.8832 -0.8149
 3487TIP3   OH231875   4.533   6.092   2.911  0.1803 -0.5552 -0.3516
 3487TIP3    H131876   4.602   6.066   2.972  0.3811 -0.4616 -0.5398
 3487TIP3    H231877   4.520   6.186   2.928  0.9736 -0.2802 -1.1799
 3488TIP3   OH231878   4.826   0.666   4.871 -0.0812  0.0512 -0.3071
 3488TIP3    H131879   4.875   0.746   4.885  0.5545 -0.0861 -1.6313
 3488TIP3    H231880   4.892   0.598   4.859 -0.5529 -0.1390 -2.1175
 3489TIP3   OH231881   0.790   5.519   4.468 -0.0229  0.0457 -0.2520
 3489TIP3    H131882   0.717   5.579   4.452  0.2133  1.2563  2.6596
 3489TIP3    H231883   0.749   5.436   4.491 -0.4639  0.3459  0.0588
 3490TIP3   OH231884   2.279   3.884   1.608 -1.0985 -0.1634  0.2240
 3490TIP3    H131885   2.350   3.945   1.630 -1.9448  0.3199  1.8043
 3490TIP3    H231886   2.315   3.828   1.540  0.7134  0.2212  0.8190
 3491TIP3   OH231887   2.730   5.226   5.290  0.5762  0.1440  0.4009
 3491TIP3    H131888   2.672   5.292   5.252  1.4513  1.5799  1.4170
 3491TIP3    H231889   2.813   5.273   5.304  0.4672 -0.3649  3.5645
 3492TIP3   OH231890   1.244   1.984   0.564 -0.5126 -0.2004  0.3099
 3492TIP3    H131891   1.180   1.978   0.493  0.2598  0.5922 -0.4755
 3492TIP3    H231892   1.193   2.019   0.638 -1.5104 -1.8074  0.4311
 3493TIP3   OH231893   4.244   1.022   0.333  0.1226  0.2619  0.2667
 3493TIP3    H131894   4.166   1.072   0.358  0.4383  0.6318  0.5190
 3493TIP3    H231895   4.281   1.072   0.260 -0.6928 -0.7109 -0.8550
 3494TIP3   OH231896   4.980   1.524   1.038 -0.1704 -0.1430 -0.2416
 3494TIP3    H131897   4.935   1.447   1.072 -0.6256  0.4706  0.5903
 3494TIP3    H231898   4.910   1.575   0.996 -0.0886  0.3471  0.2014
 3495TIP3   OH231899   5.439   6.677  14.446 -0.2782  0.2754 -0.0107
 3495TIP3    H131900   5.533   6.657  14.449 -0.0926  0.9958 -0.5879
 3495TIP3    H231901   5.435   6.762  14.402 -1.1030  0.9358  1.3026
 3496TIP3   OH231902   2.371   1.269  14.450 -0.7951 -0.0825 -0.2432
 3496TIP3    H131903   2.354   1.363  14.445  0.0315  0.0983  0.2052
 3496TIP3    H231904   2.384   1.242  14.359  2.2681  0.8878 -0.1860
 3497TIP3   OH231905   1.992   5.669   1.336  0.0536 -0.0710  0.2481
 3497TIP3    H131906   2.079   5.663   1.296  0.6184  2.9037  0.7968
 3497TIP3    H231907   1.998   5.614   1.414  0.7495 -1.4552 -0.7253
 3498TIP3   OH231908   3.981   5.625  14.212  0.3522 -0.5152  0.4654
 3498TIP3    H131909   3.915   5.558  14.231  0.0054 -0.1476  0.5590
 3498TIP3    H231910   4.042   5.620  14.285  0.2746 -0.6652  0.5198
 3499TIP3   OH231911   2.875   4.050   5.166  0.3748 -0.1888 -0.1116
 3499TIP3    H131912   2.838   4.007   5.243 -0.2323  1.7178  0.7055
 3499TIP3    H231913   2.969   4.052   5.182  0.0815  2.2602  1.7580
 3500TIP3   OH231914   2.545   1.147   0.199 -0.0632 -0.3956 -0.4948
 3500TIP3    H131915   2.604   1.217   0.169 -0.6943 -0.6104 -2.3603
 3500TIP3    H231916   2.570   1.071   0.147 -1.4459 -0.7037 -0.7491
 3501TIP3   OH231917   1.524   3.527  15.212 -0.2113 -0.1230 -0.9728
 3501TIP3    H131918   1.554   3.514  15.122  0.6799  2.7249 -1.1674
 3501TIP3    H231919   1.485   3.614  15.213  1.1565  0.5798  1.6887
 3502TIP3   OH231920   3.022   0.479  12.877  0.3732  0.2407  0.1104
 3502TIP3    H131921   2.956   0.429  12.925 -0.2339 -1.5543 -2.4229
 3502TIP3    H231922   2.974   0.554  12.842  0.1208 -0.0384 -0.1447
 3503TIP3   OH231923   2.623   5.868  16.807  0.0006  0.2310  0.3163
 3503TIP3    H131924   2.553   5.884  16.744 -0.6726  0.4090  1.0991
 3503TIP3    H231925   2.594   5.910  16.887  0.5282 -0.5890  0.9564
 3504TIP3   OH231926   4.536   2.145   3.632  0.2269 -0.2615  0.3785
 3504TIP3    H131927   4.628   2.131   3.655 -0.5372 -1.2908  3.2826
 3504TIP3    H231928   4.503   2.203   3.701 -1.5570 -0.7449 -0.0163
 3505TIP3   OH231929   5.657   1.371   1.744 -0.1220 -0.4991  0.7728
 3505TIP3    H131930   5.716   1.316   1.692  1.4152  1.7394 -0.0233
 3505TIP3    H231931   5.569   1.342   1.719  0.5755 -0.5281 -2.0088
 3506TIP3   OH231932   2.640   0.961   0.006  0.0536 -0.4542 -0.0882
 3506TIP3    H131933   2.635   0.999  -0.082  0.7612  0.2630  0.1728
 3506TIP3    H231934   2.706   0.892  -0.002 -2.2360 -2.6674 -0.9107
 3507TIP3   OH231935   5.251   4.431  14.851  0.2400  0.0021 -0.1012
 3507TIP3    H131936   5.233   4.351  14.901 -1.4109 -0.7534 -1.7589
 3507TIP3    H231937   5.180   4.491  14.875  1.2966  0.8804  0.9001
 3508TIP3   OH231938   2.581   4.491  10.880  0.2535 -0.5097  0.1327
 3508TIP3    H131939   2.495   4.457  10.858  0.0518 -0.7095  1.2060
 3508TIP3    H231940   2.565   4.581  10.909  0.8052  0.7081 -2.9321
 3509TIP3   OH231941   3.033   4.660  15.714 -0.0053 -0.1571  0.0540
 3509TIP3    H131942   2.986   4.718  15.653 -1.1037 -2.1604 -1.1122
 3509TIP3    H231943   3.090   4.607  15.658 -0.4814 -1.5244  0.8165
 3510TIP3   OH231944   4.477   6.179  11.988 -0.5475  0.0211  0.1971
 3510TIP3    H131945   4.516   6.094  12.012 -0.5844 -0.3887 -1.1070
 3510TIP3    H231946   4.508   6.195  11.899 -0.2181  1.5898  0.5659
 3511TIP3   OH231947   1.809   4.417  16.417  0.3452  0.0770 -0.3396
 3511TIP3    H131948   1.717   4.392  16.413  0.2353  0.5289 -0.7854
 3511TIP3    H231949   1.815   4.495  16.361  0.6860  1.0300  0.9643
 3512TIP3   OH231950   3.888   1.573  10.659  0.5549 -0.0696 -0.5872
 3512TIP3    H131951   3.940   1.631  10.605  1.9797 -0.9350 -0.2024
 3512TIP3    H231952   3.891   1.612  10.747  1.2041 -0.5098 -0.4068
 3513TIP3   OH231953   1.586   5.606   4.694 -0.5249  0.2185 -0.1734
 3513TIP3    H131954   1.588   5.641   4.605 -0.3876 -0.4425 -0.4387
 3513TIP3    H231955   1.677   5.605   4.722 -0.7267  2.0949  0.6623
 3514TIP3   OH231956   3.356   0.608  15.225  0.2413  0.6526  0.9347
 3514TIP3    H131957   3.361   0.576  15.135 -1.3644  1.9974  0.3128
 3514TIP3    H231958   3.396   0.695  15.221  0.0967  0.7489  1.5107
 3515TIP3   OH231959   4.287   4.948  11.572 -0.4444 -0.3510  0.6273
 3515TIP3    H131960   4.274   4.948  11.667 -1.4792  2.1282  0.5422
 3515TIP3    H231961   4.333   5.030  11.554 -1.4111 -0.1651 -1.1579
 3516TIP3   OH231962   4.125   0.236   1.225 -0.0251 -0.0277 -0.2227
 3516TIP3    H131963   4.123   0.332   1.224 -0.0052 -0.0034  1.0299
 3516TIP3    H231964   4.108   0.213   1.316  0.2848 -1.2164 -0.4584
 3517TIP3   OH231965   0.314   4.302   3.528 -0.4411  0.7493  0.1442
 3517TIP3    H131966   0.279   4.384   3.493 -3.1347 -0.2284  0.2948
 3517TIP3    H231967   0.261   4.234   3.485 -0.6032 -0.7076  2.5096
 3518TIP3   OH231968   4.653   0.741   4.498 -0.4815  0.0766  0.3081
 3518TIP3    H131969   4.659   0.759   4.591 -1.1011  0.7499  0.2265
 3518TIP3    H231970   4.585   0.673   4.491  0.0201 -0.4414  0.3948
 3519TIP3   OH231971   0.649   4.533  12.120  0.4050  0.0038 -0.1973
 3519TIP3    H131972   0.661   4.628  12.128 -0.9883  0.1877 -0.1555
 3519TIP3    H231973   0.738   4.498  12.125  1.1752  1.4494 -2.2029
 3520TIP3   OH231974   0.452   5.954  12.248  0.3184 -0.4496  0.6486
 3520TIP3    H131975   0.390   6.026  12.238 -0.4054 -0.8307  2.1594
 3520TIP3    H231976   0.401   5.876  12.228  0.5291 -0.7066  1.1124
 3521TIP3   OH231977   4.150   2.892  15.907  0.1229  0.1047  0.4888
 3521TIP3    H131978   4.173   2.873  15.816 -1.0731 -0.8237  0.3538
 3521TIP3    H231979   4.164   2.809  15.953  1.9460  0.8889  1.4394
 3522TIP3   OH231980   5.261   5.691   2.536 -0.0314 -0.3035  0.1304
 3522TIP3    H131981   5.188   5.686   2.474  0.6211  0.3279 -0.7217
 3522TIP3    H231982   5.297   5.779   2.523  0.1352 -0.1720  1.4030
 3523TIP3   OH231983   1.232   3.944  12.402 -0.4506 -0.7273 -0.4628
 3523TIP3    H131984   1.318   3.924  12.437  0.0672 -0.8442 -1.7423
 3523TIP3    H231985   1.183   3.980  12.476 -0.4112 -3.7339  1.1575
 3524TIP3   OH231986   0.539   3.623   0.444 -0.0442 -0.0017  0.1358
 3524TIP3    H131987   0.570   3.694   0.387 -0.4297 -0.0506 -0.1400
 3524TIP3    H231988   0.551   3.544   0.392 -2.0551  0.1277 -0.5955
 3525TIP3   OH231989   6.164   1.926  14.434  0.7592 -0.0546  0.3372
 3525TIP3    H131990   6.102   1.999  14.440 -0.3321 -0.9529  0.3487
 3525TIP3    H231991   6.250   1.967  14.428  0.2564  1.2159  1.4487
 3526TIP3   OH231992   2.643   1.048  14.731  0.0044 -0.4617  0.1576
 3526TIP3    H131993   2.583   1.119  14.754  0.7817 -0.0102  0.8518
 3526TIP3    H231994   2.614   0.974  14.785 -1.4225 -1.0150 -1.2785
 3527TIP3   OH231995   0.586   4.320  14.489  0.2709  0.1732  0.3137
 3527TIP3    H131996   0.558   4.292  14.402  1.1788 -0.3700  0.1726
 3527TIP3    H231997   0.561   4.412  14.495 -2.0024 -0.3936  0.4364
 3528TIP3   OH231998   4.977   0.562   0.218 -0.0421  0.0025 -0.1018
 3528TIP3    H131999   4.936   0.632   0.268  1.5852  1.1712 -0.2989
 3528TIP3    H232000   5.003   0.604   0.136  2.3805 -0.3522  0.3984
 3529TIP3   OH232001   4.686   1.629  11.285 -0.0619 -0.1377 -0.0559
 3529TIP3    H132002   4.738   1.640  11.364 -0.9734  1.1833  0.3972
 3529TIP3    H232003   4.749   1.638  11.213  0.4364  0.9471  0.4946
 3530TIP3   OH232004   3.792   2.969   6.179 -0.5948 -0.2381 -0.6132
 3530TIP3    H132005   3.861   3.034   6.167 -0.3409 -0.6628 -1.5659
 3530TIP3    H232006   3.825   2.891   6.133 -2.4331  0.0672 -2.6000
 3531TIP3   OH232007   1.972   2.262  17.054  0.4507  0.1857 -0.1441
 3531TIP3    H132008   1.914   2.337  17.067 -1.5901 -1.2482 -0.3761
 3531TIP3    H232009   1.995   2.234  17.142  0.7192  0.7127 -0.0439
 3532TIP3   OH232010   6.287   2.555  15.876  0.2549  0.4489  0.3261
 3532TIP3    H132011   6.251   2.548  15.787  0.1274  0.1526  0.4001
 3532TIP3    H232012   6.209   2.556  15.932  0.3484  0.2735  0.4572
 3533TIP3   OH232013   3.719   0.809  14.783 -0.0084 -0.0244 -0.6389
 3533TIP3    H132014   3.693   0.773  14.868 -0.2661  2.2364  0.2962
 3533TIP3    H232015   3.805   0.847  14.799  0.5664 -0.8042 -1.7833
 3534TIP3   OH232016   4.410   2.235   1.416  0.5783  0.2168 -0.2678
 3534TIP3    H132017   4.501   2.267   1.410  1.0402 -1.1542 -0.9607
 3534TIP3    H232018   4.397   2.187   1.334  0.0476 -1.6500  0.8598
 3535TIP3   OH232019   1.301   3.411  15.679  0.1984  0.0280  0.3617
 3535TIP3    H132020   1.254   3.481  15.633 -0.5150  0.1195  1.2039
 3535TIP3    H232021   1.334   3.355  15.609 -0.7643  0.2213 -0.2748
 3536TIP3   OH232022   0.144   0.994  11.230  0.8733  0.4867 -0.0764
 3536TIP3    H132023   0.217   0.965  11.175  0.3472 -1.1545  0.0598
 3536TIP3    H232024   0.079   1.027  11.167  0.9894  0.2546 -0.3204
 3537TIP3   OH232025   1.841   2.795  16.508  0.2118 -0.3728 -0.3884
 3537TIP3    H132026   1.788   2.851  16.564  0.6464 -1.6942  1.4138
 3537TIP3    H232027   1.865   2.721  16.563  1.1132 -1.4788 -2.1761
 3538TIP3   OH232028   1.002   2.547   5.804 -0.5625 -0.9023  0.1939
 3538TIP3    H132029   1.006   2.517   5.714 -2.5355 -0.3466 -0.1204
 3538TIP3    H232030   1.028   2.640   5.800 -0.7095 -0.8612  0.1844
 3539TIP3   OH232031   0.830   0.656   0.951 -0.3614  0.1816 -0.4015
 3539TIP3    H132032   0.816   0.604   1.030 -0.6725  0.3736 -0.3268
 3539TIP3    H232033   0.742   0.675   0.918 -0.2288 -0.1056 -0.9340
 3540TIP3   OH232034   1.766   5.752   2.347  0.3373  0.5704 -0.2596
 3540TIP3    H132035   1.749   5.757   2.441  0.5609 -1.1761 -0.0953
 3540TIP3    H232036   1.815   5.832   2.328  1.3544  0.3923  1.3523
 3541TIP3   OH232037   4.077   6.601   5.460  0.4797 -0.3031  0.1992
 3541TIP3    H132038   4.106   6.662   5.392  0.2668 -0.3673  0.0486
 3541TIP3    H232039   4.118   6.633   5.540  0.8498 -0.3131  0.0140
 3542TIP3   OH232040   0.776   4.419   0.953 -0.5229  0.1164 -0.3252
 3542TIP3    H132041   0.689   4.456   0.938 -0.1809  1.1940  0.2101
 3542TIP3    H232042   0.794   4.366   0.875 -1.9238 -0.6862 -0.1379
 3543TIP3   OH232043   4.795   4.872  15.012 -0.4989  0.1197  1.1181
 3543TIP3    H132044   4.816   4.806  14.946 -0.3831  1.2360  0.0064
 3543TIP3    H232045   4.766   4.948  14.962 -1.4655  0.6313  2.4045
 3544TIP3   OH232046   2.343   4.805   0.981  0.4481 -0.1214 -0.2453
 3544TIP3    H132047   2.408   4.839   1.043  0.3230 -0.8227  0.2791
 3544TIP3    H232048   2.363   4.850   0.899 -0.0178  1.5902  0.5297
 3545TIP3   OH232049   3.258   5.440  16.086 -0.5369  0.5991  0.1451
 3545TIP3    H132050   3.256   5.533  16.064 -1.5414  0.8355  1.1165
 3545TIP3    H232051   3.345   5.425  16.122 -0.9715  1.6418  1.7693
 3546TIP3   OH232052   3.402   4.597  14.754  0.1141  0.4552 -0.0579
 3546TIP3    H132053   3.332   4.658  14.735 -0.8838 -0.9662 -1.1698
 3546TIP3    H232054   3.377   4.516  14.709  1.8974 -0.4545  0.4654
 3547TIP3   OH232055   1.164   3.547   0.098 -0.2043  0.3235  0.0010
 3547TIP3    H132056   1.210   3.588   0.024 -0.2880  0.9448  0.2879
 3547TIP3    H232057   1.214   3.468   0.116 -1.1257 -0.7105 -1.7735
 3548TIP3   OH232058   6.290   1.093  12.776  0.4061  0.2755 -0.3135
 3548TIP3    H132059   6.233   1.020  12.750 -1.0798  1.4628 -0.5490
 3548TIP3    H232060   6.355   1.098  12.706 -0.6739  0.4072 -1.3431
 3549TIP3   OH232061   0.791   6.655  12.820  0.0103 -0.4352 -0.1855
 3549TIP3    H132062   0.707   6.657  12.774  0.5562  0.4520 -1.1830
 3549TIP3    H232063   0.846   6.718  12.773  1.6370 -1.8843 -0.3333
 3550TIP3   OH232064   2.242   0.886  11.450 -0.8853  0.5780  0.3237
 3550TIP3    H132065   2.275   0.863  11.364  0.6763  2.0818  0.4685
 3550TIP3    H232066   2.147   0.886  11.440 -0.7751 -0.5389 -1.0258
 3551TIP3   OH232067   4.852   4.606  16.208  0.6344 -0.2636 -0.2373
 3551TIP3    H132068   4.879   4.618  16.299  0.1625 -1.0207  0.0188
 3551TIP3    H232069   4.934   4.605  16.159  0.8179  1.7998 -0.0625
 3552TIP3   OH232070   6.245   4.518  15.953  0.2665 -0.2649 -0.2671
 3552TIP3    H132071   6.188   4.592  15.933  0.0236 -0.6056 -0.8937
 3552TIP3    H232072   6.185   4.448  15.980  0.6312  0.4784  2.8256
 3553TIP3   OH232073   2.039   1.337   1.284  0.0890 -0.3424  0.1226
 3553TIP3    H132074   2.131   1.329   1.259  0.3006 -0.9373  1.0591
 3553TIP3    H232075   1.994   1.360   1.202  1.0156 -0.3754 -0.4107
 3554TIP3   OH232076   1.430   4.957  10.603  0.1100 -0.2057 -0.5225
 3554TIP3    H132077   1.458   4.873  10.637  0.4355  0.6093  1.3712
 3554TIP3    H232078   1.474   4.966  10.518  1.0501 -1.3831 -0.1650
 3555TIP3   OH232079   5.893   0.812  13.138  0.2767 -0.0942  0.4149
 3555TIP3    H132080   5.910   0.785  13.048  0.3846  0.1851  0.3535
 3555TIP3    H232081   5.943   0.749  13.191  0.7265  0.1302  0.2614
 3556TIP3   OH232082   4.055   3.000  16.603  0.3768 -0.1837 -0.2611
 3556TIP3    H132083   4.010   2.932  16.554  0.0306  1.5035 -2.4682
 3556TIP3    H232084   4.148   2.982  16.591  0.2875 -0.4140 -0.6176
 3557TIP3   OH232085   4.179   6.259  15.183 -0.4245 -0.0367  0.4070
 3557TIP3    H132086   4.237   6.217  15.246 -1.8823 -0.7966  1.2992
 3557TIP3    H232087   4.213   6.233  15.098  0.3100 -0.7926  0.9124
 3558TIP3   OH232088   6.229   4.816  14.961  0.3326  0.0875 -0.1903
 3558TIP3    H132089   6.273   4.739  14.995  0.6797  0.3449 -0.0522
 3558TIP3    H232090   6.300   4.874  14.932  0.0718  0.2702 -0.4743
 3559TIP3   OH232091   3.642   3.581   0.543 -0.2811  0.4958 -0.4957
 3559TIP3    H132092   3.555   3.606   0.574  0.0030  0.9319 -0.0530
 3559TIP3    H232093   3.652   3.628   0.460  0.2113  1.7977  0.2813
 3560TIP3   OH232094   0.388   2.213  15.963  0.1587 -0.2869  0.0040
 3560TIP3    H132095   0.326   2.192  15.893 -0.0648 -0.0901  0.1382
 3560TIP3    H232096   0.472   2.181  15.932 -0.3555 -2.5624  0.7345
 3561TIP3   OH232097   3.884   2.063  14.139 -0.9665 -0.3620  0.3607
 3561TIP3    H132098   3.967   2.094  14.175 -0.9960  0.6688 -0.4216
 3561TIP3    H232099   3.845   2.012  14.210  0.4533 -1.0990  0.6475
 3562TIP3   OH232100   5.996   4.948   1.707 -0.9200 -0.1124  0.6500
 3562TIP3    H132101   5.986   5.011   1.778 -1.8246 -1.6367  1.9446
 3562TIP3    H232102   5.958   4.867   1.741 -3.1077 -0.4637 -2.2196
 3563TIP3   OH232103   4.764   1.928   6.488 -0.0877  0.4789 -0.4795
 3563TIP3    H132104   4.747   1.838   6.460 -0.6856  0.7813 -1.1210
 3563TIP3    H232105   4.677   1.968   6.495  0.0157  0.4913  1.6477
 3564TIP3   OH232106   5.618   4.532  17.127 -0.1493  0.4571  0.0875
 3564TIP3    H132107   5.683   4.516  17.196 -0.0885 -3.3340 -0.6196
 3564TIP3    H232108   5.666   4.517  17.045 -1.3706 -0.0523 -0.5493
 3565TIP3   OH232109   4.958   3.992  15.026 -0.9878  0.2052  0.1829
 3565TIP3    H132110   5.031   3.972  14.968 -0.7931 -1.0273  0.8187
 3565TIP3    H232111   4.997   3.999  15.113 -1.3491  1.5379  0.2648
 3566TIP3   OH232112   0.868   1.033   5.142 -0.0291  0.5127  0.7281
 3566TIP3    H132113   0.839   1.030   5.234 -0.1094  3.0227  0.8540
 3566TIP3    H232114   0.788   1.053   5.093  0.7420  4.2660  0.7351
 3567TIP3   OH232115   0.138   6.684  13.507  0.3986  0.0711  0.2623
 3567TIP3    H132116   0.076   6.670  13.435 -0.8079  3.0688  0.5844
 3567TIP3    H232117   0.222   6.700  13.463  0.1169 -0.1334 -0.3721
 3568TIP3   OH232118   5.845   2.214  16.909 -0.2374  0.3881 -0.2413
 3568TIP3    H132119   5.853   2.192  17.002 -0.0931  0.6475 -0.1914
 3568TIP3    H232120   5.811   2.134  16.869 -1.3634  0.6119  0.2071
 3569TIP3   OH232121   1.535   5.201  16.610  0.3144 -0.0375 -0.3653
 3569TIP3    H132122   1.555   5.172  16.699 -0.6619  0.1044 -0.0862
 3569TIP3    H232123   1.439   5.209  16.609  0.2220 -1.1905 -1.7825
 3570TIP3   OH232124   0.907   1.280  12.140  0.2159  0.3129 -0.3206
 3570TIP3    H132125   0.844   1.289  12.212  0.5543 -1.3169  0.2253
 3570TIP3    H232126   0.968   1.353  12.153 -0.2495  0.5745  0.5181
 3571TIP3   OH232127   5.574   5.970  16.064  0.2351  0.0648 -0.0092
 3571TIP3    H132128   5.562   5.934  15.976  0.1445 -1.0939  0.4525
 3571TIP3    H232129   5.528   5.908  16.121 -0.7169  1.4428  0.7463
 3572TIP3   OH232130   5.455   5.867   5.668 -0.2135 -0.0024 -0.7079
 3572TIP3    H132131   5.476   5.775   5.687 -0.7151  0.1385  0.6620
 3572TIP3    H232132   5.392   5.891   5.736  0.7159  1.6609 -0.4001
 3573TIP3   OH232133   4.509   6.107   2.259 -0.0244 -0.4192  0.2639
 3573TIP3    H132134   4.523   6.148   2.174 -2.6146  0.8688  0.3828
 3573TIP3    H232135   4.489   6.016   2.239 -0.0957 -0.2481 -0.4637
 3574TIP3   OH232136   2.565   3.062  12.022  0.1927  0.0847  0.3540
 3574TIP3    H132137   2.585   2.978  11.981  2.7206  0.3253  0.8865
 3574TIP3    H232138   2.587   3.050  12.114 -0.3714  1.0545  0.6370
 3575TIP3   OH232139   3.199   5.046  12.439  0.0765  0.4014 -0.2435
 3575TIP3    H132140   3.250   5.111  12.390 -0.3697  0.9942  0.0546
 3575TIP3    H232141   3.264   4.999  12.491  0.4365  0.4541 -0.6366
 3576TIP3   OH232142   1.921   4.900  13.353 -0.0437 -0.1052  0.1962
 3576TIP3    H132143   1.899   4.952  13.275 -1.4166 -2.2451 -0.9389
 3576TIP3    H232144   1.837   4.865  13.383  0.7170 -0.9278  1.4539
 3577TIP3   OH232145   2.584   5.969  17.041  0.3081 -0.1850  0.1044
 3577TIP3    H132146   2.511   5.970  17.102 -0.2075 -1.1585 -0.4816
 3577TIP3    H232147   2.609   6.062  17.033 -0.3465  0.0725  0.9066
 3578TIP3   OH232148   2.424   3.032   5.473 -0.3130 -0.1650 -0.1025
 3578TIP3    H132149   2.377   3.090   5.533 -0.6432 -0.1001 -0.4248
 3578TIP3    H232150   2.359   3.006   5.409  0.7553  2.4384 -2.4656
 3579TIP3   OH232151   2.190   3.901  12.795 -0.2382 -0.0786 -0.1674
 3579TIP3    H132152   2.253   3.936  12.858 -0.8419  0.4954  0.1335
 3579TIP3    H232153   2.107   3.941  12.820 -1.0027 -1.8062  0.2552
 3580TIP3   OH232154   0.408   6.011  14.528  0.2655  0.4836  0.2590
 3580TIP3    H132155   0.389   6.092  14.574  0.5049  0.0913  1.0714
 3580TIP3    H232156   0.478   6.034  14.467 -0.8904  1.2935 -0.8020
 3581TIP3   OH232157   3.194   1.799  12.716  0.5403  0.0011 -0.4047
 3581TIP3    H132158   3.258   1.866  12.742 -0.4042  0.2445  1.4756
 3581TIP3    H232159   3.240   1.716  12.729  1.0846  0.2171 -0.9007
 3582TIP3   OH232160   3.507   2.628  16.848  0.2195 -0.6697  0.1251
 3582TIP3    H132161   3.438   2.694  16.840 -1.6558 -2.1813  2.3588
 3582TIP3    H232162   3.508   2.584  16.763  0.1083  0.8858 -0.7135
 3583TIP3   OH232163   5.850   6.517   1.527  0.9809 -0.2952  0.6786
 3583TIP3    H132164   5.762   6.554   1.525  1.0934 -0.0381 -0.9380
 3583TIP3    H232165   5.861   6.486   1.617 -0.4623  0.3552  1.1127
 3584TIP3   OH232166   0.023   2.185  14.254 -0.6486  0.4795 -0.7976
 3584TIP3    H132167   0.049   2.233  14.175 -0.4370 -0.1211 -1.0951
 3584TIP3    H232168   0.094   2.123  14.269 -1.2653 -0.2536 -0.8426
 3585TIP3   OH232169   4.459   3.208  17.326  0.1999  0.2166 -0.0925
 3585TIP3    H132170   4.430   3.184  17.414 -1.3668  0.0703 -0.6045
 3585TIP3    H232171   4.421   3.141  17.269  1.3300  0.2091 -0.8698
 3586TIP3   OH232172   0.611   3.148  15.715 -0.5904 -0.1266 -0.1042
 3586TIP3    H132173   0.596   3.054  15.726 -2.1983  0.2019  1.0095
 3586TIP3    H232174   0.564   3.171  15.635  0.7876 -0.4435 -1.0298
 3587TIP3   OH232175   2.309   4.026   0.138 -0.1635 -0.7249  0.9206
 3587TIP3    H132176   2.301   3.931   0.134  0.5624 -0.7783  0.6042
 3587TIP3    H232177   2.230   4.055   0.183 -0.4535 -1.4672  0.8966
 3588TIP3   OH232178   4.568   5.814  16.489  0.4015  0.4476  0.1505
 3588TIP3    H132179   4.517   5.836  16.566 -0.1236  0.2248 -0.1275
 3588TIP3    H232180   4.630   5.886  16.480 -0.4183  1.1542  0.0077
 3589TIP3   OH232181   0.772   1.585  14.157  0.7872 -0.4454  0.1250
 3589TIP3    H132182   0.733   1.638  14.227 -2.4013  0.4223 -2.0751
 3589TIP3    H232183   0.797   1.648  14.090  2.5264 -1.3544 -0.1322
 3590TIP3   OH232184   6.015   5.102  14.805  0.2793  0.8065 -0.6373
 3590TIP3    H132185   5.986   5.192  14.792  2.3663  2.4158  3.7030
 3590TIP3    H232186   5.947   5.064  14.861  1.2241  1.0880  0.7628
 3591TIP3   OH232187   3.152   0.724   3.778  0.1814  0.6355  0.5194
 3591TIP3    H132188   3.079   0.664   3.761  0.0955  0.9142 -0.1279
 3591TIP3    H232189   3.139   0.795   3.716 -0.4768  2.0202  2.1922
 3592TIP3   OH232190   3.397   0.156   4.237 -0.3386 -0.0438  0.2358
 3592TIP3    H132191   3.355   0.176   4.153  2.4201 -0.2017 -1.3105
 3592TIP3    H232192   3.411   0.241   4.277  0.1685  0.2203 -0.4719
 3593TIP3   OH232193   3.678   2.327   0.718  0.2435  0.3943 -0.1203
 3593TIP3    H132194   3.638   2.240   0.713 -2.4086  1.4800  0.2577
 3593TIP3    H232195   3.605   2.387   0.701  1.8233  2.5721  0.4181
 3594TIP3   OH232196   0.516   4.378  13.862 -0.3184 -0.3266 -0.2722
 3594TIP3    H132197   0.428   4.378  13.823 -0.3268 -1.1515 -0.2525
 3594TIP3    H232198   0.525   4.292  13.901  0.0159  0.2039  0.8569
 3595TIP3   OH232199   2.120   1.222   0.166  0.2785 -0.4275 -0.0591
 3595TIP3    H132200   2.101   1.135   0.202 -0.8140  0.2234  1.0062
 3595TIP3    H232201   2.189   1.207   0.102 -0.7954 -2.2731 -0.8501
 3596TIP3   OH232202   4.460   6.038   1.118 -0.1977 -0.3191  0.0271
 3596TIP3    H132203   4.389   6.006   1.061 -1.1451 -0.4235  1.2217
 3596TIP3    H232204   4.417   6.101   1.175  0.3609 -1.4224  1.7222
 3597TIP3   OH232205   3.372   1.311  12.705  0.3945 -0.1850  0.9334
 3597TIP3    H132206   3.286   1.271  12.693  0.9868 -1.6579  1.2660
 3597TIP3    H232207   3.400   1.281  12.792  1.3415  0.0661  0.7295
 3598TIP3   OH232208   2.954   3.701   2.730 -0.2902  0.8839 -0.0013
 3598TIP3    H132209   3.029   3.760   2.722 -0.2493  0.7357 -0.8830
 3598TIP3    H232210   2.878   3.758   2.721 -0.2612  0.8928 -0.1997
 3599TIP3   OH232211   6.524   0.459  12.164  0.1578 -0.3221 -0.6995
 3599TIP3    H132212   6.548   0.494  12.078 -0.8609  0.5444 -0.6459
 3599TIP3    H232213   6.514   0.365  12.149  2.0747 -0.5177 -1.0362
 3600TIP3   OH232214   5.722   5.665   2.098 -0.2826  0.6085  0.1048
 3600TIP3    H132215   5.707   5.742   2.043  2.6001  0.5172 -1.0314
 3600TIP3    H232216   5.662   5.599   2.064 -2.0450  2.0044  0.3977
 3601TIP3   OH232217   6.371   2.824   3.281 -0.1385  0.0279 -0.1236
 3601TIP3    H132218   6.465   2.805   3.279 -0.1146  0.1990 -1.2433
 3601TIP3    H232219   6.366   2.919   3.287 -0.2013  0.1943 -2.1396
 3602TIP3   OH232220   0.427   0.231  16.584 -0.2684  0.0588 -0.2038
 3602TIP3    H132221   0.344   0.231  16.631  0.1427  0.6013  0.5441
 3602TIP3    H232222   0.434   0.142  16.547 -1.4035  0.1607 -0.7131
 3603TIP3   OH232223   2.361   2.966   2.686 -0.0876  0.6177 -0.2638
 3603TIP3    H132224   2.394   2.885   2.646 -2.8611 -1.1882  0.8352
 3603TIP3    H232225   2.283   2.988   2.635 -1.3009  0.6351  1.5217
 3604TIP3   OH232226   0.287   2.072  11.687 -0.1580  0.3908  0.6893
 3604TIP3    H132227   0.233   1.996  11.665 -1.5171  1.7492 -0.9034
 3604TIP3    H232228   0.369   2.034  11.719 -1.9066 -1.7519  3.0402
 3605TIP3   OH232229   4.739   4.453   3.666  0.0938  0.1917 -0.7606
 3605TIP3    H132230   4.678   4.390   3.703  0.4945 -0.1528 -0.6700
 3605TIP3    H232231   4.799   4.473   3.738  2.3424 -2.2801 -1.7806
 3606TIP3   OH232232   2.601   5.257   2.094  0.1257 -0.0076  0.0578
 3606TIP3    H132233   2.566   5.317   2.028  2.0924  3.0096  1.5299
 3606TIP3    H232234   2.523   5.225   2.140 -1.0851  0.1236 -1.7882
 3607TIP3   OH232235   4.382   2.513  16.437 -0.4395  1.0618 -0.0945
 3607TIP3    H132236   4.289   2.490  16.434 -0.5385  1.5613 -1.9022
 3607TIP3    H232237   4.402   2.542  16.348  1.7388 -0.0945 -0.0266
 3608TIP3   OH232238   0.377   3.574   0.885  0.0389  0.2865  0.6118
 3608TIP3    H132239   0.285   3.600   0.884 -0.2777 -0.6896  1.6768
 3608TIP3    H232240   0.413   3.617   0.962  0.8094  1.6399 -0.4586
 3609TIP3   OH232241   5.494   2.041  15.845  0.5304 -0.4287 -0.2210
 3609TIP3    H132242   5.475   2.043  15.751  0.2447 -0.2781 -0.1595
 3609TIP3    H232243   5.484   1.949  15.870  0.4237 -0.4381 -0.2999
 3610TIP3   OH232244   3.501   4.096  14.721 -0.1222 -0.3491 -0.6036
 3610TIP3    H132245   3.425   4.044  14.696 -0.0360 -0.6387 -0.2793
 3610TIP3    H232246   3.480   4.185  14.693 -0.6097 -0.4134 -0.4520
 3611TIP3   OH232247   4.844   2.701   0.165  0.1298  0.1577 -0.1031
 3611TIP3    H132248   4.836   2.775   0.225 -0.0467 -0.1081  0.2073
 3611TIP3    H232249   4.814   2.626   0.217 -0.3670 -0.0201 -0.6381
 3612TIP3   OH232250   6.253   1.520   5.571 -0.2856  0.0167  0.1574
 3612TIP3    H132251   6.202   1.592   5.606  1.4248  0.9116  0.9558
 3612TIP3    H232252   6.242   1.527   5.476  0.1326  1.5743  0.2036
 3613TIP3   OH232253   3.231   3.170  10.870  0.1316 -0.1664 -0.3652
 3613TIP3    H132254   3.245   3.076  10.868 -0.9331 -0.4528  1.9506
 3613TIP3    H232255   3.212   3.194  10.779  1.7574 -1.9156 -1.2238
 3614TIP3   OH232256   3.240   4.682  12.326 -0.4834  0.5403 -0.1360
 3614TIP3    H132257   3.156   4.677  12.280  0.1480  1.5903 -1.4467
 3614TIP3    H232258   3.242   4.772  12.361 -0.9869 -0.2433  2.0848
 3615TIP3   OH232259   4.166   1.308  17.232  0.2950  0.6979  0.1198
 3615TIP3    H132260   4.110   1.290  17.307 -0.6938 -0.7314 -0.8961
 3615TIP3    H232261   4.214   1.387  17.255  1.0909 -0.4831  2.8560
 3616TIP3   OH232262   0.577   6.378  10.600 -0.0740 -0.2267 -0.2099
 3616TIP3    H132263   0.648   6.346  10.656 -0.2975  0.3073  0.3923
 3616TIP3    H232264   0.500   6.379  10.658  0.0234  1.8433 -0.0655
 3617TIP3   OH232265   6.514   1.395  11.200 -0.4441  0.4595 -0.1825
 3617TIP3    H132266   6.519   1.365  11.109  3.9013  2.0156 -0.7005
 3617TIP3    H232267   6.486   1.486  11.194 -1.3106  0.2256  0.1888
 3618TIP3   OH232268   2.313   4.254  15.976 -0.2121 -0.8528 -0.1489
 3618TIP3    H132269   2.325   4.328  16.036 -1.1468 -1.8304  1.3272
 3618TIP3    H232270   2.223   4.223  15.993  0.5262 -3.0366  0.1605
 3619TIP3   OH232271   4.133   4.861  14.874  0.1149 -0.1180 -0.0944
 3619TIP3    H132272   4.221   4.889  14.850 -0.6022  0.1409 -2.6481
 3619TIP3    H232273   4.140   4.766  14.886  0.6948 -0.1423 -0.6009
 3620TIP3   OH232274   2.134   6.704  12.684 -0.1165  0.2269  0.7632
 3620TIP3    H132275   2.195   6.775  12.703  0.5360 -0.1523  0.1386
 3620TIP3    H232276   2.051   6.732  12.724  0.4784  0.7066  1.6978
 3621TIP3   OH232277   3.500   1.924  13.641  0.3033 -0.1067  0.7355
 3621TIP3    H132278   3.490   1.833  13.614  2.0024  0.0571 -0.6296
 3621TIP3    H232279   3.533   1.920  13.730 -2.6464 -0.7180  1.9125
 3622TIP3   OH232280   0.073   3.420  13.760  0.1041 -0.1735 -0.3227
 3622TIP3    H132281   0.113   3.400  13.675  0.7559 -0.3713  0.0239
 3622TIP3    H232282  -0.019   3.395  13.750 -0.2347  1.4166 -1.5272
 3623TIP3   OH232283   1.032   4.179  10.780  0.0168 -0.2080  0.0881
 3623TIP3    H132284   1.105   4.239  10.795 -0.2583  0.2911 -0.5056
 3623TIP3    H232285   0.955   4.229  10.807 -0.0197 -1.1676  1.8787
 3624TIP3   OH232286   5.826   2.832   4.930 -0.6657  0.3263  0.1316
 3624TIP3    H132287   5.863   2.853   5.016  0.0468 -1.6589  0.3696
 3624TIP3    H232288   5.900   2.837   4.870 -1.1069  1.4281 -0.3479
 3625TIP3   OH232289   5.824   3.462  15.966 -0.3515 -0.5078  0.2512
 3625TIP3    H132290   5.836   3.552  15.996 -0.6091 -0.1269 -0.7595
 3625TIP3    H232291   5.880   3.454  15.889  0.3009 -1.4764  0.7806
 3626TIP3   OH232292   0.673   6.731  13.687  0.1675  0.5637 -0.0609
 3626TIP3    H132293   0.678   6.637  13.702  0.1413  0.3412 -1.3500
 3626TIP3    H232294   0.582   6.754  13.704  0.0411  0.2447 -0.2960
 3627TIP3   OH232295   3.578   6.169   2.079  0.0420  0.0650  0.0825
 3627TIP3    H132296   3.603   6.191   2.168 -0.1060  0.5472  0.0053
 3627TIP3    H232297   3.525   6.243   2.049  0.5837  0.1855 -0.6142
 3628TIP3   OH232298   2.799   4.959   6.184  0.1248  0.2773  0.1500
 3628TIP3    H132299   2.794   4.877   6.234 -0.4642 -0.0288 -0.4008
 3628TIP3    H232300   2.833   5.023   6.247 -0.3686 -0.1589  0.8785
 3629TIP3   OH232301   0.492   2.373   3.509  0.0663 -0.4998 -0.2399
 3629TIP3    H132302   0.415   2.331   3.548  0.5224 -1.7839 -0.6590
 3629TIP3    H232303   0.551   2.300   3.489  0.5928  0.2716 -1.6509
 3630TIP3   OH232304   0.464   5.648  11.460  0.4180 -0.1914 -0.1256
 3630TIP3    H132305   0.511   5.718  11.416  0.2307  0.8166  1.1930
 3630TIP3    H232306   0.379   5.645  11.416  0.5083  0.2651 -0.3389
 3631TIP3   OH232307   5.208   5.499  13.084  0.0405 -0.0293  0.3478
 3631TIP3    H132308   5.255   5.419  13.058  0.0410 -0.1742  0.7957
 3631TIP3    H232309   5.252   5.527  13.164 -0.3964  0.0457  0.5608
 3632TIP3   OH232310   3.553   3.183   0.876 -0.0932  0.5994  0.0684
 3632TIP3    H132311   3.614   3.110   0.883 -0.1330  0.6691  1.2973
 3632TIP3    H232312   3.597   3.256   0.919 -1.4613  0.3468  2.0378
 3633TIP3   OH232313   5.204   6.487   5.550 -0.0777 -0.1431 -0.7116
 3633TIP3    H132314   5.257   6.508   5.627 -0.7891 -0.3026 -0.1605
 3633TIP3    H232315   5.117   6.466   5.586 -0.0536 -1.6034 -1.4434
 3634TIP3   OH232316   5.447   4.626  17.318  0.2252 -0.0470 -0.3212
 3634TIP3    H132317   5.478   4.544  17.278  1.3497 -0.1609  0.7412
 3634TIP3    H232318   5.460   4.613  17.412  1.8831  1.9222 -0.2333
 3635TIP3   OH232319   3.990   3.581  13.232 -0.1010  1.0221  0.1100
 3635TIP3    H132320   4.048   3.566  13.157  0.9332  2.2467  0.6260
 3635TIP3    H232321   3.904   3.596  13.193  0.2976  1.0164 -0.8036
 3636TIP3   OH232322   5.389   2.648  12.791 -0.4973 -0.5922  0.1793
 3636TIP3    H132323   5.346   2.709  12.730 -1.1836 -0.4378  0.7976
 3636TIP3    H232324   5.474   2.689  12.809  0.3762 -1.3921 -1.8288
 3637TIP3   OH232325   5.037   0.109   1.245 -0.4087  0.1474 -0.4009
 3637TIP3    H132326   4.987   0.115   1.163 -1.4427  1.0641  0.2584
 3637TIP3    H232327   4.971   0.091   1.312  0.1884  0.9947  0.4469
 3638TIP3   OH232328   5.852   3.750   3.818 -0.4766 -0.4935 -0.0422
 3638TIP3    H132329   5.777   3.690   3.812  0.4684 -1.9861  1.9531
 3638TIP3    H232330   5.924   3.701   3.778  0.4280 -0.9994  2.0746
 3639TIP3   OH232331   3.859   3.554  11.516 -0.2797  0.4184 -0.2908
 3639TIP3    H132332   3.885   3.641  11.546  0.1615  0.5232 -0.9580
 3639TIP3    H232333   3.773   3.540  11.556  0.2389  0.5852  0.9374
 3640TIP3   OH232334   6.706   5.067  14.448  0.0206  0.0014  0.2524
 3640TIP3    H132335   6.687   5.020  14.529 -1.0431  1.8772  1.1380
 3640TIP3    H232336   6.774   5.014  14.405 -1.3554 -2.4979  0.9894
 3641TIP3   OH232337   0.439   5.531  13.439 -0.3320  0.1348  0.0573
 3641TIP3    H132338   0.383   5.570  13.506  0.1384 -0.0431  0.5538
 3641TIP3    H232339   0.400   5.445  13.422  0.3202 -0.3863  1.0906
 3642TIP3   OH232340   0.822   0.857   4.371 -0.0880  0.4773 -0.1851
 3642TIP3    H132341   0.867   0.854   4.455  0.1806 -1.1594 -0.3656
 3642TIP3    H232342   0.870   0.922   4.320  0.2709  0.8548  0.6151
 3643TIP3   OH232343   5.782   4.501  15.271  0.0831  0.5820 -0.3893
 3643TIP3    H132344   5.706   4.499  15.329  0.3363 -0.1493 -0.0749
 3643TIP3    H232345   5.769   4.426  15.212  1.2021 -0.3524  0.5122
 3644TIP3   OH232346   2.825   1.797  16.589 -0.5021 -0.0412 -0.0687
 3644TIP3    H132347   2.793   1.887  16.591  0.1531  0.2104 -0.6690
 3644TIP3    H232348   2.835   1.778  16.496 -0.9959 -0.8695  0.0373
 3645TIP3   OH232349   6.692   1.400   3.320 -0.2609  0.6857  0.6481
 3645TIP3    H132350   6.781   1.368   3.335 -0.7921 -2.4946 -1.8110
 3645TIP3    H232351   6.670   1.367   3.233 -3.8714  1.3059  1.1914
 3646TIP3   OH232352   4.522   6.682  14.886  0.4821  0.6861  0.5891
 3646TIP3    H132353   4.572   6.763  14.875  0.6590  0.5627  0.4680
 3646TIP3    H232354   4.490   6.686  14.976  0.0918  1.1076  0.4361
 3647TIP3   OH232355   0.786   1.349  16.433 -0.4198  0.0801  0.5849
 3647TIP3    H132356   0.819   1.432  16.467 -0.3272  0.9045 -1.3781
 3647TIP3    H232357   0.844   1.283  16.469  0.1455  0.9779  1.3515
 3648TIP3   OH232358   4.758   5.150   2.636  0.5681 -0.0462  0.4630
 3648TIP3    H132359   4.804   5.101   2.568 -0.1985 -0.3266  0.1241
 3648TIP3    H232360   4.790   5.240   2.628  0.8983 -0.1947  0.1072
 3649TIP3   OH232361   3.400   3.147  13.550 -0.0805  0.0238  0.0435
 3649TIP3    H132362   3.382   3.203  13.625 -0.3880 -0.7409  0.5546
 3649TIP3    H232363   3.394   3.205  13.474 -0.4214  0.6672  0.5542
 3650TIP3   OH232364   1.667   3.529  17.053 -0.2342  0.4063 -0.0922
 3650TIP3    H132365   1.590   3.484  17.018  0.3929 -0.3310 -0.5651
 3650TIP3    H232366   1.705   3.573  16.978  0.3635 -0.0700 -0.0778
 3651TIP3   OH232367   1.609   0.840  13.851  0.0236 -0.5810 -0.2199
 3651TIP3    H132368   1.633   0.771  13.789  1.1105 -1.4934  1.1462
 3651TIP3    H232369   1.669   0.912  13.831  0.7310 -1.0727  0.0918
 3652TIP3   OH232370   2.652   0.928  12.226 -0.3552  0.0322  0.3476
 3652TIP3    H132371   2.631   0.896  12.315 -0.2711 -0.7608  0.0918
 3652TIP3    H232372   2.740   0.895  12.209 -0.8618 -0.9111 -0.5188
 3653TIP3   OH232373   5.143   6.276  11.605 -0.3164  0.3816  0.3286
 3653TIP3    H132374   5.232   6.284  11.641 -0.9499  0.0203  2.0386
 3653TIP3    H232375   5.141   6.342  11.535  0.9094  1.2583  1.0672
 3654TIP3   OH232376   5.503   6.277  16.599  0.3895  0.3175 -0.6616
 3654TIP3    H132377   5.434   6.307  16.540 -0.2831  1.1919  0.5259
 3654TIP3    H232378   5.536   6.357  16.640  1.6986 -0.1532 -0.7528
 3655TIP3   OH232379   2.143   3.204  16.593  0.6645 -0.1728 -0.0404
 3655TIP3    H132380   2.128   3.286  16.546 -0.9539 -0.3925  0.0652
 3655TIP3    H232381   2.091   3.139  16.547 -0.0096 -0.6397  1.3349
 3656TIP3   OH232382   2.317   2.161   3.000  0.5568  0.1263 -0.2935
 3656TIP3    H132383   2.377   2.215   3.052 -1.1989  2.0982 -0.1799
 3656TIP3    H232384   2.253   2.128   3.064 -0.1961  0.5261 -0.8275
 3657TIP3   OH232385   1.507   5.872   5.494 -0.4275  0.0073  0.3551
 3657TIP3    H132386   1.504   5.940   5.427  0.5501  1.3059  1.5706
 3657TIP3    H232387   1.598   5.873   5.525 -0.5113 -1.5519  0.7119
 3658TIP3   OH232388   5.686   5.980   3.337 -0.2738 -0.4284 -0.2755
 3658TIP3    H132389   5.776   5.979   3.368 -0.7902  1.0988  1.4469
 3658TIP3    H232390   5.661   5.887   3.333  0.9401 -0.8123  0.5831
 3659TIP3   OH232391   2.242   6.633  14.354 -0.5600  0.0383  0.4270
 3659TIP3    H132392   2.230   6.691  14.278  1.6026  1.1613  0.8583
 3659TIP3    H232393   2.211   6.685  14.428 -1.6283 -0.6369  0.4755
 3660TIP3   OH232394   1.132   1.684  16.065 -0.2115 -0.7871 -0.1747
 3660TIP3    H132395   1.137   1.778  16.044 -1.7428 -0.3427  1.1646
 3660TIP3    H232396   1.194   1.672  16.137 -1.2192 -0.3980  0.7899
 3661TIP3   OH232397   0.291   0.396  15.958  0.2200  0.3463  0.4279
 3661TIP3    H132398   0.343   0.327  15.999 -1.5511 -1.2642  0.0904
 3661TIP3    H232399   0.346   0.428  15.887  2.1254  1.1464  2.1350
 3662TIP3   OH232400   5.687   3.526  16.606 -0.5549 -0.5020 -1.1706
 3662TIP3    H132401   5.747   3.541  16.679 -1.9741 -0.9066  0.1524
 3662TIP3    H232402   5.605   3.500  16.648 -1.3114 -1.1561 -2.9472
 3663TIP3   OH232403   5.226   2.675  16.853 -0.4858  0.5598  0.0048
 3663TIP3    H132404   5.167   2.738  16.811 -0.9416  1.4432  1.8487
 3663TIP3    H232405   5.216   2.692  16.947  3.2020  1.1987  0.4207
 3664TIP3   OH232406   4.949   0.978  10.265 -0.2230  0.0287  0.4101
 3664TIP3    H132407   4.941   1.040  10.192 -1.4358  0.1950  0.6673
 3664TIP3    H232408   4.952   1.033  10.343  3.2622 -0.0055  0.4585
 3665TIP3   OH232409   0.598   0.709   0.813 -0.0862  0.7295 -0.3670
 3665TIP3    H132410   0.581   0.711   0.719  0.2097 -0.1206 -0.4408
 3665TIP3    H232411   0.530   0.654   0.849 -0.0291  0.8218 -0.1141
 3666TIP3   OH232412   2.504   1.616   4.913 -0.7015  0.9677  0.5437
 3666TIP3    H132413   2.503   1.588   4.821  2.5751  1.0361  0.3523
 3666TIP3    H232414   2.412   1.625   4.936 -1.6819 -0.0378 -2.4197
 3667TIP3   OH232415   0.029   4.491  13.100 -0.2547  0.0684  0.5942
 3667TIP3    H132416   0.008   4.506  13.008  1.3563 -0.7116  0.0586
 3667TIP3    H232417   0.122   4.510  13.107  0.1236 -1.8844  1.5756
 3668TIP3   OH232418   4.746   4.071  16.581  0.9343 -0.1875 -0.4916
 3668TIP3    H132419   4.755   4.146  16.522 -2.5718  0.6896 -0.1111
 3668TIP3    H232420   4.750   4.109  16.669 -1.4401 -0.2336 -0.2945
 3669TIP3   OH232421   2.111   5.388  16.121 -0.2773  0.2494 -0.1303
 3669TIP3    H132422   2.205   5.395  16.136 -0.0026 -1.4731 -0.8842
 3669TIP3    H232423   2.091   5.296  16.137 -2.5676  1.1886  3.8660
 3670TIP3   OH232424   6.746   0.373   1.400 -0.1538  0.2185  0.3555
 3670TIP3    H132425   6.760   0.282   1.428 -0.6791  0.0036 -0.0654
 3670TIP3    H232426   6.739   0.422   1.481  1.1715  0.0514  0.5977
 3671TIP3   OH232427   2.566   2.635  12.486 -0.1047 -0.5314  0.5682
 3671TIP3    H132428   2.630   2.574  12.450 -0.0103 -0.1378  0.0472
 3671TIP3    H232429   2.552   2.699  12.416  0.6621  0.7124  1.5033
 3672TIP3   OH232430   1.898   0.759   4.956 -0.3267 -0.3713 -0.6770
 3672TIP3    H132431   1.966   0.756   5.024  0.1097 -1.2865 -1.1421
 3672TIP3    H232432   1.881   0.853   4.944  1.1693 -0.0967 -0.8579
 3673TIP3   OH232433   4.186   3.546   4.007  0.2218 -0.7095  0.0064
 3673TIP3    H132434   4.194   3.467   3.953 -0.4808  0.3403 -1.7339
 3673TIP3    H232435   4.272   3.555   4.049  1.0980 -1.1333 -1.6056
 3674TIP3   OH232436   4.810   3.851   3.274  0.1360 -0.1784 -0.0781
 3674TIP3    H132437   4.888   3.837   3.221 -0.3144  1.9396 -1.4197
 3674TIP3    H232438   4.737   3.834   3.213 -0.4273 -0.0792  0.5592
 3675TIP3   OH232439   3.362   4.952  13.178  0.2485  0.2994 -0.1279
 3675TIP3    H132440   3.455   4.964  13.157  0.4716  0.2647  0.8001
 3675TIP3    H232441   3.347   5.011  13.252 -0.5707  0.5906 -0.5089
 3676TIP3   OH232442   5.226   1.418  13.147 -0.1105 -0.2411  0.4907
 3676TIP3    H132443   5.249   1.509  13.162  3.0353 -0.7297 -0.6030
 3676TIP3    H232444   5.269   1.395  13.064 -0.7118 -2.7336  0.7759
 3677TIP3   OH232445   6.643   4.354  17.142  0.3721 -0.5711 -0.0395
 3677TIP3    H132446   6.593   4.278  17.172 -1.6785  0.0285 -1.7073
 3677TIP3    H232447   6.589   4.429  17.164  1.4059  0.2666 -0.2743
 3678TIP3   OH232448   6.392   3.837   5.305 -0.5829 -0.6892 -0.7139
 3678TIP3    H132449   6.305   3.848   5.343 -0.3135 -2.7390  0.6831
 3678TIP3    H232450   6.378   3.840   5.211 -1.6505  2.1449 -0.5562
 3679TIP3   OH232451   0.340   3.649  12.516  0.1497 -0.0896 -0.4385
 3679TIP3    H132452   0.370   3.691  12.596 -1.3778  4.0764 -1.8128
 3679TIP3    H232453   0.257   3.608  12.539  0.4791 -0.3189  0.3884
 3680TIP3   OH232454   4.310   5.958   3.025  0.4536  0.3067 -0.2911
 3680TIP3    H132455   4.226   5.919   3.001  1.1874 -2.4672  1.2567
 3680TIP3    H232456   4.370   5.933   2.955  0.2173  1.6666 -1.0216
 3681TIP3   OH232457   4.869   1.060   3.896  0.3017 -0.4293  0.3057
 3681TIP3    H132458   4.904   0.971   3.903 -0.5704 -0.7573  0.7115
 3681TIP3    H232459   4.856   1.074   3.803 -0.6070 -1.1652  0.3078
 3682TIP3   OH232460   2.895   3.729   2.418 -0.7085 -0.3298 -0.5669
 3682TIP3    H132461   2.842   3.693   2.347 -1.0010  0.2304 -0.6349
 3682TIP3    H232462   2.900   3.658   2.482 -0.2565 -0.9114 -1.2431
 3683TIP3   OH232463   4.291   5.285   1.017  0.0268  0.4247  0.6739
 3683TIP3    H132464   4.201   5.254   1.020  0.4266 -0.8899  0.0583
 3683TIP3    H232465   4.299   5.329   0.932 -0.0036  0.4259  0.6718
 3684TIP3   OH232466   3.447   3.395  11.232 -0.1438  0.2425  0.2895
 3684TIP3    H132467   3.390   3.381  11.156  0.9778 -1.7289 -0.2481
 3684TIP3    H232468   3.476   3.486  11.222  0.8692 -0.2706 -2.3223
 3685TIP3   OH232469   6.244   6.490  11.264  0.2723 -0.0951  0.0396
 3685TIP3    H132470   6.339   6.496  11.280  0.2605 -0.6283  0.3405
 3685TIP3    H232471   6.207   6.470  11.350 -0.2092  1.0105  0.1010
 3686TIP3   OH232472   3.540   4.510   0.512  0.1409 -0.4295  0.0339
 3686TIP3    H132473   3.534   4.589   0.459 -0.6297 -0.6536 -0.2246
 3686TIP3    H232474   3.571   4.540   0.598 -1.9978  0.4548  0.5549
 3687TIP3   OH232475   2.735   1.450   3.953 -0.2559 -0.0979  0.6220
 3687TIP3    H132476   2.781   1.533   3.963 -0.3640 -0.0207  0.4701
 3687TIP3    H232477   2.668   1.467   3.887 -0.0437 -0.4026  0.3234
 3688TIP3   OH232478   4.435   2.994   2.929 -0.3156  0.4819 -0.2867
 3688TIP3    H132479   4.467   3.071   2.976 -0.5504  0.6757 -0.4436
 3688TIP3    H232480   4.379   2.948   2.992  2.0800 -1.1360  0.8265
 3689TIP3   OH232481   0.329   4.546   6.040 -0.7723 -0.7570 -0.3469
 3689TIP3    H132482   0.387   4.531   6.115 -1.3456  1.0393  0.5117
 3689TIP3    H232483   0.367   4.621   5.994 -1.5683 -0.5160 -0.6326
 3690TIP3   OH232484   6.281   1.590  11.186 -0.2425 -0.0426  0.3734
 3690TIP3    H132485   6.229   1.512  11.170  0.2657 -0.1055 -1.0915
 3690TIP3    H232486   6.224   1.647  11.239 -1.3575 -0.5728 -0.2361
 3691TIP3   OH232487   3.783   0.673  15.451 -0.3600  0.2285  0.2613
 3691TIP3    H132488   3.762   0.659  15.543  0.2395  1.2100  0.5586
 3691TIP3    H232489   3.720   0.618  15.403 -1.6895  0.8820  1.2035
 3692TIP3   OH232490   4.493   6.293   2.619  0.2250  0.3792 -0.1410
 3692TIP3    H132491   4.442   6.314   2.542  0.6520 -0.3570 -0.6328
 3692TIP3    H232492   4.582   6.324   2.599  0.5262 -0.5532 -0.2880
 3693TIP3   OH232493   4.187   4.743   1.448  0.5477  0.2765  0.4532
 3693TIP3    H132494   4.148   4.715   1.365  2.1577  0.2806 -0.3291
 3693TIP3    H232495   4.278   4.762   1.427  0.4965  2.3120  1.8004
 3694TIP3   OH232496   0.727   5.976   4.627 -0.5620 -0.3615 -0.1404
 3694TIP3    H132497   0.773   5.954   4.708  0.2567  0.1831 -0.4529
 3694TIP3    H232498   0.786   6.035   4.581 -1.3484 -0.0696 -0.7933
 3695TIP3   OH232499   5.611   2.594  14.958  0.5813 -0.3649 -0.3486
 3695TIP3    H132500   5.525   2.567  14.926  0.8012 -0.0930 -1.1865
 3695TIP3    H232501   5.672   2.535  14.915  0.9048  0.1797 -0.6416
 3696TIP3   OH232502   1.783   3.301  14.496 -1.0346 -0.2751  0.4853
 3696TIP3    H132503   1.805   3.209  14.510 -1.5347 -0.5549 -0.4990
 3696TIP3    H232504   1.800   3.342  14.581  1.5164 -0.7767  0.2897
 3697TIP3   OH232505   2.792   5.882  12.053  0.5763 -1.0870  0.4491
 3697TIP3    H132506   2.864   5.819  12.050  1.0117 -0.5860 -1.8812
 3697TIP3    H232507   2.827   5.959  12.008 -1.1694 -0.5637 -0.0659
 3698TIP3   OH232508   5.220   1.722   0.493  0.5437 -0.1696 -0.5275
 3698TIP3    H132509   5.161   1.787   0.454  2.0597  0.4087 -1.9675
 3698TIP3    H232510   5.219   1.649   0.430  1.0619 -0.3153 -0.3693
 3699TIP3   OH232511   6.129   1.783   4.720  0.5035  0.6751  0.0536
 3699TIP3    H132512   6.134   1.706   4.662  0.6723  0.8490 -0.1643
 3699TIP3    H232513   6.052   1.831   4.689  1.6510  1.7402 -1.2430
 3700TIP3   OH232514   3.430   2.254   5.307  0.1675  0.0857 -0.1514
 3700TIP3    H132515   3.430   2.349   5.297 -1.7547  0.2777  1.1359
 3700TIP3    H232516   3.354   2.225   5.257  0.8614 -0.8170 -0.7084
 3701TIP3   OH232517   2.063   4.102   1.634 -0.0591  0.1701 -0.2974
 3701TIP3    H132518   2.067   4.024   1.578 -2.1680 -0.4810  0.3661
 3701TIP3    H232519   2.114   4.079   1.712  0.5133  0.0156 -0.7100
 3702TIP3   OH232520   6.059   4.109  16.371  0.0292  1.3571  0.6494
 3702TIP3    H132521   6.092   4.128  16.283  0.9484 -1.5670  0.2259
 3702TIP3    H232522   5.989   4.046  16.357 -0.8756  2.0187  1.9740
 3703TIP3   OH232523   5.719   1.392  16.289  0.4222  0.0240  0.0695
 3703TIP3    H132524   5.699   1.302  16.263  0.2307  0.6028 -1.9187
 3703TIP3    H232525   5.640   1.421  16.334 -0.0496 -0.3655 -0.4919
 3704TIP3   OH232526   2.457   6.345   4.720 -0.4905  0.0702 -0.4409
 3704TIP3    H132527   2.437   6.388   4.637  0.6482  1.1382 -0.1863
 3704TIP3    H232528   2.462   6.417   4.783  0.8251 -0.4889  0.1151
 3705TIP3   OH232529   3.465   4.674  13.772 -0.1660  0.5573  0.1205
 3705TIP3    H132530   3.400   4.652  13.706 -2.5739  1.9305  1.8538
 3705TIP3    H232531   3.489   4.765  13.752  0.0634  0.5545  0.3800
 3706TIP3   OH232532   0.917   1.346   2.384 -0.2728 -0.0178 -0.4758
 3706TIP3    H132533   0.955   1.292   2.453  0.2246  2.4540  1.3234
 3706TIP3    H232534   0.971   1.329   2.307  1.0505 -0.6454  0.5494
 3707TIP3   OH232535   4.913   3.146  13.326  0.2142 -0.2169  0.1598
 3707TIP3    H132536   4.828   3.181  13.354 -1.3057  0.2083 -4.2769
 3707TIP3    H232537   4.899   3.052  13.320  1.1039 -0.5368  2.2542
 3708TIP3   OH232538   4.644   1.881  13.659  0.5400  0.0900  0.4164
 3708TIP3    H132539   4.580   1.951  13.645  0.9797  0.2670 -0.8934
 3708TIP3    H232540   4.593   1.808  13.693 -0.9022 -0.6128 -2.8341
 3709TIP3   OH232541   5.990   3.666   1.927 -0.4187 -0.5692  0.4737
 3709TIP3    H132542   5.983   3.623   2.013 -1.4989 -0.0734  0.6541
 3709TIP3    H232543   6.084   3.677   1.914 -0.1562 -2.2242  0.7921
 3710TIP3   OH232544   4.866   6.707   6.043  0.3575 -0.5686  0.0593
 3710TIP3    H132545   4.868   6.612   6.053  0.5738 -0.6734 -0.9101
 3710TIP3    H232546   4.932   6.726   5.976  0.7389  0.3214  0.6674
 3711TIP3   OH232547   2.709   1.299  13.081 -0.2056  0.3409 -0.4799
 3711TIP3    H132548   2.673   1.378  13.040 -0.6006 -0.5431 -1.9341
 3711TIP3    H232549   2.804   1.309  13.073 -0.2155  1.0233  0.0939
 3712TIP3   OH232550   4.664   5.239   3.527  0.0805  0.1364  0.3173
 3712TIP3    H132551   4.680   5.312   3.587  1.9481  0.0557 -0.0144
 3712TIP3    H232552   4.727   5.252   3.456 -1.1157 -0.5590 -0.9207
 3713TIP3   OH232553   6.200   1.538   1.560  0.2200 -0.1109 -0.5302
 3713TIP3    H132554   6.280   1.591   1.561  1.7577 -2.2668  1.7486
 3713TIP3    H232555   6.212   1.478   1.487 -0.1733  0.6648 -1.2603
 3714TIP3   OH232556   4.136   3.992  15.907  0.2373 -0.4519 -0.0261
 3714TIP3    H132557   4.119   4.055  15.977 -1.4552  0.7091 -1.3889
 3714TIP3    H232558   4.212   4.028  15.861 -0.0965  0.0589 -0.1848
 3715TIP3   OH232559   1.544   4.482  15.065  0.0191 -0.4111 -0.2415
 3715TIP3    H132560   1.509   4.457  15.151  1.4443 -0.7510  0.2628
 3715TIP3    H232561   1.537   4.401  15.013  0.5310 -0.6285  0.0217
 3716TIP3   OH232562   1.201   0.569   3.057 -0.0807 -0.2023  0.0970
 3716TIP3    H132563   1.266   0.606   2.997 -0.6052  0.8954  0.1918
 3716TIP3    H232564   1.174   0.643   3.112 -0.2079 -1.0064  1.1522
 3717TIP3   OH232565   1.788   0.572   5.173 -0.3369  0.5201 -0.1613
 3717TIP3    H132566   1.880   0.553   5.189 -0.7072 -0.6719  0.6867
 3717TIP3    H232567   1.740   0.512   5.231 -1.6626  0.1944 -1.5308
 3718TIP3   OH232568   1.286   2.730   3.517  1.1734  0.3631 -0.1913
 3718TIP3    H132569   1.329   2.738   3.432 -0.3170  1.5192 -0.8840
 3718TIP3    H232570   1.194   2.713   3.496  0.6275  1.4313  1.1653
 3719TIP3   OH232571   3.662   3.586  12.692  0.4252 -0.0688 -0.4229
 3719TIP3    H132572   3.673   3.501  12.649  1.0132 -0.5644  0.6712
 3719TIP3    H232573   3.671   3.568  12.786  3.6022  1.5912 -0.2424
 3720TIP3   OH232574   5.300   6.501   0.404 -0.1683 -0.6443  0.7976
 3720TIP3    H132575   5.305   6.450   0.484  1.1310 -2.2880 -0.2679
 3720TIP3    H232576   5.391   6.518   0.380 -0.4947 -0.8372 -0.7000
 3721TIP3   OH232577   4.634   3.783   0.145  0.6268 -0.3470 -0.0851
 3721TIP3    H132578   4.608   3.706   0.195  0.1165 -0.8987 -1.1466
 3721TIP3    H232579   4.570   3.787   0.074  0.9363  0.7830 -0.3194
 3722TIP3   OH232580   2.284   5.521  17.062  0.2850  0.1029 -1.0009
 3722TIP3    H132581   2.228   5.593  17.035  0.4325  0.3152 -0.7457
 3722TIP3    H232582   2.347   5.510  16.991  0.2574  0.2221 -1.0426
 3723TIP3   OH232583   4.749   5.350  16.799  0.0775 -0.1595  0.1903
 3723TIP3    H132584   4.658   5.354  16.769 -0.2340  1.2070  1.2440
 3723TIP3    H232585   4.761   5.259  16.827 -0.8245 -0.4517 -0.3215
 3724TIP3   OH232586   1.540   5.401   3.463  0.1233 -0.4647 -0.7202
 3724TIP3    H132587   1.552   5.351   3.544 -0.7737 -1.9715 -1.4858
 3724TIP3    H232588   1.460   5.452   3.479  0.1058 -0.5400 -0.5574
 3725TIP3   OH232589   6.269   3.917   6.149 -0.5444  0.1621  0.1205
 3725TIP3    H132590   6.288   3.975   6.223 -0.4964  0.0041  0.2318
 3725TIP3    H232591   6.338   3.851   6.151  0.6138  1.2678 -1.2415
 3726TIP3   OH232592   2.243   2.348   1.521  0.0024  0.2297  0.1391
 3726TIP3    H132593   2.158   2.393   1.519  0.0824  0.3594 -0.9141
 3726TIP3    H232594   2.305   2.413   1.487  0.6801  0.4362  1.7250
 3727TIP3   OH232595   6.257   2.607   0.092 -0.6745  0.4213  0.7775
 3727TIP3    H132596   6.248   2.618   0.187 -3.1324 -1.2387  0.8263
 3727TIP3    H232597   6.212   2.683   0.055  0.7997  1.3853  0.8810
 3728TIP3   OH232598   5.370   1.009   4.431  0.4644 -0.3366 -0.0477
 3728TIP3    H132599   5.465   1.015   4.423  0.4173  0.8785  0.0628
 3728TIP3    H232600   5.356   0.994   4.525  0.5508 -0.5666 -0.0714
 3729TIP3   OH232601   5.941   0.698  14.584 -0.6653  0.8366 -0.7554
 3729TIP3    H132602   5.927   0.775  14.640 -0.2778  0.1616  0.3171
 3729TIP3    H232603   5.916   0.624  14.640 -0.2632  0.1339 -1.4891
 3730TIP3   OH232604   0.523   0.368   4.778  0.7753 -0.4202  0.3055
 3730TIP3    H132605   0.549   0.417   4.700 -0.3785 -0.0820  0.1177
 3730TIP3    H232606   0.523   0.434   4.848 -1.2672  0.0111 -0.0438
 3731TIP3   OH232607   2.536   0.392  16.654 -0.1723  0.3697  0.0387
 3731TIP3    H132608   2.552   0.425  16.565  0.4492  0.6281  0.2401
 3731TIP3    H232609   2.498   0.305  16.641  2.1171 -0.6172 -0.4812
 3732TIP3   OH232610   0.353   6.702   4.330  0.2557  0.8055 -0.5612
 3732TIP3    H132611   0.440   6.668   4.309 -0.1231  0.5521 -1.7876
 3732TIP3    H232612   0.301   6.624   4.349 -0.1126  0.8122 -1.4690
 3733TIP3   OH232613   2.759   4.214  15.515 -0.3142  0.1532 -0.0545
 3733TIP3    H132614   2.799   4.291  15.555 -2.5430  1.1276  0.4574
 3733TIP3    H232615   2.738   4.157  15.589 -1.5087  0.5035 -0.1007
 3734TIP3   OH232616   6.276   6.091   0.539 -0.0472  0.0177 -0.3016
 3734TIP3    H132617   6.360   6.065   0.577  0.0456  0.8003  0.0374
 3734TIP3    H232618   6.284   6.185   0.526 -1.1035  0.2069  0.3112
 3735TIP3   OH232619   5.054   0.768  16.578  0.4410 -0.2823  0.0819
 3735TIP3    H132620   5.044   0.839  16.642  3.2712  0.0949  0.2258
 3735TIP3    H232621   5.026   0.690  16.625 -1.8216  0.5456  0.2332
 3736TIP3   OH232622   5.010   0.305  14.067 -0.4499  0.6515  0.0130
 3736TIP3    H132623   5.007   0.389  14.021 -0.7530  0.0231 -1.1581
 3736TIP3    H232624   4.919   0.277  14.070 -0.0636 -1.4788 -3.2137
 3737TIP3   OH232625   2.611   4.587   1.617 -0.4471 -0.1802  0.3494
 3737TIP3    H132626   2.575   4.539   1.691 -2.9464  2.6767  1.1800
 3737TIP3    H232627   2.641   4.670   1.653  1.3059  0.0272 -1.3903
 3738TIP3   OH232628   3.068   5.931  10.808 -0.2482  0.1692 -0.1083
 3738TIP3    H132629   2.981   5.953  10.774 -0.7874  1.0026  1.6723
 3738TIP3    H232630   3.084   5.995  10.877  1.5219 -0.3695  0.0420
 3739TIP3   OH232631   4.811   4.994   0.127  0.5377  0.6822  0.0578
 3739TIP3    H132632   4.859   5.069   0.092  1.7401  0.3487  0.9098
 3739TIP3    H232633   4.818   5.004   0.222 -0.5680  0.2789  0.1887
 3740TIP3   OH232634   2.017   3.610  15.878  0.5287  0.2100  0.6228
 3740TIP3    H132635   2.089   3.674  15.878 -0.6531  1.6031 -0.0057
 3740TIP3    H232636   1.979   3.617  15.790  0.0771 -1.0425  0.7040
 3741TIP3   OH232637   5.930   6.316   4.694 -0.3496 -0.3036 -0.1503
 3741TIP3    H132638   5.962   6.260   4.623 -2.9673 -0.0625 -1.6789
 3741TIP3    H232639   5.834   6.313   4.685 -0.6645  2.7264  1.0547
 3742TIP3   OH232640   6.643   4.846   2.835  0.1482 -0.2343  0.4184
 3742TIP3    H132641   6.678   4.777   2.779 -0.0172  0.7000 -0.8671
 3742TIP3    H232642   6.707   4.917   2.830 -0.1298  0.0697  1.0004
 3743TIP3   OH232643   0.962   1.408   4.541  0.5435  0.6388  0.0207
 3743TIP3    H132644   1.025   1.473   4.574  0.8350  0.4022 -0.0631
 3743TIP3    H232645   1.004   1.371   4.463  0.0603  0.8597 -0.3474
 3744TIP3   OH232646   3.176   0.746   5.722 -0.5176 -0.1270 -0.4527
 3744TIP3    H132647   3.089   0.763   5.759 -0.0931  0.0056  0.5168
 3744TIP3    H232648   3.163   0.674   5.660 -1.3141 -0.1049 -0.3180
 3745TIP3   OH232649   0.275   3.212   0.862 -0.0955 -0.6598 -0.3579
 3745TIP3    H132650   0.290   3.272   0.789  0.7258 -0.8897 -0.3802
 3745TIP3    H232651   0.187   3.177   0.846  0.2339 -1.0113 -1.4541
 3746TIP3   OH232652   3.560   1.012   5.443 -0.6259  0.2438  0.9455
 3746TIP3    H132653   3.476   0.972   5.468 -0.4349 -1.0534 -0.3685
 3746TIP3    H232654   3.623   0.940   5.445  0.4069  1.1246  1.5210
 3747TIP3   OH232655   4.594   2.115  11.204 -0.7602 -0.5110 -0.1630
 3747TIP3    H132656   4.524   2.178  11.188 -0.4809 -0.4752 -1.3523
 3747TIP3    H232657   4.666   2.166  11.239 -1.4924 -0.6343  1.6495
 3748TIP3   OH232658   1.135   2.346  12.712 -0.7793 -0.4743  0.3729
 3748TIP3    H132659   1.191   2.334  12.788  0.3120 -2.4183 -0.6774
 3748TIP3    H232660   1.178   2.415  12.661 -0.9683  0.1048  0.9668
 3749TIP3   OH232661   3.823   3.381   4.663  0.3380 -0.2270  0.3933
 3749TIP3    H132662   3.916   3.396   4.680  0.2647  0.4519  0.1872
 3749TIP3    H232663   3.800   3.311   4.724  0.3429  1.4202  2.3887
 3750TIP3   OH232664   1.704   1.056   2.249 -0.3550  0.5910 -0.6082
 3750TIP3    H132665   1.655   1.138   2.255 -0.1179  0.6380  1.7387
 3750TIP3    H232666   1.650   0.992   2.296  1.6861  0.6573  2.1352
 3751TIP3   OH232667   0.549   5.574   5.896  0.0172 -0.1885 -0.4543
 3751TIP3    H132668   0.463   5.614   5.896 -0.2984 -0.8469  0.7445
 3751TIP3    H232669   0.608   5.644   5.867 -0.8150  0.4516 -0.6301
 3752TIP3   OH232670   0.171   3.223   3.639 -0.5840 -0.4542 -0.3211
 3752TIP3    H132671   0.152   3.176   3.558 -0.9344 -0.5703 -0.1741
 3752TIP3    H232672   0.129   3.170   3.708 -0.9474  0.0503 -0.1484
 3753TIP3   OH232673   0.835   1.781  16.095  0.2480  0.6193 -0.0957
 3753TIP3    H132674   0.926   1.759  16.116  0.5975  2.5883  0.6634
 3753TIP3    H232675   0.803   1.827  16.172 -1.0948  0.8022 -0.7403
 3754TIP3   OH232676   0.567   4.501  12.970  0.4327  0.1262  0.5428
 3754TIP3    H132677   0.575   4.432  12.905 -1.2650  1.5644 -1.3288
 3754TIP3    H232678   0.595   4.580  12.925 -2.3210  1.4487  0.9477
 3755TIP3   OH232679   3.048   1.867   2.540 -0.1846 -0.3802 -0.0706
 3755TIP3    H132680   3.035   1.783   2.583  0.0318 -0.9245 -1.0263
 3755TIP3    H232681   3.114   1.850   2.473  0.2507  0.6790  0.0628
 3756TIP3   OH232682   4.206   5.010   5.522  0.0315 -0.2067  0.4917
 3756TIP3    H132683   4.278   5.063   5.556 -0.1801 -0.3421  1.1855
 3756TIP3    H232684   4.150   5.071   5.476  1.9114 -0.4860 -2.4005
 3757TIP3   OH232685   1.808   5.678  15.623 -0.4381  0.0040 -0.5677
 3757TIP3    H132686   1.764   5.642  15.699  1.8562  0.0365  0.8816
 3757TIP3    H232687   1.805   5.773  15.635 -0.7521  0.0462 -0.9465
 3758TIP3   OH232688   4.724   2.285  12.497 -0.3827 -0.6611  0.4991
 3758TIP3    H132689   4.813   2.269  12.465 -0.4383 -2.3325  1.0815
 3758TIP3    H232690   4.682   2.335  12.427  1.2222  0.8431  0.5483
 3759TIP3   OH232691   3.808   3.062   1.813 -0.0989  0.2478 -0.2843
 3759TIP3    H132692   3.770   3.119   1.880  0.9998 -1.2279  1.7027
 3759TIP3    H232693   3.903   3.074   1.822  0.1024 -0.9613 -0.6695
 3760TIP3   OH232694   4.856   2.224  15.354 -0.2280  0.3829 -0.4425
 3760TIP3    H132695   4.827   2.171  15.279  1.6619 -3.0255  1.0332
 3760TIP3    H232696   4.916   2.288  15.316  0.6678 -1.2457 -1.9416
 3761TIP3   OH232697   0.547   6.601  11.438  0.0284  1.0747  0.5874
 3761TIP3    H132698   0.605   6.597  11.361  0.5224  1.7730  0.9132
 3761TIP3    H232699   0.472   6.547  11.414  0.0112  1.5720 -0.5282
 3762TIP3   OH232700   0.860   1.283  11.865 -0.4514 -0.4104  0.8443
 3762TIP3    H132701   0.882   1.303  11.956  1.7589 -0.2007  0.3215
 3762TIP3    H232702   0.937   1.237  11.831 -1.1293 -0.2835 -0.9864
 3763TIP3   OH232703   4.893   3.072  16.010 -0.0250  0.2567  0.4477
 3763TIP3    H132704   4.808   3.067  16.054  0.5697  1.0521  1.7697
 3763TIP3    H232705   4.892   3.157  15.966 -0.3802 -0.2719 -0.5809
 3764TIP3   OH232706   2.793   0.384  15.848  0.3873 -0.0602  0.0667
 3764TIP3    H132707   2.734   0.429  15.788  0.1936 -0.8843 -0.3820
 3764TIP3    H232708   2.871   0.439  15.852  0.0799  0.4045 -0.3152
 3765TIP3   OH232709   6.070   6.603  17.184  0.6563  0.0341 -0.5783
 3765TIP3    H132710   6.072   6.619  17.090 -0.3690 -0.4103 -0.6911
 3765TIP3    H232711   6.025   6.519  17.193 -1.0147  0.9747  0.3980
 3766TIP3   OH232712   1.871   1.016   1.290  1.1712 -0.1789 -0.2896
 3766TIP3    H132713   1.784   1.018   1.328  1.9760 -0.4716  1.6861
 3766TIP3    H232714   1.863   1.066   1.209 -0.7132  0.1667  0.0714
 3767TIP3   OH232715   4.538   0.020   1.484  0.5217  0.4133  0.1011
 3767TIP3    H132716   4.504  -0.059   1.524 -0.2688  0.6061 -0.1726
 3767TIP3    H232717   4.469   0.049   1.424  1.9233 -0.2450 -1.9562
 3768TIP3   OH232718   4.370   1.098   1.057 -0.5004  0.5423 -0.2075
 3768TIP3    H132719   4.362   1.005   1.036 -0.9344  0.2367  1.2294
 3768TIP3    H232720   4.414   1.099   1.142 -1.6573  1.6000  0.3994
 3769TIP3   OH232721   1.697   5.301  16.419  0.6950 -0.6523  0.7155
 3769TIP3    H132722   1.652   5.348  16.350  0.2240 -3.1638 -0.8403
 3769TIP3    H232723   1.629   5.278  16.482  0.3721 -1.5758  0.0561
 3770TIP3   OH232724   4.837   1.604  14.747  0.3040  0.2071 -0.2615
 3770TIP3    H132725   4.788   1.568  14.674 -0.6799 -1.0762  0.9937
 3770TIP3    H232726   4.832   1.538  14.816 -0.6169  2.1957  1.7542
 3771TIP3   OH232727   4.917   6.511   1.324 -0.0725 -0.1625 -0.2647
 3771TIP3    H132728   4.893   6.599   1.295 -0.8676 -0.4699 -0.5436
 3771TIP3    H232729   4.990   6.486   1.266  0.2060  0.3362 -0.1347
 3772TIP3   OH232730   1.171   0.613   6.152  0.1909 -0.1751  0.1703
 3772TIP3    H132731   1.156   0.569   6.236 -1.5138  0.6069  0.3087
 3772TIP3    H232732   1.093   0.596   6.101  0.8915  0.0041 -0.9949
 3773TIP3   OH232733   2.652   4.311  17.314 -0.2607  0.0150  0.3139
 3773TIP3    H132734   2.578   4.266  17.274  0.2922 -1.2780  0.7106
 3773TIP3    H232735   2.655   4.278  17.404  1.6876 -1.0988 -0.1230
 3774TIP3   OH232736   0.796   0.866  17.252 -0.1422  0.0026  0.3387
 3774TIP3    H132737   0.835   0.828  17.173  2.6379 -1.4924  2.2637
 3774TIP3    H232738   0.799   0.960  17.238  0.3998 -0.2272 -1.2573
 3775TIP3   OH232739   4.480   0.465  15.230 -0.2422 -0.4906  0.3826
 3775TIP3    H132740   4.408   0.523  15.208 -2.0109 -2.7949 -0.3587
 3775TIP3    H232741   4.543   0.477  15.159 -1.3885 -0.7129 -0.7139
 3776TIP3   OH232742   5.428   6.418   4.082  0.1974 -0.3870  1.2085
 3776TIP3    H132743   5.490   6.474   4.034 -1.6260 -0.3653 -1.3495
 3776TIP3    H232744   5.344   6.461   4.069 -1.0579 -2.9286  0.3811
 3777TIP3   OH232745   1.865   5.494  12.149 -0.4787  0.2030 -0.9167
 3777TIP3    H132746   1.792   5.542  12.112 -0.8954  0.1890 -0.1254
 3777TIP3    H232747   1.825   5.430  12.208  0.2269  1.6758  1.2705
 3778TIP3   OH232748   3.090   3.430  16.798  0.1279 -0.1969  0.1677
 3778TIP3    H132749   3.063   3.339  16.785 -0.2703 -0.3324  1.7038
 3778TIP3    H232750   3.090   3.441  16.893  0.4227  1.3438  0.0115
 3779TIP3   OH232751   1.114   3.923   0.473  0.4175 -0.0242  0.1550
 3779TIP3    H132752   1.137   3.831   0.481 -1.0529 -0.6709 -2.2244
 3779TIP3    H232753   1.076   3.932   0.386  2.0658  3.2053 -0.4007
 3780TIP3   OH232754   6.317   5.709   1.411  0.3497  0.6543 -0.6572
 3780TIP3    H132755   6.235   5.754   1.430 -0.4299 -0.5240 -1.1086
 3780TIP3    H232756   6.362   5.766   1.349 -0.9778  0.4705 -1.8424
 3781TIP3   OH232757   2.531   0.862   5.353  0.1645  0.6615  0.7249
 3781TIP3    H132758   2.608   0.908   5.387  1.7902 -1.5421  0.2278
 3781TIP3    H232759   2.567   0.787   5.306 -2.2186  0.9382 -1.7600
 3782TIP3   OH232760   5.049   0.624   6.431 -0.4318 -0.6693  0.1948
 3782TIP3    H132761   5.003   0.625   6.347 -1.0209  0.5010  0.5118
 3782TIP3    H232762   5.002   0.558   6.482 -2.2315  0.9189  0.7250
 3783TIP3   OH232763   1.787   5.582   3.121  0.1906  0.4102 -0.0631
 3783TIP3    H132764   1.858   5.541   3.071  0.9983  0.5294  0.9685
 3783TIP3    H232765   1.707   5.553   3.076  0.5948 -3.4332  1.3014
 3784TIP3   OH232766   4.868   3.991  16.860  0.3715  0.3065 -0.5618
 3784TIP3    H132767   4.817   3.934  16.802  0.9341  1.4204 -2.2172
 3784TIP3    H232768   4.916   3.931  16.917 -0.9808 -0.7980 -0.5428
 3785TIP3   OH232769   6.157   0.652  15.996 -0.1187 -0.2514  0.7284
 3785TIP3    H132770   6.208   0.674  16.074 -2.1150  0.0263  2.0357
 3785TIP3    H232771   6.126   0.737  15.964  1.8394 -0.2192 -1.2745
 3786TIP3   OH232772   3.774   1.048   4.744 -0.7485  0.0512 -0.4317
 3786TIP3    H132773   3.773   1.132   4.699 -2.9381 -0.7555 -2.0870
 3786TIP3    H232774   3.681   1.024   4.752 -0.2323 -1.7332  0.9203
 3787TIP3   OH232775   3.771   4.005  15.761  0.0626  0.0266 -0.7850
 3787TIP3    H132776   3.781   4.047  15.846 -0.2303 -0.0231 -0.7240
 3787TIP3    H232777   3.857   4.012  15.720  0.3913 -0.5330 -0.2153
 3788TIP3   OH232778   6.541   3.626  16.513  0.2789  0.4968  0.5883
 3788TIP3    H132779   6.508   3.709  16.479 -0.3231  0.1771  0.3783
 3788TIP3    H232780   6.584   3.585  16.438  0.2285  0.4438  0.5874
 3789TIP3   OH232781   4.546   4.689  11.335  0.4879 -0.3098 -0.4345
 3789TIP3    H132782   4.585   4.602  11.323 -0.3129 -0.5774 -1.2327
 3789TIP3    H232783   4.540   4.699  11.430 -0.5971 -1.6869 -0.3239
 3790TIP3   OH232784   1.649   1.576  14.688 -0.4372  0.4220 -0.1318
 3790TIP3    H132785   1.742   1.582  14.667 -0.0542  2.0041  1.7045
 3790TIP3    H232786   1.625   1.485  14.667  1.7101 -0.2509  0.0974
 3791TIP3   OH232787   1.906   4.962   3.278  0.2095  0.3369  0.0629
 3791TIP3    H132788   1.822   4.936   3.316  0.7107 -1.9918 -0.2515
 3791TIP3    H232789   1.959   4.883   3.282  1.2234  0.7307 -2.9063
 3792TIP3   OH232790   0.730   4.846   2.869  0.2706  0.8541 -0.1944
 3792TIP3    H132791   0.791   4.846   2.795  1.7037 -0.0213  0.9350
 3792TIP3    H232792   0.744   4.762   2.912 -1.2668  0.9270  0.5006
 3793TIP3   OH232793   3.859   6.115   5.731 -0.2571  0.4698  0.8828
 3793TIP3    H132794   3.842   6.022   5.745 -1.7165  0.6751  0.6517
 3793TIP3    H232795   3.891   6.120   5.641 -2.2449  0.3771  0.1169
 3794TIP3   OH232796   2.995   6.383   4.409 -0.0209  0.2199 -0.5541
 3794TIP3    H132797   3.014   6.471   4.377  1.6019  0.2811  0.5131
 3794TIP3    H232798   3.041   6.376   4.492  0.1857 -1.7475 -0.7715
 3795TIP3   OH232799   2.609   4.705  11.245 -0.2205  0.1867  0.4955
 3795TIP3    H132800   2.608   4.708  11.149 -2.0832  1.4081  0.5002
 3795TIP3    H232801   2.624   4.612  11.265  3.7885  0.3478 -0.8405
 3796TIP3   OH232802   1.696   2.507  13.767 -0.0368  0.3301 -0.5159
 3796TIP3    H132803   1.671   2.548  13.850  0.4551  0.6142 -0.5055
 3796TIP3    H232804   1.777   2.461  13.787 -0.8488 -1.1035 -0.3966
 3797TIP3   OH232805   3.708   3.694  10.921 -0.8147 -0.0868  0.0044
 3797TIP3    H132806   3.615   3.672  10.915 -0.4513 -1.4580 -0.9222
 3797TIP3    H232807   3.716   3.741  11.004 -2.2269 -0.4623  0.3781
 3798TIP3   OH232808   6.447   1.723  14.403 -0.2294 -0.6755  0.3181
 3798TIP3    H132809   6.385   1.677  14.460 -0.4333 -1.1997 -0.3137
 3798TIP3    H232810   6.427   1.690  14.315 -0.5648  0.8155 -0.1988
 3799TIP3   OH232811   6.568   4.048  16.248 -0.3494  0.4561  0.3007
 3799TIP3    H132812   6.581   3.955  16.266 -0.9598  0.0813 -1.0865
 3799TIP3    H232813   6.506   4.077  16.315  0.5352  0.1062  1.3011
 3800TIP3   OH232814   2.351   0.006  16.799  0.0582  0.2204  0.0519
 3800TIP3    H132815   2.353   0.069  16.870  1.2117  0.7826 -0.4643
 3800TIP3    H232816   2.393  -0.072  16.835 -0.6307  0.0143  0.4269
 3801TIP3   OH232817   1.597   3.785   6.061 -0.2301 -0.3484 -0.4221
 3801TIP3    H132818   1.582   3.864   6.009  2.7044  0.7399  0.1695
 3801TIP3    H232819   1.511   3.762   6.096 -1.3548  1.9843 -1.4435
 3802TIP3   OH232820   4.252   3.854  15.329  0.0338 -0.5451  0.5895
 3802TIP3    H132821   4.334   3.821  15.366  0.3249  0.1745  0.6110
 3802TIP3    H232822   4.255   3.948  15.346  0.7278  0.0360 -2.2615
 3803TIP3   OH232823   2.183   1.031  11.033  0.5399 -0.3782  0.6960
 3803TIP3    H132824   2.242   0.965  11.070  1.6083  0.1979  0.0955
 3803TIP3    H232825   2.229   1.061  10.955  0.4129  1.5884  1.3392
 3804TIP3   OH232826   5.547   0.193  14.440 -0.0087  0.9912 -0.2381
 3804TIP3    H132827   5.475   0.249  14.467 -2.4323 -1.7462 -0.5363
 3804TIP3    H232828   5.595   0.173  14.521  0.5082  2.8371 -0.0444
 3805TIP3   OH232829   5.420   5.989   5.949  0.3607 -0.0371 -0.3279
 3805TIP3    H132830   5.442   5.986   6.042 -1.8433  0.8908  0.3044
 3805TIP3    H232831   5.343   5.933   5.941  0.0621  0.5123 -1.4389
 3806TIP3   OH232832   4.520   0.585   4.110  0.3249 -0.5988  0.3673
 3806TIP3    H132833   4.553   0.512   4.058  0.2747 -1.0517  0.9660
 3806TIP3    H232834   4.592   0.606   4.170  0.8471  0.7081 -0.6686
 3807TIP3   OH232835   5.954   4.092   1.415 -0.2404 -0.2650 -0.2115
 3807TIP3    H132836   5.967   4.132   1.501  0.8454  0.0494 -0.5015
 3807TIP3    H232837   5.862   4.067   1.414 -0.0600 -1.2100  1.4447
 3808TIP3   OH232838   2.422   0.737  11.585  0.4885  0.3788 -0.3864
 3808TIP3    H132839   2.385   0.799  11.522  0.7779  0.7263 -0.2157
 3808TIP3    H232840   2.367   0.659  11.577  0.2003  0.6121 -0.6919
 3809TIP3   OH232841   4.641   1.439   5.467  0.3308  0.6067 -0.2297
 3809TIP3    H132842   4.622   1.412   5.557  0.6358  0.6243 -0.1594
 3809TIP3    H232843   4.637   1.358   5.416  0.2317  0.5853 -0.1883
 3810TIP3   OH232844   2.900   1.578   2.412  0.2096  0.3021  0.1237
 3810TIP3    H132845   2.820   1.542   2.374  0.9597 -0.3925 -0.8488
 3810TIP3    H232846   2.938   1.505   2.462 -1.1333  1.3811  2.9781
 3811TIP3   OH232847   1.923   0.944  10.720  0.0319  0.6678 -0.4596
 3811TIP3    H132848   2.014   0.938  10.691 -0.0299  0.6715 -0.6518
 3811TIP3    H232849   1.873   0.898  10.653 -0.0760  0.3894 -0.1911
 3812TIP3   OH232850   3.354   6.615   1.538 -0.1078 -0.7398  0.0527
 3812TIP3    H132851   3.259   6.612   1.522 -0.4329 -0.5238  1.7747
 3812TIP3    H232852   3.389   6.547   1.481 -1.5296 -2.1490  0.7630
 3813TIP3   OH232853   5.144   3.859  16.030  0.2016 -0.0735  0.0994
 3813TIP3    H132854   5.205   3.805  15.979 -1.0566 -0.4206 -1.1258
 3813TIP3    H232855   5.198   3.926  16.070  1.1179  1.3188 -3.1417
 3814TIP3   OH232856   6.266   0.622   0.415 -0.1633 -0.5068 -0.5462
 3814TIP3    H132857   6.252   0.622   0.510  0.8884 -0.9477 -0.3756
 3814TIP3    H232858   6.225   0.542   0.384  0.1619 -0.7547 -0.3454
 3815TIP3   OH232859   2.927   2.873   1.079 -0.7105  0.0292 -0.0503
 3815TIP3    H132860   2.951   2.800   1.023 -2.9857 -0.9140  0.0922
 3815TIP3    H232861   2.908   2.945   1.017  1.1852  0.4467 -0.2033
 3816TIP3   OH232862   2.971   1.614   2.927 -0.2627  0.2557  0.1424
 3816TIP3    H132863   2.936   1.530   2.956  0.4576 -0.4574 -0.9606
 3816TIP3    H232864   2.963   1.672   3.003  1.6121 -1.5122  1.8086
 3817TIP3   OH232865   6.642   3.664  15.720 -0.0173  0.1467  0.1176
 3817TIP3    H132866   6.623   3.577  15.755  0.6008 -0.5937 -1.3031
 3817TIP3    H232867   6.566   3.717  15.744 -0.8917 -1.0586  0.1108
 3818TIP3   OH232868   6.749   3.996  16.674  0.5387  0.3935  0.0280
 3818TIP3    H132869   6.660   4.022  16.699  0.7525 -0.0328  1.3571
 3818TIP3    H232870   6.800   4.004  16.755  1.5215 -0.1895 -0.5045
 3819TIP3   OH232871   3.166   4.332  15.364  0.1468  0.2913  0.0443
 3819TIP3    H132872   3.256   4.322  15.394  0.0185  0.8934  0.6875
 3819TIP3    H232873   3.119   4.258  15.402  0.3325  0.0751 -0.1457
 3820TIP3   OH232874   1.778   3.716   6.302 -0.4593  0.1438 -0.4106
 3820TIP3    H132875   1.829   3.668   6.369  0.3840 -0.0617 -1.1825
 3820TIP3    H232876   1.688   3.710   6.333 -0.1378 -0.3242  0.4959
 3821TIP3   OH232877   2.798   2.353   3.285 -0.2691  0.2934 -0.2212
 3821TIP3    H132878   2.825   2.424   3.343 -0.0285  0.7518 -0.8843
 3821TIP3    H232879   2.857   2.359   3.210  1.5876 -2.3038  0.8795
 3822TIP3   OH232880   2.800   3.572  13.382  0.7756  0.0048 -0.4357
 3822TIP3    H132881   2.719   3.552  13.335  0.5294  0.0930 -0.0516
 3822TIP3    H232882   2.843   3.487  13.392  1.3346  0.1062 -1.7142
 3823TIP3   OH232883   1.823   3.192   1.568  0.5011  0.1677  0.1524
 3823TIP3    H132884   1.875   3.165   1.492 -2.0129  0.8755 -2.0163
 3823TIP3    H232885   1.781   3.111   1.598 -0.3097  0.2139 -0.7854
 3824TIP3   OH232886   6.601   6.260   1.374 -0.0388  0.5086  0.4966
 3824TIP3    H132887   6.511   6.290   1.359  0.3541  0.9976 -1.1553
 3824TIP3    H232888   6.597   6.165   1.363  0.2633  0.7945 -3.9557
 3825TIP3   OH232889   6.436   1.683   4.869 -0.1166  0.3562  0.3659
 3825TIP3    H132890   6.428   1.619   4.798 -0.8773  1.2623 -0.3760
 3825TIP3    H232891   6.530   1.685   4.889  0.4037  1.4968 -1.9429
 3826TIP3   OH232892   4.293   6.127   2.782  0.1628  0.4417  0.7950
 3826TIP3    H132893   4.343   6.183   2.722 -0.4637  0.7857  0.5767
 3826TIP3    H232894   4.357   6.096   2.846  0.6600  0.8230  0.4890
 3827TIP3   OH232895   2.861   0.439   6.434 -0.0134 -0.3627  0.6288
 3827TIP3    H132896   2.831   0.355   6.467 -1.6444  0.2214  0.7195
 3827TIP3    H232897   2.851   0.499   6.508  0.7550  0.0073  0.4469
 3828TIP3   OH232898   4.125   6.009  11.779 -0.0524  0.4008 -0.2442
 3828TIP3    H132899   4.187   6.046  11.716 -0.0077 -0.6682 -0.8662
 3828TIP3    H232900   4.168   5.930  11.811 -0.9336 -0.1628 -0.4128
 3829TIP3   OH232901   0.424   5.445  10.909 -0.1853  0.4871 -0.1361
 3829TIP3    H132902   0.363   5.518  10.923 -1.0933 -0.4620  1.1145
 3829TIP3    H232903   0.502   5.486  10.873 -1.4312  1.7895 -1.5198
 3830TIP3   OH232904   4.251   1.114   3.924 -0.4554  0.2692 -0.4981
 3830TIP3    H132905   4.206   1.153   3.849  0.3385  0.2729 -0.9879
 3830TIP3    H232906   4.307   1.046   3.886  0.8812  1.0789 -0.0813
 3831TIP3   OH232907   3.006   1.292   3.410 -0.4099 -0.1461  0.4800
 3831TIP3    H132908   3.013   1.199   3.392  0.7576 -0.8378  3.7438
 3831TIP3    H232909   2.914   1.306   3.432 -1.1831  0.1295 -2.5142
 3832TIP3   OH232910   0.297   3.519   2.413  0.6236 -0.0971  0.3183
 3832TIP3    H132911   0.389   3.517   2.387  0.2792 -1.6405 -0.8996
 3832TIP3    H232912   0.298   3.559   2.500  2.4564 -0.2984  0.4266
 3833TIP3   OH232913   1.335   3.762   1.541 -0.4696 -0.0593 -0.1189
 3833TIP3    H132914   1.275   3.804   1.602 -1.1975 -0.6151 -0.4292
 3833TIP3    H232915   1.280   3.699   1.493  0.2994 -0.3680 -0.6178
 3834TIP3   OH232916   1.102   0.689  11.387 -0.3478 -0.0617 -0.2886
 3834TIP3    H132917   1.032   0.698  11.322 -0.5166 -0.7387 -0.2147
 3834TIP3    H232918   1.088   0.602  11.424 -0.1454  0.2556  0.5377
 3835TIP3   OH232919   5.888   0.283  14.508  0.3312  0.0655 -0.3964
 3835TIP3    H132920   5.979   0.266  14.484  1.1776 -0.7882  2.9355
 3835TIP3    H232921   5.883   0.379  14.513  1.5462  0.1117  0.7872
 3836TIP3   OH232922   6.705   5.726   2.862 -0.2350  0.6436  0.0402
 3836TIP3    H132923   6.715   5.796   2.797 -0.6222 -0.4786 -1.2836
 3836TIP3    H232924   6.728   5.646   2.814  0.8677 -0.0742  1.7015
 3837TIP3   OH232925   4.829   1.698   3.069 -1.0858 -0.2168  0.2334
 3837TIP3    H132926   4.750   1.746   3.047  0.3140  1.7153 -0.8858
 3837TIP3    H232927   4.830   1.696   3.165 -2.5256 -0.3993  0.2654
 3838TIP3   OH232928   5.817   2.976   0.646 -0.2456  0.1543 -0.3070
 3838TIP3    H132929   5.902   3.004   0.680  0.3714 -1.1877 -0.6800
 3838TIP3    H232930   5.756   3.044   0.674  0.5291 -0.0372  2.0323
 3839TIP3   OH232931   5.919   6.757  14.557 -0.3894  0.6204 -0.4983
 3839TIP3    H132932   5.881   6.833  14.600  0.2811  1.3495 -1.1480
 3839TIP3    H232933   5.938   6.696  14.628 -0.9105  1.0653  0.0377
 3840TIP3   OH232934   3.206   5.095  14.772 -0.1773 -0.6437 -0.2713
 3840TIP3    H132935   3.120   5.124  14.803  1.1213  3.1718  0.2401
 3840TIP3    H232936   3.268   5.128  14.837  1.8175 -2.1448 -1.2872
 3841TIP3   OH232937   6.517   1.116  15.565  0.0749 -0.0175 -0.8135
 3841TIP3    H132938   6.507   1.081  15.654 -0.7994 -1.8128 -1.5696
 3841TIP3    H232939   6.588   1.064  15.527 -1.0187 -0.8201 -1.8469
 3842TIP3   OH232940   5.665   0.436  16.032 -0.2690  0.5832 -0.0301
 3842TIP3    H132941   5.740   0.414  15.976 -0.6749  0.2095 -0.4388
 3842TIP3    H232942   5.656   0.361  16.090 -0.1803  0.7363  0.1835
 3843TIP3   OH232943   1.571   3.469  11.390  0.0178 -0.5523 -0.6114
 3843TIP3    H132944   1.573   3.518  11.308  0.7275 -1.2273 -1.0187
 3843TIP3    H232945   1.486   3.425  11.389  0.6111 -1.7466 -1.7330
 3844TIP3   OH232946   5.054   6.193   1.071 -0.0561  0.5366 -0.2058
 3844TIP3    H132947   5.092   6.270   1.113  0.4919  1.4321 -2.2492
 3844TIP3    H232948   4.963   6.219   1.052 -0.1548  0.3187 -0.0364
 3845TIP3   OH232949   4.073   5.995   6.808 -0.0634  0.1243  0.3680
 3845TIP3    H132950   4.019   6.070   6.829 -0.4012 -0.2252  0.7689
 3845TIP3    H232951   4.039   5.963   6.724  0.3222  0.6310  0.0100
 3846TIP3   OH232952   4.333   4.109  13.883 -0.0255  0.5764  0.6161
 3846TIP3    H132953   4.325   4.013  13.883  0.7007  0.5082  0.8359
 3846TIP3    H232954   4.333   4.133  13.975  1.9674  0.5729  0.6585
 3847TIP3   OH232955   3.664   2.978  15.477 -1.1819 -0.6108 -0.1202
 3847TIP3    H132956   3.631   2.921  15.408  0.2468 -0.3333 -1.0615
 3847TIP3    H232957   3.648   3.067  15.445  1.4160 -0.4346 -1.1579
 3848TIP3   OH232958   3.585   0.245   2.001  0.0523 -0.0020 -0.4500
 3848TIP3    H132959   3.624   0.204   1.924 -1.1830 -1.1560 -0.4945
 3848TIP3    H232960   3.506   0.288   1.968 -0.0657  0.1671  0.0470
 3849TIP3   OH232961   2.535   3.830  16.389  0.1447 -0.1308  0.2753
 3849TIP3    H132962   2.491   3.898  16.339  1.1018  0.8336  0.7038
 3849TIP3    H232963   2.503   3.748  16.351 -0.3413  0.5557 -0.8635
 3850TIP3   OH232964   2.587   0.912   2.621  0.6417 -0.2512 -0.6909
 3850TIP3    H132965   2.617   0.847   2.684  1.6093  0.2834 -0.5821
 3850TIP3    H232966   2.582   0.865   2.538 -0.5381 -0.9291 -0.2612
 3851TIP3   OH232967   6.247   3.242   4.165 -0.3600 -0.0293  0.3745
 3851TIP3    H132968   6.212   3.195   4.090  1.5388  0.5896 -0.9781
 3851TIP3    H232969   6.321   3.188   4.194 -0.8159 -0.0448  1.5486
 3852TIP3   OH232970   3.676   5.035   4.621 -0.2881 -0.2121  0.4031
 3852TIP3    H132971   3.682   5.099   4.693  0.7299 -0.0206  0.1707
 3852TIP3    H232972   3.733   5.071   4.553  2.2289 -2.4638  1.1427
 3853TIP3   OH232973   4.246   2.410  12.444 -0.0774  0.2110 -0.1492
 3853TIP3    H132974   4.272   2.369  12.526 -0.6985  0.8475  0.3799
 3853TIP3    H232975   4.291   2.359  12.376 -1.5550 -1.9385  0.4043
 3854TIP3   OH232976   0.890   1.277   1.346 -0.0768 -0.0276  0.3735
 3854TIP3    H132977   0.833   1.216   1.299  0.1665  0.2877 -0.3458
 3854TIP3    H232978   0.978   1.241   1.336 -0.0856 -0.2548  1.0722
 3855TIP3   OH232979   1.435   0.799   3.763  0.3135 -0.1415 -0.4056
 3855TIP3    H132980   1.374   0.753   3.821 -1.9714  2.8037 -0.2664
 3855TIP3    H232981   1.519   0.795   3.809 -0.6272 -0.9875  1.3294
 3856TIP3   OH232982   0.814   2.610   0.624 -0.3660  0.0359 -0.0926
 3856TIP3    H132983   0.743   2.553   0.652 -0.4113 -0.6119 -1.4184
 3856TIP3    H232984   0.894   2.563   0.648 -0.3278  1.1111  2.0883
 3857TIP3   OH232985   1.051   3.303   0.279 -0.6073 -0.1682  0.3566
 3857TIP3    H132986   1.003   3.236   0.230 -2.0876  0.7718  0.4887
 3857TIP3    H232987   1.143   3.289   0.254 -0.6705 -3.0775  1.3626
 3858TIP3   OH232988   5.920   4.019   2.574  0.4293  0.1930 -0.4637
 3858TIP3    H132989   5.832   4.045   2.604  0.1635 -1.1196 -0.0701
 3858TIP3    H232990   5.945   3.947   2.632  1.4499  0.0368 -1.0742
 3859TIP3   OH232991   2.429   3.931   1.156 -0.3563 -0.4080 -0.3818
 3859TIP3    H132992   2.505   3.974   1.196 -1.3671  1.6161 -0.5574
 3859TIP3    H232993   2.422   3.848   1.204  0.1792  0.6820  1.7207
 3860TIP3   OH232994   4.405   4.514   1.909 -0.2705 -0.5509 -0.2109
 3860TIP3    H132995   4.327   4.510   1.852  0.2554  3.1356 -1.4820
 3860TIP3    H232996   4.478   4.496   1.850  0.3912  4.4416 -1.3873
 3861TIP3   OH232997   1.983   6.071  12.487 -0.1271 -0.2981 -0.1899
 3861TIP3    H132998   1.982   6.166  12.477 -0.6086 -0.3218 -0.3974
 3861TIP3    H232999   2.050   6.054  12.553 -0.5668  0.2461  0.4159
 3862TIP3   OH233000   0.258   0.302   3.740  0.6007  0.2303  0.2202
 3862TIP3    H133001   0.336   0.355   3.757  0.4258 -0.0968  2.4021
 3862TIP3    H233002   0.199   0.359   3.691  1.9563  0.6698 -0.9569
 3863TIP3   OH233003   5.178   2.262  13.373  0.2614  0.6429  0.1918
 3863TIP3    H133004   5.095   2.215  13.373  0.3290  0.4811 -1.2399
 3863TIP3    H233005   5.225   2.229  13.450  0.3239 -1.6865 -0.7612
 3864TIP3   OH233006   4.769   2.982   1.698  0.3747  0.1091  0.3750
 3864TIP3    H133007   4.801   2.961   1.786  0.1034  0.7163  0.6243
 3864TIP3    H233008   4.825   2.931   1.639  2.8224  2.2126  0.6965
 3865TIP3   OH233009   3.400   6.438   4.201 -0.1741  0.7867  0.0077
 3865TIP3    H133010   3.329   6.477   4.151 -0.7917  0.3428  0.5189
 3865TIP3    H233011   3.427   6.362   4.150 -0.7422  0.3868  0.2863
 3866TIP3   OH233012   0.266   0.355  11.497 -0.4235 -0.0252  0.0449
 3866TIP3    H133013   0.360   0.367  11.485 -0.3351 -1.0247 -0.3482
 3866TIP3    H233014   0.227   0.435  11.463  0.3013  0.5805  0.6030
 3867TIP3   OH233015   0.359   1.064   5.419  0.4196 -0.4869 -0.7639
 3867TIP3    H133016   0.349   1.043   5.512  1.8779 -1.1375 -0.7316
 3867TIP3    H233017   0.299   1.138   5.405 -0.7442 -1.1646  0.3949
 3868TIP3   OH233018   2.179   5.651  15.195  0.0850 -0.0977  0.3729
 3868TIP3    H133019   2.179   5.582  15.128 -0.5561  0.2930 -0.0432
 3868TIP3    H233020   2.146   5.729  15.150 -1.7842 -0.1856  1.4765
 3869TIP3   OH233021   5.362   4.463   0.698  0.2129  0.4840 -0.2670
 3869TIP3    H133022   5.286   4.408   0.716  0.8833 -0.1239  0.8787
 3869TIP3    H233023   5.422   4.405   0.650  0.8639  0.2334  0.8227
 3870TIP3   OH233024   1.436   4.214  16.719 -0.3778  0.0823  0.1420
 3870TIP3    H133025   1.459   4.155  16.791  0.7483  0.4939  0.1406
 3870TIP3    H233026   1.486   4.294  16.737  0.5014 -0.0683 -1.4770
 3871TIP3   OH233027   5.907   4.339   1.952  0.3916  0.0801 -0.5453
 3871TIP3    H133028   5.879   4.262   2.003  0.7215 -0.0203 -0.5125
 3871TIP3    H233029   5.991   4.313   1.915 -0.0531 -0.0141 -1.5235
 3872TIP3   OH233030   2.164   1.118  12.521 -0.1681 -0.4152 -0.5617
 3872TIP3    H133031   2.135   1.189  12.578 -0.6843 -0.9003 -0.2111
 3872TIP3    H233032   2.177   1.160  12.436  0.7864  0.3517 -0.0563
 3873TIP3   OH233033   1.480   1.437  13.643 -0.5789 -1.1163  0.3020
 3873TIP3    H133034   1.519   1.423  13.557 -1.4203  0.7121 -0.4264
 3873TIP3    H233035   1.389   1.408  13.633 -1.1309  0.5676  0.0372
 3874TIP3   OH233036   1.982   5.417   5.846  0.7168 -0.1491  0.1007
 3874TIP3    H133037   1.972   5.463   5.929 -1.0124 -2.8162  1.5309
 3874TIP3    H233038   1.942   5.331   5.862  1.6836 -1.3139 -3.0493
 3875TIP3   OH233039   0.111   1.021   1.509 -0.2087  0.5680  0.6619
 3875TIP3    H133040   0.195   1.041   1.467 -0.7964  0.5977 -0.5374
 3875TIP3    H233041   0.087   1.102   1.554  0.3947  0.5564  1.0284
 3876TIP3   OH233042   2.434   0.423  16.155 -0.0711  0.7523 -0.0115
 3876TIP3    H133043   2.431   0.417  16.251 -0.3030  1.5188  0.0350
 3876TIP3    H233044   2.483   0.346  16.128  2.2455  1.7991  0.8980
 3877TIP3   OH233045   1.898   2.134   3.412  0.0641  0.3233 -0.5280
 3877TIP3    H133046   1.820   2.103   3.457  0.0980  1.4136  0.3061
 3877TIP3    H233047   1.955   2.166   3.482  0.5464  1.1040 -1.2575
 3878TIP3   OH233048   5.332   3.778   0.016 -0.6105 -0.5433  0.1912
 3878TIP3    H133049   5.409   3.722   0.007  0.1658  0.3319  1.1026
 3878TIP3    H233050   5.304   3.795  -0.074 -0.0550 -1.2969 -0.1347
 3879TIP3   OH233051   1.583   4.815   0.384 -0.3265 -0.1764  0.1177
 3879TIP3    H133052   1.497   4.779   0.406  0.4734 -0.7297  2.7192
 3879TIP3    H233053   1.589   4.896   0.435  0.0467  0.7865 -1.4052
 3880TIP3   OH233054   6.483   1.286  15.342 -0.2285  0.5033 -0.2114
 3880TIP3    H133055   6.397   1.275  15.302  0.2758  0.2146 -1.2590
 3880TIP3    H233056   6.484   1.224  15.415 -0.3373 -0.6765 -1.1753
 3881TIP3   OH233057   4.646   5.537   2.065  0.1426  0.1169  0.1615
 3881TIP3    H133058   4.594   5.457   2.051  0.9625 -0.4931  0.5021
 3881TIP3    H233059   4.688   5.524   2.150 -0.0425  1.1077  0.4159
 3882TIP3   OH233060   2.091   3.340  11.353 -0.2263  0.1977  0.5907
 3882TIP3    H133061   2.163   3.279  11.336  0.0829  0.4677  0.9230
 3882TIP3    H233062   2.019   3.308  11.298  0.5246  0.6410 -0.7109
 3883TIP3   OH233063   0.840   5.171  14.622 -0.1020 -0.1277  0.1847
 3883TIP3    H133064   0.770   5.141  14.680  0.4316  0.4484  1.1523
 3883TIP3    H233065   0.805   5.250  14.581 -1.4995 -1.9076 -2.3471
 3884TIP3   OH233066   4.657   6.600   3.751 -0.1303 -0.2691 -0.3725
 3884TIP3    H133067   4.705   6.527   3.711  0.6163 -0.5403  0.9491
 3884TIP3    H233068   4.591   6.623   3.686 -1.2537 -2.9980 -0.3435
 3885TIP3   OH233069   5.791   0.773   3.849 -0.8828  0.0239  0.3915
 3885TIP3    H133070   5.869   0.828   3.863 -0.4274 -0.0787 -1.4812
 3885TIP3    H233071   5.718   0.834   3.857 -0.4387  0.7078 -0.5447
 3886TIP3   OH233072   4.842   4.944  15.696 -0.2317  0.0480 -0.1612
 3886TIP3    H133073   4.831   4.989  15.779  0.2991 -0.2204  0.0528
 3886TIP3    H233074   4.915   4.988  15.653  0.0250 -0.3403 -0.1284
 3887TIP3   OH233075   2.951   2.731  15.105 -0.6455  0.1364 -0.5414
 3887TIP3    H133076   2.962   2.671  15.179 -1.5148 -0.2917 -0.7457
 3887TIP3    H233077   2.859   2.755  15.108 -0.3221  1.4155 -0.5109
 3888TIP3   OH233078   4.697   0.873  13.449  0.1988 -0.0588 -0.6279
 3888TIP3    H133079   4.749   0.907  13.522 -0.1700  0.9434 -0.8208
 3888TIP3    H233080   4.695   0.944  13.385 -0.4984 -0.4824 -1.0915
 3889TIP3   OH233081   0.640   4.790  12.511 -0.0529  0.2105 -0.4231
 3889TIP3    H133082   0.563   4.821  12.464 -0.2607 -0.1271 -0.3100
 3889TIP3    H233083   0.623   4.697  12.525  1.1824 -0.2887 -1.9930
 3890TIP3   OH233084   4.752   0.829   0.619  0.0269 -0.0626 -0.2493
 3890TIP3    H133085   4.824   0.867   0.568  0.1907  0.2888  0.2338
 3890TIP3    H233086   4.701   0.905   0.648  0.5535 -0.1848  1.0192
 3891TIP3   OH233087   5.914   4.180  15.152 -0.5667 -0.0137 -0.1047
 3891TIP3    H133088   5.856   4.255  15.140 -0.6705 -0.3188 -1.7655
 3891TIP3    H233089   5.973   4.183  15.076 -0.4352 -1.4673 -0.0914
 3892TIP3   OH233090   1.533   1.410  13.367  0.4745 -0.0833  0.0083
 3892TIP3    H133091   1.529   1.374  13.278 -1.6942 -0.3007  0.1321
 3892TIP3    H233092   1.493   1.496  13.360 -0.6344 -0.4903  0.9058
 3893TIP3   OH233093   5.319   1.595   5.442  0.1000  0.5086  0.2371
 3893TIP3    H133094   5.245   1.649   5.414  1.2953  1.3650 -1.5025
 3893TIP3    H233095   5.303   1.510   5.400  0.0820  0.6859 -0.1223
 3894TIP3   OH233096   6.691   3.946   6.136  0.0436  0.1372 -0.0355
 3894TIP3    H133097   6.625   3.974   6.200 -1.4828 -1.7407 -0.6604
 3894TIP3    H233098   6.720   4.027   6.094  0.8560  1.4122  2.7191
 3895TIP3   OH233099   4.515   6.155  13.704  0.4289 -0.1697 -0.5907
 3895TIP3    H133100   4.574   6.187  13.635  1.0539 -0.9928 -0.4669
 3895TIP3    H233101   4.535   6.209  13.780 -0.3149  0.7936 -1.0555
 3896TIP3   OH233102   2.891   4.217  11.722 -0.1616 -0.5555  0.6923
 3896TIP3    H133103   2.952   4.158  11.766  0.9504  0.7894  1.0180
 3896TIP3    H233104   2.914   4.210  11.629  2.2159  1.7249  1.0079
 3897TIP3   OH233105   4.496   1.669   3.603  0.0423  0.0134  0.1596
 3897TIP3    H133106   4.522   1.584   3.569 -2.5317  0.0169 -2.1052
 3897TIP3    H233107   4.421   1.651   3.660  1.7846  0.4783  2.8003
 3898TIP3   OH233108   4.733   1.060   5.706  0.1309 -0.2323 -0.4544
 3898TIP3    H133109   4.755   1.103   5.789 -0.9111  2.5645 -1.5052
 3898TIP3    H233110   4.709   0.971   5.731  0.6165  0.2912  2.1420
 3899TIP3   OH233111   6.396   4.061  15.323  0.3192  0.0355  0.1412
 3899TIP3    H133112   6.485   4.028  15.314  0.8435  1.2256  0.8568
 3899TIP3    H233113   6.373   4.093  15.236  0.7037  0.0225  0.0350
 3900TIP3   OH233114   4.572   1.025   2.685 -0.2017 -0.0009 -0.5413
 3900TIP3    H133115   4.588   0.948   2.630  0.3465 -1.6673  1.7961
 3900TIP3    H233116   4.659   1.064   2.696 -0.2945  0.2671 -0.7488
 3901TIP3   OH233117   5.872   5.751  11.913  0.4002 -0.4754  0.2010
 3901TIP3    H133118   5.964   5.724  11.908  0.3997 -0.3229 -1.0171
 3901TIP3    H233119   5.876   5.845  11.928  0.4206 -0.6366  1.2917
 3902TIP3   OH233120   4.725   5.456  13.787 -0.5588  0.2647 -0.0056
 3902TIP3    H133121   4.657   5.466  13.853  0.1805 -1.5042  1.0722
 3902TIP3    H233122   4.680   5.419  13.711 -0.7505 -1.3985  0.8843
 3903TIP3   OH233123   2.585   0.081  11.811  0.5876 -0.1903 -0.1542
 3903TIP3    H133124   2.516   0.142  11.838  0.4685 -0.6132  0.5280
 3903TIP3    H233125   2.564  -0.001  11.857  1.3790 -0.4082 -0.1649
 3904TIP3   OH233126   1.421   2.860   4.249  0.2076  0.0285  0.0872
 3904TIP3    H133127   1.346   2.890   4.301 -0.3962  0.9916 -1.2926
 3904TIP3    H233128   1.382   2.824   4.170  1.2021  0.5312 -0.6475
 3905TIP3   OH233129   2.611   2.003  16.512  0.0906  0.2499  0.0780
 3905TIP3    H133130   2.597   2.034  16.601 -1.2525  0.9615 -0.3544
 3905TIP3    H233131   2.563   1.920  16.508  0.3872  0.0730  0.0784
 3906TIP3   OH233132   3.682   3.945   3.801  0.2486  0.0269 -0.4871
 3906TIP3    H133133   3.648   4.031   3.778  1.3913  0.7574  0.4525
 3906TIP3    H233134   3.670   3.892   3.721 -0.4531  1.0513 -1.0735
 3907TIP3   OH233135   6.291   1.789   2.204  0.0402 -0.2422 -0.4070
 3907TIP3    H133136   6.211   1.752   2.242  0.1349 -1.1095 -1.0345
 3907TIP3    H233137   6.261   1.836   2.126 -0.1472  1.5002  0.6504
 3908TIP3   OH233138   1.755   1.624  13.194 -0.1572 -0.4158  0.1302
 3908TIP3    H133139   1.755   1.677  13.115 -0.7891 -0.5379  0.0441
 3908TIP3    H233140   1.672   1.645  13.237 -0.0858 -0.7913  0.4609
 3909TIP3   OH233141   3.996   5.602   4.558 -0.8526  0.1226  0.1163
 3909TIP3    H133142   4.017   5.672   4.620 -0.9287  1.4646 -1.2999
 3909TIP3    H233143   3.944   5.645   4.490  0.7222 -0.8447 -1.8212
 3910TIP3   OH233144   4.288   3.663   2.981 -0.0892  0.1068  0.4146
 3910TIP3    H133145   4.279   3.572   3.008 -0.8589  0.3979  1.1676
 3910TIP3    H233146   4.218   3.710   3.027  1.5490  1.4434  1.6682
 3911TIP3   OH233147   0.223   2.858  13.196  0.4159  0.1639 -0.5552
 3911TIP3    H133148   0.307   2.880  13.156  0.3009  1.6710 -0.0256
 3911TIP3    H233149   0.225   2.901  13.281 -0.2185 -1.2137  0.1759
 3912TIP3   OH233150   4.189   4.388  13.678  0.0287  0.4842  0.6435
 3912TIP3    H133151   4.096   4.411  13.672 -0.2710 -0.4618  1.3370
 3912TIP3    H233152   4.191   4.293  13.668  1.1149  0.6463 -1.1032
 3913TIP3   OH233153   0.510   1.884   5.529  0.6301  0.3744  0.2582
 3913TIP3    H133154   0.430   1.853   5.572  0.6087  2.1284  1.6100
 3913TIP3    H233155   0.483   1.961   5.479  1.2397  0.2023 -0.3560
 3914TIP3   OH233156   4.823   1.308   1.126  0.5321 -0.8146  0.1885
 3914TIP3    H133157   4.843   1.285   1.217 -1.0324  0.7175  1.0000
 3914TIP3    H233158   4.729   1.330   1.127  0.9777  1.5315 -1.2380
 3915TIP3   OH233159   3.699   1.094   5.786  0.4468  0.2482  0.1620
 3915TIP3    H133160   3.668   1.026   5.726 -1.6564  1.4396 -0.1855
 3915TIP3    H233161   3.735   1.162   5.728 -0.2352  0.7458  0.3077
 3916TIP3   OH233162   2.331   0.640  16.949 -0.3466  0.1218 -0.0056
 3916TIP3    H133163   2.273   0.652  16.874 -0.4075 -0.9927 -0.1544
 3916TIP3    H233164   2.279   0.666  17.025 -0.6641  0.1880 -0.2470
 3917TIP3   OH233165   0.315   3.142   2.978 -0.1358 -0.6920 -0.2837
 3917TIP3    H133166   0.395   3.113   3.022 -0.1960  0.8433  0.9291
 3917TIP3    H233167   0.340   3.151   2.886  1.6667  1.5197  0.3457
 3918TIP3   OH233168   1.070   5.477   0.776  0.1601  0.0287  0.2815
 3918TIP3    H133169   1.113   5.562   0.783 -0.1008  0.2213 -0.4332
 3918TIP3    H233170   1.013   5.484   0.700  1.1962 -1.2486 -0.6812
 3919TIP3   OH233171   0.363   0.923  16.157  0.1891  0.2659 -0.2699
 3919TIP3    H133172   0.388   0.862  16.227 -1.3152  1.1560  1.1209
 3919TIP3    H233173   0.434   0.917  16.093  2.6756  0.8344  2.2474
 3920TIP3   OH233174   4.437   6.047  16.622  0.2702 -0.3332 -0.2959
 3920TIP3    H133175   4.460   6.126  16.572  0.5068  0.3658  0.8950
 3920TIP3    H233176   4.508   6.037  16.685 -0.6126 -0.5187  0.6905
 3921TIP3   OH233177   0.284   1.292   3.633  0.4424 -0.3158  0.6927
 3921TIP3    H133178   0.205   1.340   3.659  1.0056  1.4532 -0.6205
 3921TIP3    H233179   0.355   1.339   3.676  1.1880  1.3812 -2.1641
 3922TIP3   OH233180   2.367   0.889  15.863 -1.1079  0.2495  0.1533
 3922TIP3    H133181   2.397   0.810  15.908 -0.2197 -0.7005 -1.9982
 3922TIP3    H233182   2.271   0.884  15.866 -1.0638 -1.0294 -0.1497
 3923TIP3   OH233183   3.388   2.907   0.012  0.1709 -0.1647  0.4089
 3923TIP3    H133184   3.441   2.885   0.089  0.5305 -0.9123 -0.0387
 3923TIP3    H233185   3.323   2.837   0.007 -0.4087  0.3600  0.5340
 3924TIP3   OH233186   5.417   0.741   2.821  0.5599  0.4942 -0.3930
 3924TIP3    H133187   5.427   0.675   2.752  1.8201  0.2054  0.0438
 3924TIP3    H233188   5.444   0.696   2.901  1.4889  1.5498 -0.0923
 3925TIP3   OH233189   0.702   2.102   3.026 -0.3900 -0.3136 -0.6190
 3925TIP3    H133190   0.612   2.075   3.045 -0.5536 -0.7533 -1.9793
 3925TIP3    H233191   0.694   2.192   2.993 -0.2988 -0.2714 -0.5294
 3926TIP3   OH233192   6.429   4.807  11.731  0.0216 -0.2259 -0.2357
 3926TIP3    H133193   6.387   4.888  11.700  0.3397 -0.1089 -0.3666
 3926TIP3    H233194   6.434   4.817  11.826 -1.7715 -0.9701 -0.0275
 3927TIP3   OH233195   3.874   2.374  15.813 -0.4083 -0.6822 -0.0085
 3927TIP3    H133196   3.835   2.362  15.899 -0.7461 -1.1656 -0.2249
 3927TIP3    H233197   3.964   2.402  15.830  0.0482 -2.3932  0.5071
 3928TIP3   OH233198   4.081   3.213   3.229 -0.3754 -0.0893  0.7827
 3928TIP3    H133199   4.163   3.183   3.190 -0.6782  0.5876 -0.4397
 3928TIP3    H233200   4.025   3.135   3.231  0.3018 -0.5760  1.7074
 3929TIP3   OH233201   1.982   0.099  11.993 -0.8587 -0.0230 -0.1315
 3929TIP3    H133202   2.071   0.072  12.018 -1.6875 -0.4084  2.8129
 3929TIP3    H233203   1.961   0.044  11.918  1.4259  0.1854 -1.0135
 3930TIP3   OH233204   3.221   5.235  15.145  0.5538 -0.2426 -0.1218
 3930TIP3    H133205   3.312   5.262  15.159  1.6007 -1.6861 -3.2237
 3930TIP3    H233206   3.228   5.148  15.105 -2.2770 -0.8664  0.5166
 3931TIP3   OH233207   2.121   4.131   5.123 -0.0064  0.0565 -0.2959
 3931TIP3    H133208   2.119   4.083   5.040  0.2792 -1.7230  0.6735
 3931TIP3    H233209   2.110   4.064   5.190 -1.5480  1.6007  1.0895
 3932TIP3   OH233210   4.937   5.529   4.083  0.7172  0.4716  0.7800
 3932TIP3    H133211   5.005   5.594   4.063  0.1190  0.2517 -2.4924
 3932TIP3    H233212   4.956   5.456   4.024 -0.6794 -0.8912  1.9164
 3933TIP3   OH233213   4.029   1.644   1.927  0.4503  0.0074  0.2235
 3933TIP3    H133214   4.045   1.703   2.001  0.4430  1.9934 -1.2933
 3933TIP3    H233215   4.035   1.700   1.850 -1.0279 -1.7069 -1.2187
 3934TIP3   OH233216   3.609   5.312   6.119  0.2412 -0.5197 -0.3017
 3934TIP3    H133217   3.530   5.272   6.084 -0.4807  0.3664  0.2752
 3934TIP3    H233218   3.627   5.262   6.200 -0.7430  0.3792  0.4973
 3935TIP3   OH233219   6.460   3.925   1.707 -0.2579  0.3051  0.1173
 3935TIP3    H133220   6.512   3.846   1.695  0.8501  0.7595  1.6942
 3935TIP3    H233221   6.497   3.988   1.646  0.1141  0.2003  0.2351
 3936TIP3   OH233222   1.924   6.311  10.924 -0.2612  0.0322  0.0230
 3936TIP3    H133223   1.829   6.297  10.922 -0.2343 -0.0886 -0.8734
 3936TIP3    H233224   1.949   6.318  10.831  0.6133  0.0041  0.2512
 3937TIP3   OH233225   0.386   3.456  15.918 -0.1845  0.1682  0.0345
 3937TIP3    H133226   0.317   3.522  15.922 -1.9353 -1.4926 -1.2722
 3937TIP3    H233227   0.456   3.498  15.867 -0.4073  1.6723  0.8897
 3938TIP3   OH233228   0.587   2.916  17.268 -0.1982  0.0375 -0.4919
 3938TIP3    H133229   0.676   2.898  17.299 -0.5346 -0.1723  0.4078
 3938TIP3    H233230   0.590   2.898  17.174  1.2046  1.9458 -0.8700
 3939TIP3   OH233231   0.486   4.096  11.527 -0.4029 -0.5802 -0.5642
 3939TIP3    H133232   0.570   4.134  11.501  0.5820 -1.6054  1.0133
 3939TIP3    H233233   0.508   4.011  11.565 -2.3558 -1.8314 -2.0268
 3940TIP3   OH233234   1.079   5.645  11.614 -0.6934  0.1624 -0.0863
 3940TIP3    H133235   1.017   5.595  11.666  1.4129 -0.4921  1.9478
 3940TIP3    H233236   1.117   5.582  11.553 -0.5659  0.0902  0.0675
 3941TIP3   OH233237   1.363   4.443   4.780  0.1565  0.0109 -0.4166
 3941TIP3    H133238   1.337   4.411   4.694  0.3651 -1.4959  0.0391
 3941TIP3    H233239   1.291   4.416   4.838 -0.4656  1.8738 -0.2440
 3942TIP3   OH233240   2.166   3.917   3.707 -0.1643 -0.2211 -0.3193
 3942TIP3    H133241   2.104   3.850   3.737  0.1981 -0.5548 -0.3194
 3942TIP3    H233242   2.252   3.880   3.723  0.0857  0.8216  1.0301
 3943TIP3   OH233243   5.117   2.278   5.661 -0.8115 -0.1800  0.1990
 3943TIP3    H133244   5.083   2.231   5.585 -2.6510 -3.1937  2.6271
 3943TIP3    H233245   5.131   2.210   5.727  1.9127  2.1010  2.2098
 3944TIP3   OH233246   5.150   0.153   3.824 -0.5093 -0.2231  0.0035
 3944TIP3    H133247   5.201   0.073   3.815 -0.8417 -0.3571 -0.8273
 3944TIP3    H233248   5.059   0.124   3.819 -0.6598  0.0930  0.7511
 3945TIP3   OH233249   0.799   1.786   4.504  0.7741  0.0078  0.7653
 3945TIP3    H133250   0.818   1.861   4.561 -0.3616  2.3035 -1.7099
 3945TIP3    H233251   0.870   1.786   4.440 -0.2878  0.2203 -0.4374
 3946TIP3   OH233252   3.441   2.193   1.031 -0.1188 -0.2231 -0.4624
 3946TIP3    H133253   3.507   2.262   1.029  0.6249 -0.9237 -0.1966
 3946TIP3    H233254   3.482   2.121   1.078 -1.0533 -0.6917 -0.3319
 3947TIP3   OH233255   5.803   1.865   5.059  0.4383  0.3545 -0.1918
 3947TIP3    H133256   5.863   1.866   4.984  1.4146 -0.7224  0.5495
 3947TIP3    H233257   5.848   1.814   5.126 -1.8190 -1.6007 -0.0391
 3948TIP3   OH233258   6.548   6.280   3.141 -0.4888  0.5544 -0.4220
 3948TIP3    H133259   6.557   6.196   3.185 -2.2986  0.5259 -0.0116
 3948TIP3    H233260   6.480   6.266   3.075 -0.8518  1.6841 -0.3172
 3949TIP3   OH233261   5.714   3.994   1.410  0.2008  0.1614 -0.2248
 3949TIP3    H133262   5.681   3.947   1.333 -0.7343  0.1475  0.1622
 3949TIP3    H233263   5.634   4.022   1.456  0.6947  2.4049 -0.5944
 3950TIP3   OH233264   0.191   6.489   4.392  0.8369  0.1608  0.2373
 3950TIP3    H133265   0.185   6.529   4.478 -2.3728  0.8749 -0.1888
 3950TIP3    H233266   0.179   6.396   4.408  2.8557 -0.0687  0.7204
 3951TIP3   OH233267   2.714   4.575  13.503 -0.0667 -0.5368  0.0686
 3951TIP3    H133268   2.691   4.630  13.579  1.2954  3.7959 -2.3157
 3951TIP3    H233269   2.804   4.547  13.520  0.0062 -0.1360  0.3640
 3952TIP3   OH233270   4.940   5.820  16.924 -0.0289  0.3705 -0.1259
 3952TIP3    H133271   4.855   5.791  16.890  0.6520 -2.0792  0.0399
 3952TIP3    H233272   4.919   5.894  16.980 -2.1688 -0.5593  0.4334
 3953TIP3   OH233273   6.568   1.036   2.758 -0.5176  0.0015  0.1920
 3953TIP3    H133274   6.577   1.080   2.842  4.2316  0.4786 -0.2954
 3953TIP3    H233275   6.580   0.943   2.778 -2.3219 -0.2541  0.2691
 3954TIP3   OH233276   1.434   3.007   0.215  0.5406 -0.0925 -0.1034
 3954TIP3    H133277   1.464   2.918   0.234  0.6338 -0.3311 -1.2794
 3954TIP3    H233278   1.340   3.000   0.204  0.3198  0.2579  1.3783
 3955TIP3   OH233279   0.171   6.675  14.363 -0.3739  0.3138  0.1961
 3955TIP3    H133280   0.189   6.590  14.324 -0.6083 -0.3128  1.3834
 3955TIP3    H233281   0.104   6.715  14.307 -0.9221 -0.6767  0.1290
 3956TIP3   OH233282   0.586   5.467   6.184 -0.5859 -0.8915  0.0810
 3956TIP3    H133283   0.546   5.527   6.121 -2.1721 -1.3834  0.5668
 3956TIP3    H233284   0.532   5.476   6.262 -0.7792 -2.8242  0.2137
 3957TIP3   OH233285   0.296   4.157  11.148 -0.4474  0.0796 -0.2286
 3957TIP3    H133286   0.233   4.202  11.092 -1.8434 -0.1420  1.0973
 3957TIP3    H233287   0.276   4.064  11.136  0.1461 -0.0314 -0.3745
 3958TIP3   OH233288   4.099   4.642   1.213 -0.7504  0.1156 -0.2333
 3958TIP3    H133289   4.173   4.656   1.153 -1.0497  1.6325 -0.2807
 3958TIP3    H233290   4.022   4.660   1.160 -1.0496  0.7657  0.4110
 3959TIP3   OH233291   4.913   1.608  15.830  0.7243  0.6496 -0.3805
 3959TIP3    H133292   4.964   1.684  15.803  1.6707  0.4978  0.8968
 3959TIP3    H233293   4.930   1.600  15.924  0.4933 -1.0185 -0.4569
 3960TIP3   OH233294   4.629   1.742  15.769  0.2692  0.1007  0.6314
 3960TIP3    H133295   4.708   1.781  15.807  0.1369  1.1296 -0.1065
 3960TIP3    H233296   4.662   1.673  15.711  0.5626 -0.2337  1.1897
 3961TIP3   OH233297   4.474   2.443  17.146 -0.1364  0.0662 -0.2467
 3961TIP3    H133298   4.402   2.458  17.207  0.2467  0.1780  0.1914
 3961TIP3    H233299   4.531   2.380  17.192  0.5276  0.7057 -0.1714
 3962TIP3   OH233300   1.145   2.287  16.184  0.0036 -0.1052  0.0379
 3962TIP3    H133301   1.193   2.370  16.187 -1.8267  0.9829  0.6876
 3962TIP3    H233302   1.110   2.276  16.272 -2.7605  0.3044 -0.9165
 3963TIP3   OH233303   0.191   0.614  16.074 -0.5337  0.1870 -0.3942
 3963TIP3    H133304   0.197   0.683  16.008  0.4697  0.5013  0.0095
 3963TIP3    H233305   0.238   0.540  16.037  2.7362  1.3046  1.0771
 3964TIP3   OH233306   4.019   5.252  16.940  0.0648  0.4547  0.1366
 3964TIP3    H133307   4.115   5.255  16.939  0.2754 -2.7187 -2.3867
 3964TIP3    H233308   3.993   5.287  16.855 -0.9148 -0.4123  0.0684
 3965TIP3   OH233309   3.337   0.613   5.165  0.0525 -0.4010  0.1249
 3965TIP3    H133310   3.408   0.677   5.159 -0.7972  0.4180 -1.8812
 3965TIP3    H233311   3.258   0.663   5.144 -0.5009 -2.2853 -2.8542
 3966TIP3   OH233312   5.456   4.399   4.093 -0.7604 -0.2852 -0.2256
 3966TIP3    H133313   5.506   4.420   4.014  1.0243  2.3301  1.4495
 3966TIP3    H233314   5.514   4.421   4.165 -3.5746  0.9938  1.8691
 3967TIP3   OH233315   4.810   2.305  11.302  0.4434 -0.0947  0.2358
 3967TIP3    H133316   4.813   2.299  11.206  0.6439 -0.8347  0.2866
 3967TIP3    H233317   4.829   2.397  11.320  1.7293 -0.2058 -0.3950
 3968TIP3   OH233318   5.603   0.763  10.536 -0.0778 -0.1644  0.0706
 3968TIP3    H133319   5.550   0.759  10.457 -0.4751 -0.2708  0.3388
 3968TIP3    H233320   5.642   0.676  10.545 -0.3142 -0.2585  0.1838
 3969TIP3   OH233321   3.104   3.640   1.670 -0.5932  0.5507 -0.1780
 3969TIP3    H133322   3.065   3.718   1.710 -0.4246  1.7256 -2.1812
 3969TIP3    H233323   3.037   3.609   1.610 -0.5105 -0.6795  0.3325
 3970TIP3   OH233324   4.935   0.757  11.742  0.1311 -0.1299 -0.3882
 3970TIP3    H133325   4.857   0.792  11.698 -1.4891 -1.5063  1.2100
 3970TIP3    H233326   4.956   0.822  11.809  0.7843  0.5416 -1.2172
 3971TIP3   OH233327   6.353   2.621  16.736  0.1379  0.0546 -0.3838
 3971TIP3    H133328   6.272   2.619  16.787  0.2951  0.5401 -0.1156
 3971TIP3    H233329   6.350   2.541  16.683  0.1849 -0.6936  0.7167
 3972TIP3   OH233330   5.362   2.278  12.647  0.5378  0.5592  0.0759
 3972TIP3    H133331   5.439   2.267  12.592  0.5089 -0.7673  0.2515
 3972TIP3    H233332   5.396   2.308  12.731  0.6898  1.5547 -0.3343
 3973TIP3   OH233333   1.427   5.875  14.666  0.3131 -0.4006 -0.6137
 3973TIP3    H133334   1.398   5.842  14.580 -0.3751  0.8391 -0.8908
 3973TIP3    H233335   1.348   5.870  14.721  0.6684 -0.8843 -0.1413
 3974TIP3   OH233336   5.719   2.222  10.736 -0.8077  0.5219 -0.4541
 3974TIP3    H133337   5.712   2.173  10.818  0.7532  0.5930 -0.2599
 3974TIP3    H233338   5.777   2.169  10.681 -1.5608  0.6459 -1.4052
 3975TIP3   OH233339   0.556   1.128   0.697  0.0730  0.1284 -0.0882
 3975TIP3    H133340   0.591   1.217   0.702  0.3649 -0.0276  0.9763
 3975TIP3    H233341   0.467   1.136   0.731 -1.1119  0.5686 -3.0082
 3976TIP3   OH233342   4.274   6.500  13.688 -0.2091  0.0791 -0.3904
 3976TIP3    H133343   4.205   6.565  13.698 -0.6862 -0.6431  1.3443
 3976TIP3    H233344   4.266   6.444  13.765  2.6994  0.3364  0.2235
 3977TIP3   OH233345   4.836   2.214  14.636 -0.3260 -0.5622 -0.5520
 3977TIP3    H133346   4.817   2.191  14.545 -1.0597 -1.3004 -0.2278
 3977TIP3    H233347   4.807   2.137  14.686  0.4049 -0.3121  0.2724
 3978TIP3   OH233348   6.057   1.960   4.927  0.2349 -0.0100 -0.1069
 3978TIP3    H133349   6.061   1.914   4.844 -0.3056  0.9358 -0.6707
 3978TIP3    H233350   6.138   2.011   4.930  0.5761 -0.5575  0.2711
 3979TIP3   OH233351   2.271   2.627   5.749  0.1340 -0.0212 -0.7581
 3979TIP3    H133352   2.241   2.611   5.838  0.0879  0.1092 -0.7495
 3979TIP3    H233353   2.362   2.597   5.748  0.7280  1.6095 -0.1678
 3980TIP3   OH233354   3.883   5.838   0.552 -0.0445  0.0117  0.6870
 3980TIP3    H133355   3.797   5.796   0.556 -0.2206  0.0563 -1.6006
 3980TIP3    H233356   3.867   5.928   0.578 -0.5476 -0.1520  0.9568
 3981TIP3   OH233357   6.666   5.299   1.970 -0.7125  0.2157  0.2338
 3981TIP3    H133358   6.588   5.278   2.021 -0.1338 -0.5091  0.8485
 3981TIP3    H233359   6.643   5.277   1.880 -1.4625  0.7152  0.2937
 3982TIP3   OH233360   3.606   0.173  15.521 -0.6498 -0.6369  0.3597
 3982TIP3    H133361   3.570   0.088  15.497 -0.8444 -1.7088  3.9027
 3982TIP3    H233362   3.700   0.156  15.533 -0.1755  0.3756 -1.6322
 3983TIP3   OH233363   0.680   3.797   5.094 -0.4133  0.3135  0.1857
 3983TIP3    H133364   0.701   3.885   5.125 -0.4607 -0.1112  1.4923
 3983TIP3    H233365   0.589   3.803   5.065  0.0218  1.0281 -1.0910
 3984TIP3   OH233366   3.298   3.549   1.083 -0.4377  0.4755 -0.0346
 3984TIP3    H133367   3.344   3.517   1.005  1.2260  0.3086  0.9637
 3984TIP3    H233368   3.314   3.643   1.084 -1.3727  0.6512 -0.4516
 3985TIP3   OH233369   0.366   6.193   2.853 -0.3960  0.8411  0.0150
 3985TIP3    H133370   0.456   6.194   2.887 -0.8590  1.4884  1.2584
 3985TIP3    H233371   0.320   6.130   2.908 -0.3910 -0.6265 -1.5585
 3986TIP3   OH233372   2.806   3.652   1.765  0.5307  0.4300  0.1925
 3986TIP3    H133373   2.804   3.569   1.718  0.3639  0.5182  0.0465
 3986TIP3    H233374   2.775   3.717   1.702 -0.5651  0.4132  0.6857
 3987TIP3   OH233375   0.199   3.695  17.237 -0.6724 -0.4570  0.4226
 3987TIP3    H133376   0.290   3.719  17.255 -1.1510  1.2341  0.7482
 3987TIP3    H233377   0.203   3.603  17.213  1.3450 -0.0523 -1.1354
 3988TIP3   OH233378   5.795   2.334   2.632  0.5684  0.1508 -0.3846
 3988TIP3    H133379   5.803   2.388   2.554 -0.2109  0.4799 -0.2384
 3988TIP3    H233380   5.728   2.269   2.610 -0.5641  1.0041  0.4237
 3989TIP3   OH233381   3.275   3.255   0.324 -0.0976 -0.1705  0.6926
 3989TIP3    H133382   3.255   3.166   0.294  0.7727  0.1696 -1.0058
 3989TIP3    H233383   3.369   3.254   0.342 -0.4589 -0.1648  2.9004
 3990TIP3   OH233384   0.527   0.629  13.565 -0.0580 -0.0933 -0.2645
 3990TIP3    H133385   0.535   0.721  13.589  0.5472 -0.4625  1.0379
 3990TIP3    H233386   0.535   0.582  13.648 -1.1336 -1.2878 -0.8079
 3991TIP3   OH233387   5.445   5.811   4.584 -0.1870  0.4460  0.0192
 3991TIP3    H133388   5.378   5.879   4.577 -0.6607  0.0569  0.6085
 3991TIP3    H233389   5.432   5.774   4.672  1.4215  1.0080  0.5250
 3992TIP3   OH233390   6.243   2.210  13.890  0.9005 -0.0283 -0.2291
 3992TIP3    H133391   6.320   2.197  13.835  1.2644 -1.3357  0.5465
 3992TIP3    H233392   6.220   2.302  13.878  1.2607 -0.1472 -2.1633
 3993TIP3   OH233393   3.618   3.160   3.692  0.1961  0.0194 -0.3613
 3993TIP3    H133394   3.617   3.237   3.635 -0.3827  1.6921  1.7894
 3993TIP3    H233395   3.702   3.165   3.738  0.8622 -1.5631 -1.3178
 3994TIP3   OH233396   6.743   5.343  16.859  0.2348  0.5925 -0.2350
 3994TIP3    H133397   6.669   5.364  16.802 -0.0134  0.3019 -0.0219
 3994TIP3    H233398   6.802   5.418  16.849  1.8393 -0.9015 -3.4944
 3995TIP3   OH233399   2.906   3.140   1.728  0.1291 -0.1423 -0.1083
 3995TIP3    H133400   2.963   3.070   1.696  1.3275  0.2204  1.1718
 3995TIP3    H233401   2.963   3.196   1.781 -0.4417  2.6655 -2.2316
 3996TIP3   OH233402   4.567   3.927   5.336  0.3489 -0.0546 -0.2516
 3996TIP3    H133403   4.579   3.868   5.262  0.3930  0.2925 -0.5229
 3996TIP3    H233404   4.534   4.008   5.297  1.8758  0.6747 -0.0889
 3997TIP3   OH233405   2.936   2.088   0.617 -0.4338 -0.3033 -0.3887
 3997TIP3    H133406   2.948   2.112   0.709  0.2907 -0.2805 -0.4902
 3997TIP3    H233407   3.001   2.140   0.570 -1.5827  0.5939 -1.0537
 3998TIP3   OH233408   4.104   4.110   5.414 -0.1867  0.1278 -0.6890
 3998TIP3    H133409   4.051   4.127   5.336  0.9334 -2.1261 -2.0526
 3998TIP3    H233410   4.119   4.016   5.412 -0.7771 -0.1744  2.7614
 3999TIP3   OH233411   4.114   2.557  16.261  0.0350 -0.4473  0.4328
 3999TIP3    H133412   4.021   2.577  16.272 -0.1949 -1.6190  0.7548
 3999TIP3    H233413   4.123   2.466  16.289  1.1128 -0.6568 -0.4849
 4000TIP3   OH233414   4.046   5.284  12.676  0.4162  0.4547 -0.0463
 4000TIP3    H133415   4.084   5.280  12.764 -2.6588  0.3001  1.4034
 4000TIP3    H233416   4.027   5.376  12.662  4.0124  1.0887 -2.1880
 4001TIP3   OH233417   1.988   4.278   4.196 -0.2344 -0.1442 -0.3845
 4001TIP3    H133418   2.072   4.242   4.224 -1.6398 -2.4645  1.1661
 4001TIP3    H233419   1.994   4.281   4.101  1.7222  0.1459 -0.2924
 4002TIP3   OH233420   6.009   4.055  17.200 -0.7248  0.6245  0.0417
 4002TIP3    H133421   5.962   4.090  17.125  0.8336  1.6480 -0.5099
 4002TIP3    H233422   6.101   4.056  17.173 -0.2688 -0.4280  1.4123
 4003TIP3   OH233423   2.481   3.303   0.236 -0.5552 -0.2834 -0.1426
 4003TIP3    H133424   2.408   3.362   0.257 -1.6524 -0.9963 -1.7526
 4003TIP3    H233425   2.451   3.217   0.266 -0.2742 -0.5410 -0.5885
 4004TIP3   OH233426   5.719   1.647  15.065  0.1331  0.0404  0.1756
 4004TIP3    H133427   5.717   1.599  15.148 -1.2975 -1.3550 -0.5999
 4004TIP3    H233428   5.744   1.581  15.000  0.9287  1.0377 -0.5640
 4005TIP3   OH233429   1.952   0.812   4.564  0.0615 -0.3266 -0.3340
 4005TIP3    H133430   1.876   0.800   4.507  0.2413 -2.1150 -0.2525
 4005TIP3    H233431   2.009   0.871   4.515 -0.5632 -0.4378 -1.2192
 4006TIP3   OH233432   1.247   6.236   4.365  0.2344  0.4382 -0.1522
 4006TIP3    H133433   1.165   6.252   4.319 -1.5662 -1.1631  2.2693
 4006TIP3    H233434   1.252   6.305   4.430  0.3277  0.0029  0.3043
 4007TIP3   OH233435   4.874   0.026  12.215  0.0619  0.0350  0.0340
 4007TIP3    H133436   4.841  -0.064  12.216  0.5968 -0.2382 -1.9440
 4007TIP3    H233437   4.816   0.072  12.154 -1.7273  1.7370  2.7831
 4008TIP3   OH233438   5.895   1.895  11.691  0.8406  0.1808 -0.2460
 4008TIP3    H133439   5.943   1.842  11.627  0.4230 -1.1726  0.5097
 4008TIP3    H233440   5.810   1.912  11.649  0.3399 -1.2066  0.1212
 4009TIP3   OH233441   1.207   0.703   3.862  0.4375  0.2379 -0.0757
 4009TIP3    H133442   1.146   0.638   3.829 -0.0860 -0.5435  2.1910
 4009TIP3    H233443   1.152   0.772   3.900  0.9881  1.2148 -0.9891
 4010TIP3   OH233444   0.169   1.363   0.165 -0.0888  0.0564  0.0150
 4010TIP3    H133445   0.160   1.393   0.256 -0.3149 -0.3920  0.1426
 4010TIP3    H233446   0.107   1.416   0.116 -1.2523 -0.9104  0.4035
 4011TIP3   OH233447   6.390   0.750  11.939  0.6208 -0.2771  0.4805
 4011TIP3    H133448   6.346   0.822  11.895  1.9689  0.4208  0.2350
 4011TIP3    H233449   6.365   0.759  12.031 -0.5041 -0.4747  0.2067
 4012TIP3   OH233450   1.148   6.653   0.929  0.2619  0.5294  0.2284
 4012TIP3    H133451   1.171   6.744   0.907  0.6651  0.1630 -0.9387
 4012TIP3    H233452   1.106   6.619   0.850 -0.8778  0.0044  1.0191
 4013TIP3   OH233453   3.763   4.870  15.738 -0.5815  0.3550 -0.1914
 4013TIP3    H133454   3.848   4.826  15.744 -0.4758  0.6714  0.8045
 4013TIP3    H233455   3.726   4.863  15.827 -2.1530 -0.8613 -0.8773
 4014TIP3   OH233456   5.806   4.727  16.049 -0.3806 -0.2049  0.0836
 4014TIP3    H133457   5.720   4.765  16.064 -0.1272  0.4248 -0.0195
 4014TIP3    H233458   5.867   4.785  16.095  0.1302  0.1819 -1.0373
 4015TIP3   OH233459   0.924   5.040   1.417  0.2166  0.0082  0.0251
 4015TIP3    H133460   0.988   5.097   1.460 -0.1705  0.5406 -0.0916
 4015TIP3    H233461   0.977   4.971   1.378  0.7102  0.3437  0.0836
 4016TIP3   OH233462   3.871   1.130   1.326  0.1062 -0.3479 -0.3965
 4016TIP3    H133463   3.856   1.185   1.249 -1.8314 -1.3624 -0.7913
 4016TIP3    H233464   3.862   1.190   1.400 -0.4636  0.1733 -0.8748
 4017TIP3   OH233465   4.909   1.501   5.296  0.3061  0.1976 -0.2845
 4017TIP3    H133466   4.965   1.427   5.317  1.1570  0.8963 -0.0489
 4017TIP3    H233467   4.849   1.507   5.371  1.6470  1.0762  0.7637
 4018TIP3   OH233468   5.550   3.235   0.351  0.4220  0.1980 -1.2505
 4018TIP3    H133469   5.507   3.308   0.396  0.0124 -1.4250  1.1623
 4018TIP3    H233470   5.477   3.177   0.326  0.8210  0.1002 -2.2343
 4019TIP3   OH233471   4.208   3.557  16.981 -0.2032 -0.1388  0.0792
 4019TIP3    H133472   4.231   3.546  17.073 -2.2517 -1.1456  0.5298
 4019TIP3    H233473   4.112   3.557  16.980 -0.2300  0.4907 -1.9938
 4020TIP3   OH233474   5.695   5.050  15.024  0.3284  0.4307 -0.4120
 4020TIP3    H133475   5.652   4.995  15.090  0.9299 -0.5473 -0.8285
 4020TIP3    H233476   5.781   5.068  15.061  1.8164 -2.5541 -2.1447
 4021TIP3   OH233477   1.352   5.617   5.486 -0.0302  0.6362 -0.0506
 4021TIP3    H133478   1.413   5.689   5.499  0.8367 -0.2434  1.0376
 4021TIP3    H233479   1.288   5.626   5.557  1.2643 -0.7737  1.3926
 4022TIP3   OH233480   5.086   5.616  14.561 -0.2917 -0.3972  0.1591
 4022TIP3    H133481   5.147   5.613  14.634 -1.9209 -3.3850  1.5706
 4022TIP3    H233482   5.062   5.709  14.553  0.4639  0.1157  2.9328
 4023TIP3   OH233483   5.470   3.711  15.713 -0.3764  0.4273  0.4962
 4023TIP3    H133484   5.509   3.645  15.655 -0.9105  0.2174  0.3702
 4023TIP3    H233485   5.480   3.794  15.665 -1.5432  0.1451 -0.2826
 4024TIP3   OH233486   4.201   0.966   4.209  0.1276  0.3832  0.4145
 4024TIP3    H133487   4.122   1.010   4.176  0.2282 -0.1109 -0.5163
 4024TIP3    H233488   4.262   1.037   4.226 -0.5027  0.7697  1.1063
 4025TIP3   OH233489   2.782   2.809   3.643  0.4896  0.3422  0.0401
 4025TIP3    H133490   2.732   2.732   3.617  0.7428  0.3537 -0.4911
 4025TIP3    H233491   2.806   2.851   3.561 -0.3900  1.4786  0.3342
 4026TIP3   OH233492   1.924   1.824   2.602  0.0739  0.3893  0.9380
 4026TIP3    H133493   1.883   1.879   2.535  1.0735 -0.7948 -0.7150
 4026TIP3    H233494   1.851   1.785   2.650 -0.7032  0.0265 -0.5098
 4027TIP3   OH233495   6.359   2.722  11.411 -0.6241  0.0631 -0.5689
 4027TIP3    H133496   6.295   2.677  11.466 -1.8269  0.4729 -1.5868
 4027TIP3    H233497   6.405   2.652  11.364 -1.0404 -0.1951 -0.5899
 4028TIP3   OH233498   6.208   4.789   0.202 -1.2015 -0.7690  0.2371
 4028TIP3    H133499   6.233   4.711   0.252  0.9258 -0.5841 -0.4550
 4028TIP3    H233500   6.250   4.861   0.249 -1.0527 -0.3439 -0.5406
 4029TIP3   OH233501   1.258   6.107  16.017  0.1764  0.1488  0.1827
 4029TIP3    H133502   1.195   6.036  16.028 -0.9264  0.5860 -2.4929
 4029TIP3    H233503   1.254   6.156  16.099 -0.9434 -1.3828  1.1078
 4030TIP3   OH233504   3.943   5.306  16.694 -0.3383 -0.0333 -0.1646
 4030TIP3    H133505   3.850   5.293  16.674 -0.3889 -0.6219  0.3985
 4030TIP3    H233506   3.965   5.389  16.652 -0.1957 -1.5472 -3.3763
 4031TIP3   OH233507   2.961   1.519  14.560  0.2016  0.3175  0.5129
 4031TIP3    H133508   2.883   1.564  14.592 -1.4606 -1.7130 -0.5309
 4031TIP3    H233509   3.011   1.588  14.515 -1.6792  1.3626 -0.0619
 4032TIP3   OH233510   0.240   6.106   4.040 -0.2046 -0.7026 -0.0009
 4032TIP3    H133511   0.175   6.175   4.025 -0.2047 -0.3579  1.4488
 4032TIP3    H233512   0.324   6.151   4.033 -0.0249 -1.2417 -2.3755
 4033TIP3   OH233513   6.689   4.880  15.329 -0.6257 -0.0207  0.4891
 4033TIP3    H133514   6.677   4.974  15.340  0.0352  0.1243 -0.0148
 4033TIP3    H233515   6.603   4.848  15.302 -1.0832  0.3006  1.5248
 4034TIP3   OH233516   5.213   5.204   5.126 -0.6982 -0.5953  0.2115
 4034TIP3    H133517   5.212   5.150   5.047 -2.3684 -0.8589  0.3782
 4034TIP3    H233518   5.199   5.141   5.197 -2.9455  0.0198  0.3929
 4035TIP3   OH233519   3.370   0.668   0.378 -0.0573 -0.2977 -0.2422
 4035TIP3    H133520   3.353   0.691   0.470  0.7586  1.9534 -0.6152
 4035TIP3    H233521   3.379   0.572   0.380  0.5578 -0.2670  2.1242
 4036TIP3   OH233522   6.654   5.216   2.558 -0.0241  0.5316 -0.0483
 4036TIP3    H133523   6.599   5.152   2.512  3.6441 -1.1401 -2.6028
 4036TIP3    H233524   6.691   5.167   2.631 -1.3859  1.4866  1.3336
 4037TIP3   OH233525   6.315   1.988   5.771  0.4687  0.0766  0.3444
 4037TIP3    H133526   6.341   1.919   5.832  1.3953  0.8245  0.8211
 4037TIP3    H233527   6.386   1.991   5.707  0.9833  1.3241  0.9555
 4038TIP3   OH233528   4.582   4.699   0.813  0.2700 -0.5579 -0.0717
 4038TIP3    H133529   4.498   4.706   0.769  0.6342 -1.4781 -0.9719
 4038TIP3    H233530   4.634   4.642   0.756  0.6633 -2.0547  1.6745
 4039TIP3   OH233531   3.451   2.536  11.927  0.1139  0.3682  0.2706
 4039TIP3    H133532   3.504   2.493  11.993 -0.1774 -0.3579  0.0486
 4039TIP3    H233533   3.513   2.585  11.873  0.6883 -1.1330 -0.4903
 4040TIP3   OH233534   0.343   5.193   3.969  0.1620  0.3495  0.1972
 4040TIP3    H133535   0.302   5.130   3.909  3.3410 -0.6698 -1.1397
 4040TIP3    H233536   0.348   5.274   3.918  1.5698 -0.1182 -0.4692
 4041TIP3   OH233537   0.172   0.290   1.773  0.0799  0.3864  0.1127
 4041TIP3    H133538   0.092   0.286   1.825  0.9029 -1.5076  1.3786
 4041TIP3    H233539   0.155   0.235   1.698  0.0185  0.3936  0.1216
 4042TIP3   OH233540   1.512   6.546   2.387  0.2649  0.8002 -0.3037
 4042TIP3    H133541   1.448   6.476   2.375 -0.0432  1.1397 -0.6512
 4042TIP3    H233542   1.564   6.546   2.307  0.3261  0.9094 -0.2648
 4043TIP3   OH233543   3.227   1.327  12.397 -0.1600  0.6192 -0.1613
 4043TIP3    H133544   3.177   1.408  12.385 -2.0347 -0.3998  0.4953
 4043TIP3    H233545   3.251   1.328  12.490  0.3941  0.7164 -0.3000
 4044TIP3   OH233546   0.621   6.506  10.884  0.6856 -0.1128  0.5460
 4044TIP3    H133547   0.690   6.537  10.825 -1.0863  0.8417 -1.1347
 4044TIP3    H233548   0.667   6.483  10.965  2.7129  2.4019  0.2133
 4045TIP3   OH233549   1.308   5.009  12.091  0.1703 -0.0301  0.2354
 4045TIP3    H133550   1.285   4.942  12.027 -0.6483 -1.7044  2.1357
 4045TIP3    H233551   1.403   5.000  12.102  0.2006 -0.2443 -0.1809
 4046TIP3   OH233552   4.286   6.481   0.961 -0.0372  0.1072 -0.2052
 4046TIP3    H133553   4.282   6.573   0.934 -2.5470  0.1405  0.0439
 4046TIP3    H233554   4.253   6.481   1.050 -0.7322 -1.1149 -0.4489
 4047TIP3   OH233555   5.781   0.435   4.132 -0.2702  0.0941  0.4977
 4047TIP3    H133556   5.826   0.488   4.198  2.0817 -2.0787  0.7849
 4047TIP3    H233557   5.819   0.347   4.141 -2.5836 -1.2001 -1.2474
 4048TIP3   OH233558   2.498   3.348   1.990  0.2885  0.3024 -0.7568
 4048TIP3    H133559   2.482   3.371   2.081 -0.7638 -1.3867 -0.4615
 4048TIP3    H233560   2.585   3.308   1.990  0.6625  1.1082 -0.6631
 4049TIP3   OH233561   4.835   1.226  13.816  0.3465  0.3128  0.0576
 4049TIP3    H133562   4.910   1.224  13.875  0.6673  2.6018 -0.1886
 4049TIP3    H233563   4.774   1.288  13.855 -2.0701 -2.3475  0.8728
 4050TIP3   OH233564   1.340   2.262  16.526 -0.1012  0.2758 -0.5613
 4050TIP3    H133565   1.435   2.263  16.515  0.1445  1.9551  1.0328
 4050TIP3    H233566   1.314   2.354  16.514 -1.2155  0.2037  1.0137
 4051TIP3   OH233567   5.813   3.033   3.966  0.1593 -0.2028  0.1127
 4051TIP3    H133568   5.789   2.945   3.995  0.1182  0.0098  0.7449
 4051TIP3    H233569   5.742   3.089   3.999 -0.5536 -0.1114 -1.4886
 4052TIP3   OH233570   1.047   0.642  11.105 -0.1235 -0.4361  0.6833
 4052TIP3    H133571   1.133   0.677  11.084  0.3252 -1.2222  1.1575
 4052TIP3    H233572   1.003   0.633  11.021 -0.1031  0.8391  0.5095
 4053TIP3   OH233573   1.327   0.025  13.313 -0.3642 -0.2054  0.3065
 4053TIP3    H133574   1.296   0.115  13.312  2.3891  1.0011 -4.0613
 4053TIP3    H233575   1.404   0.027  13.370 -0.4956  0.1123  0.4745
 4054TIP3   OH233576   2.014   5.169  11.751  0.5460 -0.0920 -0.4827
 4054TIP3    H133577   1.952   5.242  11.745 -0.7908 -1.2135 -1.0924
 4054TIP3    H233578   2.014   5.145  11.843 -0.2800 -0.3383 -0.5351
 4055TIP3   OH233579   3.014   4.124   3.837 -0.1604 -0.1598  0.0062
 4055TIP3    H133580   2.979   4.109   3.925 -0.4031 -2.2327 -0.3937
 4055TIP3    H233581   2.956   4.190   3.799  0.6976  1.7602  1.7833
 4056TIP3   OH233582   4.162   5.930   2.068 -0.1388  0.1677  0.4494
 4056TIP3    H133583   4.200   6.006   2.024 -0.3258  0.4020  0.6939
 4056TIP3    H233584   4.078   5.961   2.101 -0.9863 -0.6029 -0.8932
 4057TIP3   OH233585   4.340   3.344  13.199 -0.5366  0.3465  0.1126
 4057TIP3    H133586   4.294   3.267  13.234  0.1812  0.5209  1.5297
 4057TIP3    H233587   4.331   3.337  13.104  0.5521 -2.1460  0.1207
 4058TIP3   OH233588   3.709   2.172  14.659 -0.0082  0.5402  0.2898
 4058TIP3    H133589   3.749   2.159  14.573 -1.1874 -0.9260 -0.0732
 4058TIP3    H233590   3.744   2.101  14.713  0.9077  1.5896  1.1157
 4059TIP3   OH233591   2.510   0.796  14.244 -0.2136 -0.4349 -0.1482
 4059TIP3    H133592   2.523   0.752  14.160  0.6112 -2.2043  0.8592
 4059TIP3    H233593   2.415   0.796  14.256 -0.2273 -2.2835 -0.0349
 4060TIP3   OH233594   5.767   2.208  13.381 -0.6407 -0.3592 -0.9902
 4060TIP3    H133595   5.735   2.210  13.471  0.8823  0.6704 -0.4395
 4060TIP3    H233596   5.712   2.270  13.334  0.6747  1.6765  0.0301
 4061TIP3   OH233597   1.725   4.284  16.794 -0.5436  0.2818 -0.1970
 4061TIP3    H133598   1.666   4.226  16.746 -1.5691  2.2739 -1.4469
 4061TIP3    H233599   1.689   4.371  16.782  1.9631  1.4547  0.0646
 4062TIP3   OH233600   2.618   3.715   4.295 -0.1419 -0.5286  0.2895
 4062TIP3    H133601   2.682   3.645   4.284 -0.4699 -1.0541  1.4936
 4062TIP3    H233602   2.634   3.749   4.383 -2.7226 -1.9947  1.4590
 4063TIP3   OH233603   0.995   3.299   1.717  0.2279 -0.3426  0.7690
 4063TIP3    H133604   1.075   3.256   1.749  0.0194 -1.1781  0.1881
 4063TIP3    H233605   1.026   3.364   1.654  0.4047 -1.3390 -0.1982
 4064TIP3   OH233606   4.484   1.374  12.385 -0.4959  0.1260 -0.4874
 4064TIP3    H133607   4.450   1.419  12.307  0.3686 -2.0428 -2.2102
 4064TIP3    H233608   4.575   1.354  12.364 -0.4228 -1.0911  0.8261
 4065TIP3   OH233609   1.307   2.721  12.915 -0.3656  0.2285 -0.1181
 4065TIP3    H133610   1.304   2.627  12.899  0.7415  0.3959 -1.5130
 4065TIP3    H233611   1.216   2.746  12.933 -0.4083 -1.4005  2.3548
 4066TIP3   OH233612   3.489   5.749  12.543 -0.3295  0.2130  0.5038
 4066TIP3    H133613   3.475   5.815  12.611  1.2545 -1.0732  2.1454
 4066TIP3    H233614   3.584   5.746  12.531 -0.4526 -0.9889 -0.3386
 4067TIP3   OH233615   5.947   0.936  13.599  0.0667 -0.2842  0.6969
 4067TIP3    H133616   5.878   0.870  13.607 -0.5106  0.3687  1.1845
 4067TIP3    H233617   5.901   1.019  13.598  0.7179  0.0939 -0.9140
 4068TIP3   OH233618   0.681   3.425  16.664 -0.5822  1.0370 -0.0948
 4068TIP3    H133619   0.717   3.342  16.632  0.3875  0.8336  1.3921
 4068TIP3    H233620   0.739   3.449  16.737 -2.3728  1.7024  1.1724
 4069TIP3   OH233621   4.779   0.352   5.494  0.7778 -0.6057  0.1549
 4069TIP3    H133622   4.801   0.441   5.466  1.6345 -0.5887  0.8580
 4069TIP3    H233623   4.733   0.363   5.577 -0.3177 -0.7576 -0.4048
 4070TIP3   OH233624   0.140   4.861  14.460  0.1180  0.4543 -0.0699
 4070TIP3    H133625   0.131   4.799  14.533  0.4262  1.0663  0.4952
 4070TIP3    H233626   0.194   4.815  14.396 -1.2206 -0.6046 -0.5056
 4071TIP3   OH233627   2.143   6.685  17.258 -0.1068 -0.1985 -0.0792
 4071TIP3    H133628   2.140   6.778  17.277 -1.3046 -0.0900 -0.6750
 4071TIP3    H233629   2.090   6.644  17.326  0.9810 -0.5331  0.5844
 4072TIP3   OH233630   5.821   0.621   1.325  0.4422 -0.1100  0.3375
 4072TIP3    H133631   5.894   0.578   1.370  0.8661 -0.4456 -0.6564
 4072TIP3    H233632   5.862   0.664   1.250 -0.3641 -0.1503 -0.1262
 4073TIP3   OH233633   2.726   5.881  12.361 -0.3483  0.7426 -0.0028
 4073TIP3    H133634   2.804   5.889  12.305 -0.6244  0.2929 -0.4564
 4073TIP3    H233635   2.756   5.827  12.435  0.0962  1.5780  0.4467
 4074TIP3   OH233636   0.244   3.313   6.080 -0.0663 -0.2919  0.5013
 4074TIP3    H133637   0.174   3.251   6.060 -1.2079  0.9286  0.5615
 4074TIP3    H233638   0.284   3.279   6.160 -1.0888 -0.6236  0.8865
 4075TIP3   OH233639   1.455   2.906  11.554  0.3618 -0.2118 -0.0862
 4075TIP3    H133640   1.509   2.895  11.475 -1.9608  1.0351 -1.9933
 4075TIP3    H233641   1.429   2.817  11.577  2.3973 -0.7474  0.3340
 4076TIP3   OH233642   2.014   6.298  17.081 -0.3495 -0.8192  0.6353
 4076TIP3    H133643   2.015   6.214  17.037  2.7383 -0.8583  0.4996
 4076TIP3    H233644   2.023   6.362  17.011 -0.4406 -0.5495  0.8672
 4077TIP3   OH233645   2.145   6.665   2.008 -0.1898 -0.3774 -0.0899
 4077TIP3    H133646   2.235   6.637   2.024  0.6213  1.7613 -0.5356
 4077TIP3    H233647   2.121   6.624   1.925  0.7560 -0.1927 -0.4731
 4078TIP3   OH233648   6.577   4.397   2.457  0.4040 -0.1705  0.2048
 4078TIP3    H133649   6.661   4.442   2.448  0.2472  0.0060 -0.4059
 4078TIP3    H233650   6.547   4.382   2.367 -0.4758  0.2571  0.4128
 4079TIP3   OH233651   1.317   3.564   0.886 -0.9344  0.1948  0.5147
 4079TIP3    H133652   1.230   3.527   0.902 -1.0129  0.1757  0.0569
 4079TIP3    H233653   1.374   3.522   0.950 -1.6165  1.6237  2.1280
 4080TIP3   OH233654   5.974   1.129  11.781  0.3033 -0.5385 -0.6010
 4080TIP3    H133655   5.988   1.176  11.863  1.8947  0.2230 -1.2768
 4080TIP3    H233656   5.893   1.080  11.795 -0.0019  0.3786  1.0463
 4081TIP3   OH233657   2.464   1.100   4.036 -0.8408  0.0145  0.4720
 4081TIP3    H133658   2.448   1.179   4.086 -2.0746 -1.6500  2.9313
 4081TIP3    H233659   2.559   1.088   4.039 -0.4427  2.0981 -1.2697
 4082TIP3   OH233660   0.827   5.072   5.711 -0.5992 -0.2214 -0.3138
 4082TIP3    H133661   0.898   5.036   5.657  0.3965  1.5395 -0.2839
 4082TIP3    H233662   0.769   5.116   5.648 -0.2451  0.5483 -0.1151
 4083TIP3   OH233663   4.787   6.090   3.045 -0.6013  0.6704 -0.0545
 4083TIP3    H133664   4.779   6.082   3.140  0.5831 -1.2038 -0.0578
 4083TIP3    H233665   4.846   6.163   3.031  0.0730  0.2833  0.7080
 4084TIP3   OH233666   0.797   2.602  15.718 -0.1666  0.0461 -0.3635
 4084TIP3    H133667   0.775   2.664  15.788  1.2585  1.1510 -0.8391
 4084TIP3    H233668   0.716   2.590  15.669 -1.3576 -1.1875  1.7506
 4085TIP3   OH233669   5.097   3.814  16.691 -0.0319  0.4828 -0.4507
 4085TIP3    H133670   5.190   3.832  16.703 -0.1072 -0.0842  1.2143
 4085TIP3    H233671   5.063   3.893  16.649  0.9600  1.2086  0.0573
 4086TIP3   OH233672   6.451   0.018  11.348  0.0408 -0.5969  0.1144
 4086TIP3    H133673   6.523  -0.041  11.330  0.6991  0.3740 -0.5211
 4086TIP3    H233674   6.492   0.094  11.389 -0.4457  0.4434 -1.2446
 4087TIP3   OH233675   2.527   4.401  16.729  0.2130  0.1160  0.5919
 4087TIP3    H133676   2.492   4.427  16.814 -1.7275 -2.3179  0.6563
 4087TIP3    H233677   2.560   4.312  16.744  0.6739 -0.0048 -1.0110
 4088TIP3   OH233678   4.864   2.700  15.206  0.2029  0.2382 -0.0327
 4088TIP3    H133679   4.933   2.694  15.141  0.8270 -1.7273  0.7243
 4088TIP3    H233680   4.909   2.688  15.290 -0.8260  0.7665  0.6187
 4089TIP3   OH233681   2.688   6.183  14.733 -0.2706 -0.4279 -0.5209
 4089TIP3    H133682   2.610   6.140  14.698  0.5383 -2.0235 -0.4545
 4089TIP3    H233683   2.715   6.243  14.663 -1.2558 -0.2184 -0.7441
 4090TIP3   OH233684   4.592   0.880   5.920  0.1079 -0.3756  0.8805
 4090TIP3    H133685   4.547   0.949   5.970  0.0459 -0.5532  1.0685
 4090TIP3    H233686   4.632   0.825   5.987  1.7614  0.5425  0.7030
 4091TIP3   OH233687   1.332   2.197   2.406  0.2093 -0.0447  0.2836
 4091TIP3    H133688   1.319   2.194   2.501 -0.8805  0.3491  0.1513
 4091TIP3    H233689   1.249   2.229   2.371  1.0358  1.1018 -0.7073
 4092TIP3   OH233690   5.739   0.274   5.620 -0.0671  0.0450 -0.3834
 4092TIP3    H133691   5.702   0.217   5.552  0.5740  0.6544 -1.2719
 4092TIP3    H233692   5.711   0.362   5.594  1.0500  0.3942 -0.4383
 4093TIP3   OH233693   0.444   3.107  15.066 -0.0190  0.1436  0.4257
 4093TIP3    H133694   0.459   3.013  15.074  2.4454  0.3219 -0.9716
 4093TIP3    H233695   0.497   3.146  15.135  0.8751  0.5611 -0.4660
 4094TIP3   OH233696   1.886   1.830  12.453 -0.1071  0.3793  0.3513
 4094TIP3    H133697   1.937   1.789  12.383 -0.0150  0.8569  0.1355
 4094TIP3    H233698   1.853   1.911  12.414 -3.3433 -1.1539 -0.4844
 4095TIP3   OH233699   5.123   5.932   0.975  0.0247  0.0306  0.2218
 4095TIP3    H133700   5.098   6.022   0.996  0.0815 -0.0221  0.5263
 4095TIP3    H233701   5.194   5.913   1.036 -1.0288 -0.7641  1.2359
 4096TIP3   OH233702   5.421   1.974   2.382 -0.0152 -0.0996 -0.8608
 4096TIP3    H133703   5.378   2.060   2.385 -0.7045 -0.4431 -0.6531
 4096TIP3    H233704   5.366   1.922   2.324 -2.7224 -2.0181  3.0377
 4097TIP3   OH233705   4.889   1.816  16.882 -0.5502  0.2252  0.1670
 4097TIP3    H133706   4.887   1.907  16.912  1.1702  0.3216  0.1058
 4097TIP3    H233707   4.860   1.820  16.791  1.3199  1.0293 -0.4440
 4098TIP3   OH233708   3.865   3.544  16.175  0.1123 -0.3693 -0.4829
 4098TIP3    H133709   3.857   3.485  16.100  0.7075 -0.7210 -0.2722
 4098TIP3    H233710   3.838   3.629  16.141  0.2451 -0.5527 -1.0622
 4099TIP3   OH233711   0.946   0.133   4.769 -0.1063 -0.4289 -0.2914
 4099TIP3    H133712   0.906   0.059   4.816  1.2722 -0.2369  1.2911
 4099TIP3    H233713   1.037   0.106   4.756  0.3181  0.8270 -0.0285
 4100TIP3   OH233714   5.555   3.043  13.754  0.2792 -0.1453  0.6617
 4100TIP3    H133715   5.524   3.114  13.698  1.9075 -0.9058 -1.3033
 4100TIP3    H233716   5.573   3.086  13.838 -0.6523  1.3570  0.1441
 4101TIP3   OH233717   2.485   0.976   4.886 -0.6816  0.3534 -0.1760
 4101TIP3    H133718   2.507   1.043   4.951  1.1369  0.9357 -1.2936
 4101TIP3    H233719   2.406   0.933   4.920  0.2283  0.5719  2.4297
 4102TIP3   OH233720   3.749   2.503  12.585 -0.2934 -0.4061  0.0207
 4102TIP3    H133721   3.695   2.484  12.508  1.0204 -0.6473 -0.8598
 4102TIP3    H233722   3.773   2.417  12.619  0.2296 -0.3001 -0.0847
 4103TIP3   OH233723   3.672   5.053  11.739 -0.2180 -0.4198  0.4885
 4103TIP3    H133724   3.600   5.026  11.682  1.3122 -2.1113 -0.7758
 4103TIP3    H233725   3.724   5.112  11.685  0.4587 -0.8692  0.6446
 4104TIP3   OH233726   1.500   4.980   1.741  0.2553  0.2065 -0.0407
 4104TIP3    H133727   1.482   5.040   1.813  0.1356  1.8834 -1.3879
 4104TIP3    H233728   1.593   4.993   1.722  0.5005 -0.8889  0.3731
 4105TIP3   OH233729   0.116   4.606  11.331 -0.9185  0.1117 -0.0002
 4105TIP3    H133730   0.123   4.591  11.425 -1.3883 -2.1879 -0.2687
 4105TIP3    H233731   0.194   4.564  11.294 -1.5926 -0.5053 -0.7526
 4106TIP3   OH233732   0.190   0.051  15.556  0.2849  0.4496 -0.5607
 4106TIP3    H133733   0.253   0.123  15.561  0.3863  0.2988  0.9211
 4106TIP3    H233734   0.239  -0.025  15.587 -0.3458  0.1335 -0.3266
 4107TIP3   OH233735   5.296   1.488   3.475  0.2615 -0.1442 -0.2133
 4107TIP3    H133736   5.266   1.565   3.427  2.0694 -0.7521 -2.4805
 4107TIP3    H233737   5.363   1.522   3.534  1.8424 -0.0415 -1.9785
 4108TIP3   OH233738   3.487   1.970   1.728 -0.0270 -0.0292  0.0173
 4108TIP3    H133739   3.471   2.034   1.797  1.6353 -0.8243  1.2050
 4108TIP3    H233740   3.421   1.902   1.744 -0.4403  0.3666  0.0383
 4109TIP3   OH233741   1.080   3.661   0.599  0.0195  0.1088  0.5534
 4109TIP3    H133742   1.114   3.573   0.582 -1.3343 -0.2641 -0.4052
 4109TIP3    H233743   0.995   3.646   0.641 -0.8940  0.8950 -0.9391
 4110TIP3   OH233744   5.334   6.720  16.321 -1.2364  0.1339  0.2147
 4110TIP3    H133745   5.399   6.658  16.289  0.1819  2.1192 -0.9728
 4110TIP3    H233746   5.279   6.669  16.380  0.7106 -1.9009  0.3990
 4111TIP3   OH233747   3.494   1.934   3.886  0.0334  0.1018  0.6044
 4111TIP3    H133748   3.413   1.882   3.883 -0.2696  0.5833  0.3813
 4111TIP3    H233749   3.563   1.870   3.867 -0.4270 -0.0436 -0.7143
 4112TIP3   OH233750   3.402   2.301  13.360 -0.1193 -0.1428 -0.2432
 4112TIP3    H133751   3.467   2.370  13.374 -1.8138  1.0262  2.8716
 4112TIP3    H233752   3.369   2.315  13.271  2.4019  0.4453 -1.1619
 4113TIP3   OH233753   3.803   0.866  11.892  0.0496  0.2282 -0.1193
 4113TIP3    H133754   3.885   0.912  11.881 -1.8501  3.8561 -0.5787
 4113TIP3    H233755   3.768   0.899  11.975 -2.3456  1.3314 -1.4680
 4114TIP3   OH233756   4.573   5.492  12.873  0.4513 -0.1977 -0.0357
 4114TIP3    H133757   4.555   5.554  12.802  0.4015 -1.3098 -1.0207
 4114TIP3    H233758   4.667   5.499  12.887  0.6099 -0.6116 -0.8393
 4115TIP3   OH233759   6.737   5.915   3.069 -0.7740  0.2381  0.0530
 4115TIP3    H133760   6.655   5.952   3.102 -0.2445  2.6561 -1.0981
 4115TIP3    H233761   6.710   5.864   2.992 -1.2661  0.6037 -0.0291
 4116TIP3   OH233762   3.124   4.162   1.415  0.1306 -0.2282  0.7205
 4116TIP3    H133763   3.079   4.246   1.425  0.0164 -0.1595 -0.2939
 4116TIP3    H233764   3.204   4.183   1.367  1.7540 -0.2050  3.2446
 4117TIP3   OH233765   3.194   5.139   5.275  0.3104  0.2417  0.0696
 4117TIP3    H133766   3.143   5.149   5.195 -0.6482  0.0884  0.6358
 4117TIP3    H233767   3.284   5.129   5.246  0.0544  0.8104 -0.9523
 4118TIP3   OH233768   5.059   4.511   1.427  0.4406 -0.0219 -0.0138
 4118TIP3    H133769   4.993   4.506   1.359 -0.0543  0.3585  0.4256
 4118TIP3    H233770   5.056   4.602   1.457  0.0747 -0.3695  1.0710
 4119TIP3   OH233771   0.311   3.250   2.458 -0.3749 -0.6293  0.2379
 4119TIP3    H133772   0.316   3.213   2.370 -0.5362 -0.0471 -0.0233
 4119TIP3    H233773   0.317   3.345   2.444  0.8496 -0.5903  0.9559
 4120TIP3   OH233774   4.904   0.252  16.665 -0.0142  0.3413 -0.1930
 4120TIP3    H133775   4.966   0.258  16.738  1.1237 -0.3117 -1.0633
 4120TIP3    H233776   4.937   0.179  16.612 -1.6020 -0.0852 -0.6394
 4121TIP3   OH233777   2.435   3.395   1.182  0.2860 -0.2852 -0.3152
 4121TIP3    H133778   2.385   3.466   1.141  0.5417 -1.5894 -3.1288
 4121TIP3    H233779   2.509   3.440   1.223 -0.2650  1.2008 -0.8537
 4122TIP3   OH233780   3.678   2.546  16.102  0.3404 -0.2843  0.3902
 4122TIP3    H133781   3.715   2.463  16.071  2.4855  1.4706 -2.1859
 4122TIP3    H233782   3.584   2.528  16.113  0.4560 -2.6660 -1.6534
 4123TIP3   OH233783   4.298   0.805   5.399 -0.2948  0.3634 -0.2482
 4123TIP3    H133784   4.325   0.761   5.319  0.5748 -0.2045  0.3401
 4123TIP3    H233785   4.322   0.897   5.386 -0.5738  0.3611 -0.8081
 4124TIP3   OH233786   2.611   3.272   3.587  0.5158  0.0122  0.5921
 4124TIP3    H133787   2.644   3.235   3.505  1.1186  1.7841 -0.0076
 4124TIP3    H233788   2.542   3.212   3.614  1.0695 -1.2306 -0.6012
 4125TIP3   OH233789   4.622   4.876   3.065  0.3256 -0.1804 -0.2366
 4125TIP3    H133790   4.562   4.851   2.994  0.0157  0.3736 -0.1764
 4125TIP3    H233791   4.696   4.815   3.057  0.2371 -0.1972 -0.9554
 4126TIP3   OH233792   3.052   1.122  13.905  0.3578  0.1170 -0.0216
 4126TIP3    H133793   3.090   1.146  13.820 -0.4264  0.4672 -0.2773
 4126TIP3    H233794   2.972   1.076  13.883 -0.2637  0.9058  0.5432
 4127TIP3   OH233795   1.930   6.049  11.419 -0.7934 -0.5427  0.1371
 4127TIP3    H133796   1.911   6.108  11.346  0.7725  0.8912  0.8202
 4127TIP3    H233797   1.864   5.980  11.412 -0.8552 -0.3061 -2.4496
 4128TIP3   OH233798   3.929   5.463  16.110  0.0617 -0.0083  0.1769
 4128TIP3    H133799   4.001   5.527  16.105  0.0983 -0.0627  0.0253
 4128TIP3    H233800   3.971   5.379  16.092 -0.4515  0.2068 -2.3341
 4129TIP3   OH233801   0.961   4.112   5.002 -1.0103 -0.0911  0.0168
 4129TIP3    H133802   0.958   4.201   4.969  2.4209  0.4034  0.6492
 4129TIP3    H233803   0.964   4.057   4.923  1.3936  0.7341 -0.5668
 4130TIP3   OH233804   2.764   4.385  12.230 -0.1600  0.1042  0.0941
 4130TIP3    H133805   2.690   4.440  12.204  0.1163 -0.4861 -2.1189
 4130TIP3    H233806   2.811   4.438  12.295 -1.7687  1.0366  0.5418
 4131TIP3   OH233807   5.312   3.827   5.753  0.4561  0.2489 -0.1862
 4131TIP3    H133808   5.228   3.788   5.727  0.3166  0.6087 -0.2825
 4131TIP3    H233809   5.378   3.767   5.717  0.2490  0.2608 -0.6024
 4132TIP3   OH233810   2.247   0.181  17.013 -0.1473  0.4717 -0.0278
 4132TIP3    H133811   2.285   0.246  16.953 -0.6957  0.4861 -0.3675
 4132TIP3    H233812   2.177   0.228  17.057 -0.5240  0.1261 -0.2483
 4133TIP3   OH233813   2.021   6.185   3.598 -0.0107  0.5928  0.3466
 4133TIP3    H133814   2.009   6.275   3.566  1.6660  1.9490  3.1268
 4133TIP3    H233815   2.059   6.196   3.685  1.2932 -2.8516  0.3603
 4134TIP3   OH233816   6.630   0.225   3.709  0.1018  0.2056  0.5821
 4134TIP3    H133817   6.698   0.202   3.773 -1.6353 -2.1465  1.7147
 4134TIP3    H233818   6.657   0.182   3.628  0.0427 -0.6163  0.9909
 4135TIP3   OH233819   2.726   6.592  13.973  0.4196  0.3090  0.2885
 4135TIP3    H133820   2.656   6.530  13.993 -0.2385 -0.1548 -2.9013
 4135TIP3    H233821   2.690   6.678  13.995  0.5480 -0.1965  2.7321
 4136TIP3   OH233822   1.902   4.852  16.647 -0.2669  0.3436 -0.3458
 4136TIP3    H133823   1.829   4.900  16.607 -2.0188 -0.1649  2.0409
 4136TIP3    H233824   1.863   4.773  16.682  0.6935  1.4359  3.7334
 4137TIP3   OH233825   1.884   5.398  12.876 -0.3228  0.1330  0.1438
 4137TIP3    H133826   1.838   5.390  12.959 -0.4429 -0.0861  0.0574
 4137TIP3    H233827   1.863   5.487  12.846 -0.1866  0.2528  0.3996
 4138TIP3   OH233828   2.043   3.824  11.270 -0.1959  0.4350 -0.1065
 4138TIP3    H133829   1.951   3.842  11.285 -0.5240 -0.7614 -0.5467
 4138TIP3    H233830   2.064   3.868  11.188 -1.2699 -1.9260 -1.7706
 4139TIP3   OH233831   0.584   0.916   2.136  0.2055 -0.2535 -0.3841
 4139TIP3    H133832   0.632   0.856   2.080  0.4298  0.7713 -1.3340
 4139TIP3    H233833   0.623   1.002   2.119  1.1700 -0.0641  2.3415
 4140TIP3   OH233834   2.663   1.740  14.196 -0.1468  0.5009 -0.0064
 4140TIP3    H133835   2.573   1.733  14.165  0.2769  0.7852 -1.3475
 4140TIP3    H233836   2.708   1.665  14.159  0.4566  1.0611 -0.4464
 4141TIP3   OH233837   6.544   4.742  16.762 -0.8097 -0.2683  0.3729
 4141TIP3    H133838   6.597   4.683  16.708  0.1032 -2.5107  3.4313
 4141TIP3    H233839   6.600   4.819  16.774 -1.2036  0.4797 -2.0591
 4142TIP3   OH233840   5.667   1.095  11.091 -0.2490  0.6286  0.3158
 4142TIP3    H133841   5.695   1.161  11.027 -0.1655  0.0180 -0.2886
 4142TIP3    H233842   5.696   1.130  11.176  3.3791 -0.4162 -0.3137
 4143TIP3   OH233843   6.535   5.779  11.747  0.0610 -0.2205 -0.3804
 4143TIP3    H133844   6.581   5.854  11.786  0.1087 -0.2289 -0.4198
 4143TIP3    H233845   6.487   5.817  11.673 -2.0264  0.2585  1.1254
 4144TIP3   OH233846   3.285   3.970  14.591  0.0575 -0.0936  0.3441
 4144TIP3    H133847   3.288   3.883  14.631 -1.4742  0.0576  0.8622
 4144TIP3    H233848   3.303   3.955  14.498 -1.5506 -1.1753  0.1789
 4145TIP3   OH233849   5.965   1.689   1.881  0.2179  0.0750  0.4742
 4145TIP3    H133850   5.908   1.762   1.905  0.5555  0.5615 -0.1613
 4145TIP3    H233851   5.953   1.624   1.950  0.9172  1.2829  1.7814
 4146TIP3   OH233852   4.557   4.736   3.412 -0.1661 -1.0529 -0.7229
 4146TIP3    H133853   4.523   4.699   3.494  0.4293 -0.2828 -0.1124
 4146TIP3    H233854   4.644   4.697   3.403  0.1895 -0.3440 -0.4333
 4147TIP3   OH233855   2.995   5.599  12.694  0.2537 -0.0341 -0.0162
 4147TIP3    H133856   2.954   5.653  12.761 -1.2943 -1.8919  0.6211
 4147TIP3    H233857   3.007   5.514  12.735  1.5472 -0.5465 -1.3496
 4148TIP3   OH233858   5.048   3.203  16.569  0.2644 -0.4439 -0.0247
 4148TIP3    H133859   4.999   3.155  16.502 -1.5908 -0.1394  1.0486
 4148TIP3    H233860   5.122   3.241  16.522 -1.7917  1.0876 -2.3162
 4149TIP3   OH233861   0.288   0.435  13.612 -0.3762  0.0170 -0.3005
 4149TIP3    H133862   0.222   0.399  13.553  0.1972 -0.7573 -0.4744
 4149TIP3    H233863   0.368   0.441  13.559 -0.7301  2.7596 -0.6825
 4150TIP3   OH233864   6.179   2.578  16.133 -0.3438 -0.2322  0.7213
 4150TIP3    H133865   6.265   2.537  16.133  0.9659  2.3532  1.4126
 4150TIP3    H233866   6.159   2.592  16.226  0.0888  2.2474  0.4866
 4151TIP3   OH233867   1.110   5.812   5.282 -0.2702 -0.0592 -0.2830
 4151TIP3    H133868   1.078   5.723   5.294  0.4524 -0.0897  1.8558
 4151TIP3    H233869   1.188   5.802   5.227 -0.1994 -0.7419 -0.0683
 4152TIP3   OH233870   3.598   2.739   5.298  0.3127 -0.1709  0.2048
 4152TIP3    H133871   3.641   2.749   5.383 -0.1859 -0.0973  0.4549
 4152TIP3    H233872   3.570   2.647   5.296 -1.2850  0.2708  0.9133
 4153TIP3   OH233873   6.207   2.725  12.175 -0.0274  0.6758 -0.5870
 4153TIP3    H133874   6.169   2.696  12.092 -1.6856  0.1888  0.3136
 4153TIP3    H233875   6.135   2.722  12.238  1.3395  0.3797  1.0487
 4154TIP3   OH233876   3.686   4.327   0.405 -0.2315 -0.4075  0.0310
 4154TIP3    H133877   3.619   4.274   0.361 -0.1353  0.5131 -1.3058
 4154TIP3    H233878   3.636   4.390   0.457 -0.4608  0.4569 -1.1794
 4155TIP3   OH233879   5.804   5.865  16.195 -0.4179 -0.3405  0.2541
 4155TIP3    H133880   5.780   5.853  16.287 -0.6920 -1.0775  0.0953
 4155TIP3    H233881   5.722   5.888  16.151 -0.2688  0.1133  0.2064
 4156TIP3   OH233882   5.451   5.312   5.400  0.8319  1.2625 -0.7483
 4156TIP3    H133883   5.416   5.228   5.427  0.8509  1.4115 -0.2517
 4156TIP3    H233884   5.533   5.321   5.448  0.2597  2.0804  0.1184
 4157TIP3   OH233885   5.420   1.111  16.350 -0.2789 -0.0370  0.1584
 4157TIP3    H133886   5.339   1.067  16.374 -1.4577  1.6247 -0.5843
 4157TIP3    H233887   5.448   1.066  16.270 -0.9767 -0.0117 -0.1072
 4158TIP3   OH233888   2.765   1.409   2.751  0.1196  0.2084 -0.5942
 4158TIP3    H133889   2.719   1.488   2.781 -0.7088 -0.2368 -0.6732
 4158TIP3    H233890   2.830   1.393   2.819 -0.1504  0.5777 -0.2413
 4159TIP3   OH233891   3.735   3.640  14.236  0.1769  0.1309 -0.4113
 4159TIP3    H133892   3.749   3.551  14.269 -0.5778  0.5013  1.0090
 4159TIP3    H233893   3.762   3.636  14.144  1.1598 -1.2911 -0.1040
 4160TIP3   OH233894   2.646   1.067   5.069 -0.4998 -0.0691  0.3755
 4160TIP3    H133895   2.697   1.062   4.988  0.1203  0.3786  0.7268
 4160TIP3    H233896   2.712   1.075   5.138 -1.0237 -0.4046  0.9231
 4161TIP3   OH233897   5.278   2.586   2.386 -0.6913 -0.1567 -0.1185
 4161TIP3    H133898   5.309   2.674   2.364 -0.7252 -0.1220 -0.0258
 4161TIP3    H233899   5.314   2.531   2.317 -0.7771 -0.0504 -0.2504
 4162TIP3   OH233900   0.576   4.790  14.665  1.2339 -0.0104  0.5920
 4162TIP3    H133901   0.599   4.728  14.734  0.9626  1.3629  1.9715
 4162TIP3    H233902   0.661   4.818  14.629  1.4974  0.5890  1.6149
 4163TIP3   OH233903   1.097   4.403   4.854 -0.1089  0.3231 -0.1166
 4163TIP3    H133904   1.062   4.435   4.770  2.9389  4.0834 -0.2327
 4163TIP3    H233905   1.031   4.430   4.918 -0.7132  0.8464 -0.9270
 4164TIP3   OH233906   2.727   5.805   0.082  0.8243  0.2197  0.6551
 4164TIP3    H133907   2.772   5.722   0.067  0.2855  0.1677 -0.8658
 4164TIP3    H233908   2.754   5.860   0.008 -1.2211  0.3248 -0.0884
 4165TIP3   OH233909   6.286   0.467  15.268  0.4589 -0.3189 -0.2763
 4165TIP3    H133910   6.280   0.458  15.363  1.7298 -1.9792 -0.3038
 4165TIP3    H233911   6.196   0.459  15.237  0.2436 -2.0666  0.6667
 4166TIP3   OH233912   6.474   3.997   3.264  0.1104 -0.2486 -0.0910
 4166TIP3    H133913   6.470   3.937   3.190 -2.0456  0.3879 -0.5770
 4166TIP3    H233914   6.412   4.067   3.241  0.0594  0.4289  1.9114
 4167TIP3   OH233915   2.718   4.688  13.245  0.6231  0.2052  0.1234
 4167TIP3    H133916   2.734   4.634  13.322  0.3723  1.4521  1.0803
 4167TIP3    H233917   2.639   4.738  13.266  0.6094  0.6327 -0.8999
 4168TIP3   OH233918   0.756   1.065  11.228 -0.1523 -0.0286  0.0943
 4168TIP3    H133919   0.826   1.130  11.235 -0.9584  0.7909  0.8455
 4168TIP3    H233920   0.716   1.082  11.143  0.2572 -0.1959 -0.1361
 4169TIP3   OH233921   0.096   0.629   0.654  0.1740  0.3548 -0.5305
 4169TIP3    H133922   0.191   0.623   0.658  0.0596 -1.3940  0.3647
 4169TIP3    H233923   0.072   0.681   0.730  0.3554 -0.0110 -0.2228
 4170TIP3   OH233924   6.600   0.451  13.503 -0.8953 -0.3490 -0.5149
 4170TIP3    H133925   6.548   0.418  13.577 -0.7516 -0.4338 -0.4488
 4170TIP3    H233926   6.644   0.373  13.469  1.5993  0.0976  1.3327
 4171TIP3   OH233927   3.948   5.614  15.743  0.0885 -0.3517 -0.6817
 4171TIP3    H133928   3.857   5.638  15.725 -0.0883  0.5425  1.1663
 4171TIP3    H233929   3.946   5.518  15.750 -1.0585 -0.2680  0.7817
 4172TIP3   OH233930   4.376   5.465   5.057 -0.2397  0.4731  0.4511
 4172TIP3    H133931   4.375   5.501   4.968 -1.2089  0.1827  0.3260
 4172TIP3    H233932   4.293   5.418   5.064 -0.3722  0.8563  1.6608
 4173TIP3   OH233933   4.669   2.716   4.030  0.4970  0.2406  0.5488
 4173TIP3    H133934   4.670   2.795   4.084 -0.4734 -0.2116  1.2575
 4173TIP3    H233935   4.725   2.654   4.077  0.6986  0.2741  0.3543
 4174TIP3   OH233936   0.374   0.713   4.454 -0.2075  0.0652 -0.4103
 4174TIP3    H133937   0.369   0.807   4.435  0.6699 -0.0568 -1.3587
 4174TIP3    H233938   0.463   0.701   4.487 -0.3545 -0.4145 -0.1924
 4175TIP3   OH233939   1.157   2.888   0.902  0.4120  0.3587 -0.0313
 4175TIP3    H133940   1.206   2.813   0.869  0.7098 -1.1175  3.3774
 4175TIP3    H233941   1.069   2.876   0.866  0.7035 -1.0783 -0.3417
 4176TIP3   OH233942   4.801   6.048  16.983  0.2308 -0.5269 -0.1441
 4176TIP3    H133943   4.739   6.075  16.914 -2.4989 -0.2373  2.2265
 4176TIP3    H233944   4.852   6.127  17.001  1.7022 -0.8633 -2.3886
 4177TIP3   OH233945   2.314   6.060  17.147 -0.3783 -0.0209 -0.1781
 4177TIP3    H133946   2.320   6.037  17.239 -1.0940 -1.6289 -0.5054
 4177TIP3    H233947   2.220   6.056  17.127 -0.2594  0.5903 -0.9109
 4178TIP3   OH233948   5.748   1.563   4.004 -0.2121 -0.3647  0.3137
 4178TIP3    H133949   5.785   1.601   3.924  1.4301 -2.3320  0.0620
 4178TIP3    H233950   5.667   1.521   3.975  0.8359 -1.8772 -0.5935
 4179TIP3   OH233951   3.977   6.012   5.432 -0.6294  0.3309  0.7051
 4179TIP3    H133952   3.932   6.096   5.421 -0.9906  0.1512  0.8081
 4179TIP3    H233953   3.961   5.965   5.350 -2.2204 -0.4842  1.4363
 4180TIP3   OH233954   0.522   1.783   0.770  0.3815  0.0607 -0.0083
 4180TIP3    H133955   0.467   1.764   0.694 -0.0180  1.9129 -0.2116
 4180TIP3    H233956   0.518   1.878   0.781  1.0332 -0.0752  1.8841
 4181TIP3   OH233957   5.050   0.015   3.553 -0.0180  0.0928 -0.4054
 4181TIP3    H133958   5.097  -0.042   3.614 -1.7069 -1.4496 -0.4540
 4181TIP3    H233959   5.116   0.076   3.521  1.4242 -0.5514  1.1842
 4182TIP3   OH233960   4.632   0.240  15.499 -0.5920 -0.5671  0.7099
 4182TIP3    H133961   4.610   0.184  15.425 -1.1595  0.8226 -0.1932
 4182TIP3    H233962   4.551   0.246  15.550 -1.1077  0.9241 -0.2186
 4183TIP3   OH233963   5.807   4.460  15.949  0.1864 -0.2232  0.3872
 4183TIP3    H133964   5.819   4.546  15.988 -1.2375  0.3853 -0.4553
 4183TIP3    H233965   5.770   4.407  16.019 -1.9184  0.7387  0.0645
 4184TIP3   OH233966   2.608   0.759  13.373  0.0694  0.4581  0.5288
 4184TIP3    H133967   2.517   0.743  13.346  0.9175 -0.2171 -2.2471
 4184TIP3    H233968   2.605   0.845  13.415 -1.7142  0.8526 -0.3031
 4185TIP3   OH233969   3.785   5.123   1.111  0.0803 -0.0775  0.2930
 4185TIP3    H133970   3.798   5.131   1.206 -0.9805 -1.8938  0.6170
 4185TIP3    H233971   3.709   5.177   1.092  0.1352  0.0755  0.5046
 4186TIP3   OH233972   3.310   5.570  13.259 -0.1114 -0.2032  0.1345
 4186TIP3    H133973   3.285   5.619  13.337 -0.3801  0.4668 -0.3608
 4186TIP3    H233974   3.368   5.501  13.292 -2.1413 -1.4944  1.2438
 4187TIP3   OH233975   1.098   3.595  16.066  0.0878 -0.1402  0.2385
 4187TIP3    H133976   1.037   3.568  15.997 -0.4760  1.4145  0.1012
 4187TIP3    H233977   1.184   3.564  16.035 -0.2754 -0.1953 -0.7653
 4188TIP3   OH233978   2.599   4.402  11.717 -0.0897  0.0380  0.1631
 4188TIP3    H133979   2.594   4.327  11.658  1.0973  0.8254 -1.0041
 4188TIP3    H233980   2.528   4.459  11.689  0.2970  0.2822 -0.3325
 4189TIP3   OH233981   4.347   4.463  12.401 -0.6353 -0.2927  0.1368
 4189TIP3    H133982   4.288   4.493  12.332  1.7527  0.9679 -1.4914
 4189TIP3    H233983   4.346   4.368  12.393 -0.8747 -0.2005 -1.2721
 4190TIP3   OH233984   6.451   5.093  11.612 -0.3283 -0.6844  0.4681
 4190TIP3    H133985   6.519   5.157  11.589  0.2428 -1.3844  0.1680
 4190TIP3    H233986   6.445   5.097  11.707 -1.4629  0.9825  0.3632
 4191TIP3   OH233987   4.151   0.746  12.833  1.1121  0.0301 -0.3380
 4191TIP3    H133988   4.207   0.767  12.908  0.8530  0.0582 -0.1520
 4191TIP3    H233989   4.070   0.713  12.872  2.1444 -3.1404 -0.5887
 4192TIP3   OH233990   1.688   6.757   1.732 -0.1966  0.3408 -0.1799
 4192TIP3    H133991   1.740   6.737   1.654 -0.1371 -0.8564  0.1509
 4192TIP3    H233992   1.598   6.767   1.699 -0.2800 -0.8073 -0.3245
 4193TIP3   OH233993   5.404   3.680   2.415 -0.0489 -0.4757  0.3324
 4193TIP3    H133994   5.402   3.596   2.370  1.6623  0.1891 -1.0789
 4193TIP3    H233995   5.365   3.742   2.353  3.2071  0.6263 -0.7987
 4194TIP3   OH233996   4.814   4.668   6.286  0.2292  0.0712 -0.0054
 4194TIP3    H133997   4.827   4.730   6.214 -1.7458  0.8835  0.2741
 4194TIP3    H233998   4.894   4.676   6.338  1.9215 -0.8853 -2.2964
 4195TIP3   OH233999   2.263   5.945  16.875  0.5205  0.0497  0.0421
 4195TIP3    H134000   2.213   5.864  16.875  1.8928 -0.8141 -0.0256
 4195TIP3    H234001   2.247   5.983  16.961  2.3461 -1.8869  1.3213
 4196TIP3   OH234002   4.244   2.387   4.290 -0.8694 -0.1012  0.5345
 4196TIP3    H134003   4.183   2.450   4.253 -0.4412 -0.9174 -1.7115
 4196TIP3    H234004   4.217   2.303   4.253  0.7164 -0.6976  0.6553
 4197TIP3   OH234005   6.755   3.739   4.011  0.0449 -0.4166  0.3862
 4197TIP3    H134006   6.669   3.770   3.984 -0.1359 -1.4746 -0.3175
 4197TIP3    H234007   6.747   3.725   4.106 -0.6093 -0.6705  0.2978
 4198TIP3   OH234008   1.668   5.138  11.974 -0.4939  0.2576  0.6343
 4198TIP3    H134009   1.604   5.098  11.916  0.0666  0.2615 -0.0076
 4198TIP3    H234010   1.719   5.064  12.008  1.1706  0.4249 -1.3057
 4199TIP3   OH234011   5.130   1.932   3.636 -0.1139  0.1814  0.1673
 4199TIP3    H134012   5.208   1.921   3.691 -0.2018 -1.0878  0.0760
 4199TIP3    H234013   5.061   1.889   3.686 -0.3768 -0.2432 -0.5601
 4200TIP3   OH234014   4.845   6.527  11.878  0.5598  0.0288  0.3216
 4200TIP3    H134015   4.886   6.474  11.810  1.6843  0.3505  0.7434
 4200TIP3    H234016   4.916   6.550  11.938 -0.0545  1.3489  0.5780
 4201TIP3   OH234017   6.300   5.627  13.656  0.6077 -0.0590 -0.3149
 4201TIP3    H134018   6.257   5.565  13.597 -0.5088 -0.1839  0.5891
 4201TIP3    H234019   6.232   5.692  13.676  0.8594 -0.1971  1.0632
 4202TIP3   OH234020   3.783   2.287  16.049  0.2702  0.5898 -0.2337
 4202TIP3    H134021   3.807   2.198  16.023  0.4086  0.4342  0.4263
 4202TIP3    H234022   3.775   2.283  16.144 -2.1238  0.6869 -0.3657
 4203TIP3   OH234023   2.588   4.373  13.280 -0.2613  0.2603  0.0372
 4203TIP3    H134024   2.598   4.468  13.284  0.1785  0.2198  0.0469
 4203TIP3    H234025   2.654   4.339  13.341 -0.2719 -0.0567 -0.1224
 4204TIP3   OH234026   0.836   0.780  11.238  0.1860  0.2485  0.3353
 4204TIP3    H134027   0.883   0.759  11.158 -0.5736 -2.5813  0.5365
 4204TIP3    H234028   0.765   0.838  11.209  1.4485  1.4229 -0.5559
 4205TIP3   OH234029   6.386   5.050   5.209  0.5229 -0.4934 -0.2126
 4205TIP3    H134030   6.390   4.996   5.288  0.8669 -1.6850 -1.0174
 4205TIP3    H234031   6.293   5.069   5.198  0.3226 -1.4236 -0.2204
 4206TIP3   OH234032   0.988   2.219   1.437 -0.2204  0.5266 -0.2750
 4206TIP3    H134033   1.012   2.273   1.361  0.7724 -0.7580 -0.9180
 4206TIP3    H234034   1.067   2.216   1.490 -0.5476  0.4227  0.2102
 4207TIP3   OH234035   3.532   5.976   2.729 -0.0374  0.6646 -0.3765
 4207TIP3    H134036   3.494   5.951   2.813 -0.1539  0.0417 -0.6084
 4207TIP3    H234037   3.609   6.028   2.752 -0.4642  1.0883  0.1078
 4208TIP3   OH234038   6.625   3.195   5.817 -0.3735 -0.2073 -0.5415
 4208TIP3    H134039   6.541   3.158   5.844  0.0749 -1.5081 -0.8393
 4208TIP3    H234040   6.681   3.187   5.894  0.0181 -1.0955 -0.9104
 4209TIP3   OH234041   5.749   0.407   3.561 -0.1510 -0.3066  0.3044
 4209TIP3    H134042   5.661   0.396   3.596 -0.1714 -1.6349 -0.1364
 4209TIP3    H234043   5.774   0.495   3.589 -0.2991 -1.1233  3.4232
 4210TIP3   OH234044   3.190   5.717  11.891  0.2463 -0.1519  0.1173
 4210TIP3    H134045   3.138   5.744  11.966  0.1128 -1.9618  0.7336
 4210TIP3    H234046   3.258   5.660  11.928  1.3665  0.4551 -0.9211
 4211TIP3   OH234047   1.767   2.027  15.423  0.2474 -0.1071 -0.0208
 4211TIP3    H134048   1.862   2.020  15.436  0.7518  3.6139 -0.5900
 4211TIP3    H234049   1.735   2.065  15.504 -0.4335  0.5892 -0.6078
 4212TIP3   OH234050   3.309   3.932   2.187  0.0522  0.1155 -0.6595
 4212TIP3    H134051   3.261   3.997   2.238  0.2549 -0.7626  0.7023
 4212TIP3    H234052   3.382   3.906   2.243  1.3381  0.3850 -2.1236
 4213TIP3   OH234053   1.975   6.744   2.239  0.7481 -0.2871  0.0093
 4213TIP3    H134054   2.032   6.714   2.168  2.7385 -0.8527  1.7373
 4213TIP3    H234055   1.964   6.667   2.294 -2.5635 -0.4725 -0.6817
 4214TIP3   OH234056   1.225   6.601  16.362 -0.1486  0.4122  0.6081
 4214TIP3    H134057   1.151   6.563  16.409  0.2267  0.9638  1.6596
 4214TIP3    H234058   1.188   6.631  16.279 -1.0553  0.4862  1.0310
 4215TIP3   OH234059   5.291   0.865  12.848 -0.2732  0.0704  0.1004
 4215TIP3    H134060   5.267   0.954  12.822 -0.5006 -0.3057 -1.0488
 4215TIP3    H234061   5.364   0.876  12.908  0.6938  0.9858 -1.1863
 4216TIP3   OH234062   3.168   4.238  12.674  0.6900 -0.3807  0.2061
 4216TIP3    H134063   3.113   4.160  12.677 -0.6806  0.5620  2.1222
 4216TIP3    H234064   3.106   4.311  12.677  1.9743  0.7840 -0.2074
 4217TIP3   OH234065   1.985   3.005  16.363  0.6602 -0.1710 -0.3732
 4217TIP3    H134066   1.914   2.946  16.390  0.9331 -0.0833  0.5745
 4217TIP3    H234067   2.061   2.948  16.353  0.7264 -0.0983 -0.2835
 4218TIP3   OH234068   6.717   5.752   0.401  0.2221 -0.1102 -0.2571
 4218TIP3    H134069   6.688   5.750   0.492  1.2440 -0.7286  0.0779
 4218TIP3    H234070   6.666   5.684   0.357 -1.0825  0.9438 -0.4252
 4219TIP3   OH234071   1.127   3.124   0.774 -0.7090 -0.2566  0.0289
 4219TIP3    H134072   1.153   3.047   0.824  0.1408  0.7233  1.1799
 4219TIP3    H234073   1.168   3.112   0.688 -2.4735 -2.1277 -0.6281
 4220TIP3   OH234074   5.232   4.400  12.056 -0.0919  0.0270 -0.1385
 4220TIP3    H134075   5.205   4.319  12.098 -1.5576 -0.3917 -1.7268
 4220TIP3    H234076   5.160   4.421  11.996 -0.5733  3.4077  1.3594
 4221TIP3   OH234077   0.568   2.182  14.080  0.3142 -0.4172  0.1012
 4221TIP3    H134078   0.513   2.175  14.002  0.4167 -1.9613  0.1373
 4221TIP3    H234079   0.652   2.145  14.054  0.7760  0.2997  0.5596
 4222TIP3   OH234080   3.489   0.320  14.201  0.4033 -0.1015  0.0122
 4222TIP3    H134081   3.584   0.325  14.186  0.4203  0.1153  0.1737
 4222TIP3    H234082   3.456   0.405  14.171  0.3704  0.1300  0.6813
 4223TIP3   OH234083   3.365   3.962   3.056 -0.6018 -0.3654 -0.0132
 4223TIP3    H134084   3.279   3.934   3.023 -0.6847 -0.9980  0.6997
 4223TIP3    H234085   3.427   3.900   3.017 -0.6425 -0.7991  0.5944
 4224TIP3   OH234086   3.313   4.141  12.461  0.2647  0.0116  0.2813
 4224TIP3    H134087   3.273   4.165  12.544  0.1326 -0.8265  0.4652
 4224TIP3    H234088   3.260   4.185  12.394  0.5465  0.9221  0.6475
 4225TIP3   OH234089   0.578   6.659   3.737  0.2000  0.4671 -0.8068
 4225TIP3    H134090   0.570   6.750   3.764 -0.3908  0.5031 -1.1035
 4225TIP3    H234091   0.530   6.653   3.655 -1.1160 -0.4526 -0.0121
 4226TIP3   OH234092   6.024   1.111  14.347  0.3814  0.4835  0.2603
 4226TIP3    H134093   6.085   1.114  14.421 -1.1361 -0.3370  1.6182
 4226TIP3    H234094   5.958   1.177  14.368  0.1407  0.5210 -0.5776
 4227TIP3   OH234095   4.965   1.859   0.866  0.5059  0.5073  0.5484
 4227TIP3    H134096   5.051   1.880   0.828 -0.6578  2.3160 -1.2543
 4227TIP3    H234097   4.902   1.887   0.800 -1.4881 -2.6166  0.9183
 4228TIP3   OH234098   6.489   2.105  11.797  0.1751  0.0665  0.4738
 4228TIP3    H134099   6.580   2.122  11.771  0.5488 -0.1886  1.5869
 4228TIP3    H234100   6.495   2.048  11.873 -0.9666 -1.0933 -0.2581
 4229TIP3   OH234101   3.429   6.384  15.821  0.0740 -0.3767 -0.3909
 4229TIP3    H134102   3.505   6.348  15.867  0.5164  0.4638 -0.4347
 4229TIP3    H234103   3.354   6.360  15.876  0.6480  1.1681  1.1684
 4230TIP3   OH234104   0.414   0.178  13.448 -0.3820  0.4534 -0.5193
 4230TIP3    H134105   0.428   0.134  13.532  0.7126  1.2312 -0.2717
 4230TIP3    H234106   0.328   0.148  13.419  0.1896 -1.6552 -0.2459
 4231TIP3   OH234107   3.530   5.900  13.309  0.9105 -0.0994  0.7154
 4231TIP3    H134108   3.556   5.810  13.286  1.9125  0.4552 -0.4574
 4231TIP3    H234109   3.455   5.918  13.252  0.8714 -0.1048  0.7649
 4232TIP3   OH234110   3.165   3.081   2.839 -0.1228  0.8642  0.2525
 4232TIP3    H134111   3.124   3.019   2.899  2.1852  0.2858  1.3218
 4232TIP3    H234112   3.115   3.162   2.850 -0.8303  0.2668  1.6606
 4233TIP3   OH234113   5.784   6.547  16.216 -0.3378 -0.3483  0.2267
 4233TIP3    H134114   5.825   6.463  16.195 -2.9117 -1.6804  0.2423
 4233TIP3    H234115   5.803   6.560  16.309  0.0140 -0.9087  0.2373
 4234TIP3   OH234116   1.877   4.840   3.718  0.4921  0.5393  0.1186
 4234TIP3    H134117   1.853   4.753   3.688  0.0306  0.6438  0.1831
 4234TIP3    H234118   1.898   4.828   3.811  0.6275  0.4603  0.0779
 4235TIP3   OH234119   3.635   3.853   4.273 -0.4168 -0.0968 -0.1990
 4235TIP3    H134120   3.720   3.894   4.264 -0.4047  0.0543  0.5189
 4235TIP3    H234121   3.576   3.924   4.299 -0.5850 -0.3478  0.1291
 4236TIP3   OH234122   3.001   6.041  12.937 -0.6436  0.3964 -0.0820
 4236TIP3    H134123   3.079   6.014  12.889 -1.4409  1.0181 -1.8239
 4236TIP3    H234124   3.034   6.075  13.020  1.0134  1.2422 -1.0383
 4237TIP3   OH234125   4.024   0.996   2.984  0.0672 -0.2039  0.3400
 4237TIP3    H134126   4.068   1.040   3.057 -0.5609  2.1181 -0.5973
 4237TIP3    H234127   4.096   0.971   2.924  0.3269  1.5860 -0.1461
 4238TIP3   OH234128   3.861   6.059  12.130  0.1360  0.4604  0.0109
 4238TIP3    H134129   3.902   6.132  12.084  0.0779  1.2857  1.2270
 4238TIP3    H234130   3.935   6.009  12.165  0.1693  1.5639  1.6154
 4239TIP3   OH234131   3.802   2.525   1.492  0.6809 -0.3772  0.5844
 4239TIP3    H134132   3.751   2.445   1.507 -2.3793  1.2552 -0.2013
 4239TIP3    H234133   3.852   2.507   1.412 -1.4565 -0.9448 -0.7097
 4240TIP3   OH234134   2.293   5.303   3.963 -0.4505  0.0244 -0.7948
 4240TIP3    H134135   2.293   5.399   3.955  1.0891  0.1170 -0.0800
 4240TIP3    H234136   2.206   5.282   3.996 -0.2317  1.3784  0.8142
 4241TIP3   OH234137   1.244   4.462   3.771 -0.4396  0.0230  0.5491
 4241TIP3    H134138   1.269   4.552   3.750  1.1162  0.3313  3.3308
 4241TIP3    H234139   1.151   4.468   3.793 -0.6791  0.6779 -0.5879
 4242TIP3   OH234140   5.544   4.565  12.991  0.2741 -0.2757 -0.1932
 4242TIP3    H134141   5.515   4.478  12.964  0.4722  0.0948 -1.7092
 4242TIP3    H234142   5.562   4.611  12.909  1.2931  0.8218  0.6014
 4243TIP3   OH234143   0.057   1.508   3.681 -0.4478  0.2002  0.3395
 4243TIP3    H134144  -0.007   1.569   3.644 -3.1052 -1.4786  1.8859
 4243TIP3    H234145   0.072   1.540   3.770 -0.6552 -0.5050  0.6318
 4244TIP3   OH234146   2.064   2.334  11.384 -0.1275  0.0921 -0.5095
 4244TIP3    H134147   2.096   2.255  11.339 -0.7196 -0.8977  0.7374
 4244TIP3    H234148   1.974   2.312  11.409  0.1810  0.5770  1.1427
 4245TIP3   OH234149   1.954   4.683  11.112 -0.1769 -0.1054  0.0464
 4245TIP3    H134150   1.905   4.623  11.057 -0.6404 -2.1572  2.5469
 4245TIP3    H234151   1.890   4.749  11.140  0.1851  1.3032 -2.1459
 4246TIP3   OH234152   3.438   5.423  13.474  0.0469 -0.0046  0.1221
 4246TIP3    H134153   3.381   5.498  13.490 -0.2067  0.7591 -3.4778
 4246TIP3    H234154   3.378   5.349  13.460  0.1845 -0.2803  0.9314
 4247TIP3   OH234155   0.548   4.899   1.815 -0.1139  0.2776 -0.1153
 4247TIP3    H134156   0.600   4.901   1.734 -0.6660  1.2461 -0.4677
 4247TIP3    H234157   0.612   4.905   1.885  0.3050  0.6594 -0.5254
 4248TIP3   OH234158   6.090   5.406   4.647 -0.7263 -0.0150  0.4928
 4248TIP3    H134159   6.093   5.356   4.729  0.4594  0.6866  0.8977
 4248TIP3    H234160   6.166   5.463   4.651 -2.2497  2.1450  0.2279
 4249TIP3   OH234161   2.046   5.533  12.365  0.1598  0.4873 -0.0597
 4249TIP3    H134162   1.979   5.476  12.405  0.1968  0.5333  0.0687
 4249TIP3    H234163   2.022   5.536  12.272  0.9539 -0.8755 -0.3450
 4250TIP3   OH234164   0.553   1.184  16.388  0.2639 -0.8696  0.6651
 4250TIP3    H134165   0.624   1.242  16.416 -0.6716  1.3400 -1.1981
 4250TIP3    H234166   0.473   1.234  16.405 -0.7093 -2.2774  0.4422
 4251TIP3   OH234167   1.795   2.637  13.512 -0.2558  0.0357 -0.2659
 4251TIP3    H134168   1.773   2.648  13.604  0.7887  1.4153 -0.1563
 4251TIP3    H234169   1.753   2.711  13.468  0.6429  0.3422 -0.6341
 4252TIP3   OH234170   5.455   0.404  14.129 -0.1025 -0.2210 -0.3667
 4252TIP3    H134171   5.433   0.419  14.037 -1.9168 -1.1619 -0.1435
 4252TIP3    H234172   5.384   0.348  14.161  1.0012 -0.6922  1.3656
 4253TIP3   OH234173   4.253   2.176   5.181 -0.1613  0.4061 -0.1400
 4253TIP3    H134174   4.214   2.168   5.268  1.1009 -1.5201  0.2977
 4253TIP3    H234175   4.308   2.255   5.187  0.8326 -0.3587  1.2054
 4254TIP3   OH234176   2.837   3.731   0.638 -0.0158  0.0612  0.4280
 4254TIP3    H134177   2.805   3.769   0.719  1.3650  0.3911  0.8455
 4254TIP3    H234178   2.758   3.711   0.588 -0.8434  2.7363  0.5043
 4255TIP3   OH234179   2.750   6.424  16.024 -0.1828  0.5166 -0.3281
 4255TIP3    H134180   2.840   6.455  16.036 -1.0424  2.8979  0.7287
 4255TIP3    H234181   2.697   6.485  16.076 -2.4360 -0.7201 -1.0322
 4256TIP3   OH234182   1.636   1.540   4.239 -0.3949 -0.7156  0.3510
 4256TIP3    H134183   1.616   1.568   4.328  1.3381 -0.8656  0.8256
 4256TIP3    H234184   1.573   1.471   4.220 -0.6191 -0.8688  1.5687
 4257TIP3   OH234185   2.675   1.465  10.852 -0.5402  0.1602 -0.4406
 4257TIP3    H134186   2.723   1.514  10.786 -0.9268  0.0718 -0.7932
 4257TIP3    H234187   2.654   1.382  10.810 -0.8818  0.1451 -0.2449
 4258TIP3   OH234188   6.104   2.688  16.382  0.6665  0.0777  0.2690
 4258TIP3    H134189   6.100   2.610  16.436  2.1573  1.4102  2.4807
 4258TIP3    H234190   6.021   2.734  16.400 -0.8585 -1.5246 -2.1096
 4259TIP3   OH234191   3.474   1.336   4.966 -0.1464 -0.0810  0.2765
 4259TIP3    H134192   3.380   1.332   4.985 -0.4050  1.1221 -0.6923
 4259TIP3    H234193   3.491   1.428   4.946  1.0737 -0.4358 -0.4121
 4260TIP3   OH234194   3.761   5.323  13.928 -0.5559  0.2238 -0.2153
 4260TIP3    H134195   3.727   5.235  13.916 -2.2688  0.9555 -1.1201
 4260TIP3    H234196   3.689   5.371  13.970  0.1056  1.3351 -0.3145
 4261TIP3   OH234197   5.969   0.336  13.769  0.3284  0.3874 -0.1746
 4261TIP3    H134198   5.977   0.394  13.694  2.2370  2.0691  1.2040
 4261TIP3    H234199   5.986   0.248  13.734  3.3044  1.3314 -1.4504
 4262TIP3   OH234200   4.141   4.929   1.648  0.0927 -0.2389  0.1634
 4262TIP3    H134201   4.161   4.886   1.565 -0.4808 -0.9510  0.3905
 4262TIP3    H234202   4.110   5.016   1.623 -1.6466 -0.9997 -0.4843
 4263TIP3   OH234203   4.949   1.551  12.145 -0.0513 -0.0501  0.3313
 4263TIP3    H134204   4.874   1.599  12.181 -0.7699 -0.0431 -1.1057
 4263TIP3    H234205   5.023   1.612  12.153 -0.3415  0.2148  1.0999
 4264TIP3   OH234206   2.111   3.155  14.309  0.1847  0.0401  0.5082
 4264TIP3    H134207   2.031   3.181  14.264  0.0560 -1.7336 -0.3461
 4264TIP3    H234208   2.152   3.091  14.252  1.8396  0.3328  1.2946
 4265TIP3   OH234209   3.457   3.560  13.345 -0.2482  0.0145 -0.0537
 4265TIP3    H134210   3.380   3.601  13.384 -0.5380  1.3584 -1.8593
 4265TIP3    H234211   3.518   3.633  13.331  0.6715 -0.7611 -0.1406
 4266TIP3   OH234212   0.025   1.189  11.618  0.0202 -0.2316 -1.0076
 4266TIP3    H134213  -0.037   1.171  11.547 -0.4131 -0.6491 -0.5292
 4266TIP3    H234214   0.111   1.179  11.577 -0.2267 -0.5726 -1.4570
 4267TIP3   OH234215   5.747   0.889  15.056 -0.7001 -0.7056 -0.7226
 4267TIP3    H134216   5.813   0.918  15.119 -2.7470  1.4803  0.6072
 4267TIP3    H234217   5.746   0.794  15.065  2.2213 -0.8370 -0.8574
 4268TIP3   OH234218   1.198   0.810  14.230 -0.0825 -0.1964 -0.5381
 4268TIP3    H134219   1.275   0.754  14.241  0.1830  0.3028  0.2415
 4268TIP3    H234220   1.138   0.758  14.176  0.6969 -0.6891 -0.9524
 4269TIP3   OH234221   2.849   6.611  15.700 -0.3586 -0.3914  0.1041
 4269TIP3    H134222   2.909   6.605  15.774  0.9582 -1.9068 -0.9935
 4269TIP3    H234223   2.778   6.550  15.721 -0.0849 -0.6717  0.2349
 4270TIP3   OH234224   2.267   1.640   2.884  0.2860 -0.0316 -0.3422
 4270TIP3    H134225   2.195   1.588   2.921 -0.3877  0.5405 -0.8157
 4270TIP3    H234226   2.346   1.599   2.918 -0.2812  0.0647  1.1735
 4271TIP3   OH234227   5.098   2.431  16.248  0.6057  0.3448  0.2171
 4271TIP3    H134228   5.019   2.473  16.214  1.7629  2.2695 -0.2667
 4271TIP3    H234229   5.100   2.345  16.207 -0.8057  0.5742 -0.3740
 4272TIP3   OH234230   3.749   3.410  12.303  0.4951  0.2698  0.4197
 4272TIP3    H134231   3.724   3.414  12.395 -0.0635  1.0898  0.2372
 4272TIP3    H234232   3.723   3.495  12.266 -1.8601 -0.9714 -1.1230
 4273TIP3   OH234233   3.730   1.549  12.814  0.1542  0.1176 -0.0245
 4273TIP3    H134234   3.781   1.488  12.761 -1.4704 -0.6957 -0.7379
 4273TIP3    H234235   3.751   1.636  12.778  2.6037  0.0680  1.0997
 4274TIP3   OH234236   5.184   1.467  13.894  0.2282 -0.2927 -0.5163
 4274TIP3    H134237   5.240   1.446  13.969  0.4425  0.3874 -0.4852
 4274TIP3    H234238   5.163   1.560  13.904  1.9797  0.3882 -2.4073
 4275TIP3   OH234239   2.534   3.176   3.148 -0.3672 -0.0052  0.3285
 4275TIP3    H134240   2.494   3.250   3.103 -1.1651 -0.0993  0.8535
 4275TIP3    H234241   2.551   3.112   3.079  1.3109  1.0501 -0.2962
 4276TIP3   OH234242   6.594   1.402  16.433  0.5714  0.0937  0.1497
 4276TIP3    H134243   6.568   1.416  16.342  1.2801  2.6308  0.2452
 4276TIP3    H234244   6.523   1.440  16.484 -0.0928 -1.8209  0.7233
 4277TIP3   OH234245   0.734   6.305   4.188 -0.1227  0.2681  0.1323
 4277TIP3    H134246   0.681   6.321   4.110 -0.7516 -1.4108  0.1707
 4277TIP3    H234247   0.815   6.354   4.172 -0.5466  0.5753 -1.2199
 4278TIP3   OH234248   5.114   0.494  12.312 -0.2084  0.2755 -0.5030
 4278TIP3    H134249   5.111   0.450  12.227 -1.1322  1.5532 -1.1744
 4278TIP3    H234250   5.106   0.423  12.376 -4.3804 -0.5001 -1.5563
 4279TIP3   OH234251   5.326   1.429  12.503  0.7724 -0.0651  0.4942
 4279TIP3    H134252   5.413   1.418  12.466  0.9292  0.5963  0.6504
 4279TIP3    H234253   5.341   1.450  12.595  0.3791 -1.8994  1.0056
 4280TIP3   OH234254   1.355   4.077   0.444  0.3265 -0.4425  0.0576
 4280TIP3    H134255   1.400   4.072   0.529 -1.0987 -0.9181  0.8061
 4280TIP3    H234256   1.286   4.011   0.450 -0.2122 -0.0111 -1.2295
 4281TIP3   OH234257   2.916   5.400  11.336  0.0101  0.0120  0.0304
 4281TIP3    H134258   2.898   5.306  11.335 -0.7139  0.1389 -1.1671
 4281TIP3    H234259   2.927   5.423  11.244  0.1670  1.1041  0.3123
 4282TIP3   OH234260   2.719   1.620   5.696 -0.5651  0.5379  0.4327
 4282TIP3    H134261   2.707   1.690   5.760  1.3722  1.3500 -0.0149
 4282TIP3    H234262   2.805   1.636   5.658 -0.6077 -1.3530 -0.6286
 4283TIP3   OH234263   1.171   5.197   5.745  0.3560  0.0239 -0.0363
 4283TIP3    H134264   1.141   5.107   5.735 -1.5146  0.4520  1.0683
 4283TIP3    H234265   1.122   5.230   5.821  0.9776  1.9711 -0.4194
 4284TIP3   OH234266   6.757   1.984   6.453 -0.5517  0.0244 -0.3010
 4284TIP3    H134267   6.678   2.036   6.439 -1.2301 -1.1797 -1.0881
 4284TIP3    H234268   6.749   1.951   6.542 -0.8901 -0.0276 -0.3496
 4285TIP3   OH234269   0.867   5.487  15.577 -0.1686  0.3142  0.1365
 4285TIP3    H134270   0.933   5.556  15.577 -0.1483  0.2962 -0.1368
 4285TIP3    H234271   0.834   5.485  15.487 -0.6182  0.3975  0.2938
 4286TIP3   OH234272   3.703   5.834   5.507 -1.1139  0.3274 -0.3994
 4286TIP3    H134273   3.747   5.856   5.425  0.4107  1.3508  0.6363
 4286TIP3    H234274   3.613   5.867   5.496 -0.9303  0.4398 -1.6536
 4287TIP3   OH234275   4.419   4.774   1.229  0.1139 -0.4805  0.1655
 4287TIP3    H134276   4.458   4.785   1.315  2.5925 -0.2337 -0.9052
 4287TIP3    H234277   4.413   4.863   1.194 -1.9534 -0.4514  0.4594
 4288TIP3   OH234278   2.945   1.828  12.936 -0.1938  0.4451 -0.3826
 4288TIP3    H134279   3.009   1.824  12.865 -1.7717 -3.1767 -1.8378
 4288TIP3    H234280   2.872   1.878  12.899  0.4806  1.9444  0.2052
 4289TIP3   OH234281   0.951   3.177  11.514  0.0367 -0.0592 -0.0475
 4289TIP3    H134282   1.042   3.152  11.534 -0.5871 -1.1986  1.6364
 4289TIP3    H234283   0.943   3.266  11.548  0.5985  0.1617 -0.4777
 4290TIP3   OH234284   6.594   5.225  14.098  0.1915  0.0631 -0.1266
 4290TIP3    H134285   6.546   5.212  14.017  0.2778 -0.9323 -0.0340
 4290TIP3    H234286   6.619   5.136  14.126  1.0104  0.4586  0.4635
 4291TIP3   OH234287   0.997   5.200   0.714  0.2075 -0.2407 -0.0095
 4291TIP3    H134288   1.087   5.182   0.740  0.7336  0.1243 -1.4822
 4291TIP3    H234289   0.971   5.274   0.768  0.6718 -0.5348  0.6418
 4292TIP3   OH234290   4.931   1.556  17.132 -0.4964  0.3539 -0.2933
 4292TIP3    H134291   4.952   1.606  17.210  2.2539 -0.5932 -0.3320
 4292TIP3    H234292   4.904   1.470  17.164  0.0274  0.1642 -0.3519
 4293TIP3   OH234293   1.100   5.161   1.578  0.0995  0.3171  0.5865
 4293TIP3    H134294   1.191   5.136   1.564  0.3309  0.7332  1.2959
 4293TIP3    H234295   1.104   5.248   1.617 -0.5383 -0.2420  1.9685
 4294TIP3   OH234296   3.552   1.346   2.269 -0.0211  0.1492  0.2176
 4294TIP3    H134297   3.491   1.406   2.227  0.6715 -0.5466 -1.9269
 4294TIP3    H234298   3.634   1.357   2.221  0.2939 -2.0226  0.1500
 4295TIP3   OH234299   0.035   3.851   0.120  0.3523  0.3231 -0.6733
 4295TIP3    H134300   0.074   3.776   0.076  0.1807 -0.2921  0.1974
 4295TIP3    H234301  -0.055   3.824   0.137  0.1524  0.9138 -0.7728
 4296TIP3   OH234302   3.666   4.152   0.065  0.3055  0.1488  0.0400
 4296TIP3    H134303   3.585   4.159   0.014 -0.7964 -1.8769  1.3399
 4296TIP3    H234304   3.696   4.242   0.076 -0.4877  0.7781 -2.4523
 4297TIP3   OH234305   1.744   1.670   2.152  0.2795  0.5316 -0.1915
 4297TIP3    H134306   1.763   1.701   2.064 -0.2416 -1.3639 -1.0262
 4297TIP3    H234307   1.798   1.591   2.162 -0.4370  0.1385  0.7788
 4298TIP3   OH234308   4.540   3.780   0.755  0.3700  0.3666 -0.2984
 4298TIP3    H134309   4.617   3.797   0.700 -0.1046  0.7221 -0.8639
 4298TIP3    H234310   4.575   3.780   0.844  1.0671  0.2910 -0.5601
 4299TIP3   OH234311   0.633   4.329  14.829  0.1278  0.2246 -0.2726
 4299TIP3    H134312   0.618   4.249  14.778 -0.2279 -0.0887  0.3214
 4299TIP3    H234313   0.697   4.303  14.896  1.3516  0.8758 -1.1296
 4300TIP3   OH234314   2.763   2.445  12.799  0.4439 -0.0146  0.1023
 4300TIP3    H134315   2.684   2.497  12.780  0.1739 -0.1596  0.8216
 4300TIP3    H234316   2.797   2.423  12.712 -0.7427 -0.6196 -0.2331
 4301TIP3   OH234317   1.474   6.714  14.936 -0.5280 -0.4942 -0.8175
 4301TIP3    H134318   1.563   6.741  14.960  0.3438 -4.0784  0.7148
 4301TIP3    H234319   1.425   6.719  15.018 -1.5496  0.6321 -1.4747
 4302TIP3   OH234320   1.359   1.288  15.049  0.5038  0.6903 -0.7205
 4302TIP3    H134321   1.333   1.318  15.137  1.7889 -0.8503  0.2408
 4302TIP3    H234322   1.316   1.350  14.989 -0.6188  1.6371  0.9663
 4303TIP3   OH234323   2.216   6.734  11.650 -0.4990  0.2091 -0.0663
 4303TIP3    H134324   2.145   6.690  11.697  0.0758  0.9584  1.5715
 4303TIP3    H234325   2.172   6.788  11.584 -1.2969 -1.3666 -0.8795
 4304TIP3   OH234326   5.459   1.434   0.578  0.1441  0.0384  0.3389
 4304TIP3    H134327   5.514   1.506   0.549  2.2880 -1.0975  1.3915
 4304TIP3    H234328   5.481   1.362   0.518  1.5929 -1.1027  2.1408
 4305TIP3   OH234329   4.178   4.648  13.324 -0.3739  0.4605  0.4693
 4305TIP3    H134330   4.216   4.698  13.397 -0.5770  1.3288 -0.0052
 4305TIP3    H234331   4.205   4.558  13.341 -0.1345  0.6966  1.4389
 4306TIP3   OH234332   1.275   1.085   3.984  0.1807 -0.1616 -0.1468
 4306TIP3    H134333   1.341   1.037   4.034  0.1277 -0.4370 -0.3473
 4306TIP3    H234334   1.310   1.090   3.895 -0.1967 -0.5453 -0.3163
 4307TIP3   OH234335   4.900   5.180   4.872  1.4186 -0.1375 -0.4470
 4307TIP3    H134336   4.823   5.136   4.907  0.5344  1.5887 -0.1090
 4307TIP3    H234337   4.903   5.152   4.780 -1.5225  2.0640 -1.4059
 4308TIP3   OH234338   4.364   0.067   4.506 -0.0726  0.0349  0.5506
 4308TIP3    H134339   4.353   0.102   4.595 -1.1318  0.5662  0.2190
 4308TIP3    H234340   4.432   0.122   4.468 -2.9780  3.1714 -0.6119
 4309TIP3   OH234341   4.650   2.673  10.761  0.1763 -0.8560  0.4761
 4309TIP3    H134342   4.578   2.619  10.728 -0.6137 -0.6434  1.7752
 4309TIP3    H234343   4.645   2.754  10.711 -0.5550 -0.8015  0.6340
 4310TIP3   OH234344   6.151   3.165  16.081 -0.7185  0.1227  0.4762
 4310TIP3    H134345   6.161   3.091  16.021  0.3175 -0.7707  1.7248
 4310TIP3    H234346   6.057   3.185  16.077 -0.8236 -0.4936 -0.7475
 4311TIP3   OH234347   4.302   4.366   2.630  0.1725  0.0345 -0.2645
 4311TIP3    H134348   4.354   4.405   2.561  0.7479 -1.3526 -0.6468
 4311TIP3    H234349   4.356   4.374   2.709 -0.6387  1.9569  0.1679
 4312TIP3   OH234350   4.185   3.184   4.115 -0.2511  0.9495  0.6759
 4312TIP3    H134351   4.094   3.157   4.102 -0.7879  2.0372  1.9924
 4312TIP3    H234352   4.216   3.207   4.027 -0.2953 -2.0995 -0.2637
 4313TIP3   OH234353   6.527   6.179  13.861 -0.4953  0.3911 -0.2704
 4313TIP3    H134354   6.502   6.092  13.829 -0.6064 -0.0758  1.0303
 4313TIP3    H234355   6.608   6.199  13.814 -0.9619 -0.0012 -1.2738
 4314TIP3   OH234356   2.513   3.132   6.054 -0.2692 -0.0080  0.0087
 4314TIP3    H134357   2.562   3.081   6.119 -1.8226 -2.5332 -0.6320
 4314TIP3    H234358   2.424   3.136   6.089 -0.5545  0.8480 -0.7665
 4315TIP3   OH234359   1.607   1.206   5.302  0.3838 -0.4189  0.5524
 4315TIP3    H134360   1.634   1.178   5.390  1.1976 -0.7665  0.2011
 4315TIP3    H234361   1.533   1.265   5.318  2.1534  1.6565  1.6584
 4316TIP3   OH234362   2.096   5.015  10.571 -0.3010 -0.2776  0.3807
 4316TIP3    H134363   2.001   5.022  10.583 -0.2811  0.7189  0.0565
 4316TIP3    H234364   2.131   5.095  10.610  0.5070 -1.1089  1.4044
 4317TIP3   OH234365   6.167   5.790  16.402 -0.4553 -0.3868  0.1995
 4317TIP3    H134366   6.177   5.862  16.464 -0.4279  1.0762 -1.4510
 4317TIP3    H234367   6.184   5.828  16.316  1.9248 -2.8728 -0.5866
 4318TIP3   OH234368   0.274   1.430   4.595 -0.9483 -0.0208  0.1568
 4318TIP3    H134369   0.263   1.336   4.582 -2.5210 -0.1696  2.1447
 4318TIP3    H234370   0.204   1.470   4.545  0.0635  0.1875 -1.1608
 4319TIP3   OH234371   3.674   5.192   0.649  0.3025 -0.1228 -0.4637
 4319TIP3    H134372   3.694   5.270   0.701  1.6803 -0.3244 -0.6588
 4319TIP3    H234373   3.692   5.118   0.707 -3.7221 -0.3837  0.7215
 4320TIP3   OH234374   4.623   1.485   0.047  0.0623  0.2159  0.3292
 4320TIP3    H134375   4.710   1.460   0.014 -0.1118 -1.0399  0.7403
 4320TIP3    H234376   4.641   1.531   0.129  0.4205  1.9421 -0.6806
 4321TIP3   OH234377   4.759   4.282  12.144 -0.5157  0.0961  0.9022
 4321TIP3    H134378   4.668   4.254  12.155 -1.1934  1.7367 -0.1754
 4321TIP3    H234379   4.774   4.278  12.049  1.6460 -3.2637  1.2054
 4322TIP3   OH234380   4.383   0.074   5.421  0.3838  0.2324  0.3984
 4322TIP3    H134381   4.334   0.047   5.498 -1.0014  1.8108  0.1423
 4322TIP3    H234382   4.436   0.148   5.450  1.3635 -0.4096  0.2795
 4323TIP3   OH234383   4.347   2.992  12.998  0.2939  0.5524 -0.1407
 4323TIP3    H134384   4.299   2.924  12.950  0.1953  0.5248 -0.0045
 4323TIP3    H234385   4.351   2.959  13.088 -0.2006  0.9593  0.0346
 4324TIP3   OH234386   0.223   2.502  12.818  0.0699  0.0521 -0.1312
 4324TIP3    H134387   0.231   2.407  12.809 -1.2336  0.1163 -3.1707
 4324TIP3    H234388   0.190   2.515  12.906 -2.2759 -2.5710 -0.4876
 4325TIP3   OH234389   3.669   4.922  17.329  0.0616  0.6875 -0.3132
 4325TIP3    H134390   3.620   4.903  17.249  1.9748  1.1706 -1.6929
 4325TIP3    H234391   3.648   4.851  17.389 -0.0618 -0.6876 -1.9251
 4326TIP3   OH234392   0.334   4.055  11.878  0.0192  0.7591 -0.1590
 4326TIP3    H134393   0.242   4.051  11.853  0.3271  2.1399 -1.6354
 4326TIP3    H234394   0.362   4.144  11.856  2.2967 -0.2921 -2.0288
 4327TIP3   OH234395   6.711   1.100   5.768  0.1880  0.6210 -0.3414
 4327TIP3    H134396   6.720   1.052   5.686  0.9573  0.2188 -0.0299
 4327TIP3    H234397   6.736   1.037   5.836 -1.4138  0.6180  0.3047
 4328TIP3   OH234398   2.523   6.132  11.679  0.5046  0.2445  0.2175
 4328TIP3    H134399   2.574   6.212  11.678  0.9739  0.0151 -2.6192
 4328TIP3    H234400   2.439   6.156  11.639  0.8463 -0.7507 -1.1537
 4329TIP3   OH234401   4.894   5.409   2.606 -0.1407 -0.0502 -0.1519
 4329TIP3    H134402   4.800   5.429   2.601  0.1086  1.6380  0.9684
 4329TIP3    H234403   4.936   5.482   2.561  0.6299 -1.3139 -1.5415
 4330TIP3   OH234404   6.296   2.352   1.217 -0.5909 -0.2626 -0.0544
 4330TIP3    H134405   6.219   2.296   1.210 -0.4287 -0.7898  1.7379
 4330TIP3    H234406   6.329   2.335   1.305  1.2516  0.3733 -0.5795
 4331TIP3   OH234407   6.472   5.065   1.305 -0.3088 -0.1264 -0.0058
 4331TIP3    H134408   6.529   5.018   1.245  0.3145  1.8706 -1.0648
 4331TIP3    H234409   6.394   5.085   1.253  0.0806  1.3012 -0.0863
 4332TIP3   OH234410   5.760   6.432   0.026  0.6735 -0.2232 -0.2398
 4332TIP3    H134411   5.803   6.351   0.051  1.6794  0.2990 -0.2053
 4332TIP3    H234412   5.807   6.500   0.073  0.9198  0.5350 -1.5189
 4333TIP3   OH234413   3.412   4.394   0.200 -0.1517 -0.3839  0.3115
 4333TIP3    H134414   3.362   4.429   0.126 -1.5242  1.6669  2.0887
 4333TIP3    H234415   3.500   4.429   0.187 -0.7711  1.3574  0.4139
 4334TIP3   OH234416   0.679   4.823   5.732 -0.4826  0.4689 -0.4109
 4334TIP3    H134417   0.636   4.884   5.673 -0.9472 -0.7508 -1.3930
 4334TIP3    H234418   0.749   4.874   5.774 -0.8087  1.6315 -1.2400
 4335TIP3   OH234419   6.031   5.375   1.867  0.6514 -0.2227 -0.0840
 4335TIP3    H134420   6.106   5.412   1.913  0.3823  0.3514 -0.1011
 4335TIP3    H234421   5.970   5.350   1.936  0.6006 -0.1217 -0.0911
 4336TIP3   OH234422   2.541   1.093   4.340 -0.2869  0.6355  0.0315
 4336TIP3    H134423   2.484   1.119   4.412 -1.7652  0.6070 -1.0699
 4336TIP3    H234424   2.598   1.169   4.326 -0.5369  0.9472  0.6993
 4337TIP3   OH234425   2.195   3.498  11.878  0.1605  0.2324 -0.1844
 4337TIP3    H134426   2.255   3.424  11.889  0.0580  0.0662 -0.7413
 4337TIP3    H234427   2.141   3.474  11.803  0.9286  1.4144 -1.1526
 4338TIP3   OH234428   1.596   2.405  10.879  0.1185 -0.3626  0.0550
 4338TIP3    H134429   1.593   2.322  10.831  0.3009  0.2354 -1.0293
 4338TIP3    H234430   1.513   2.409  10.925 -0.6632 -0.3332 -1.3129
 4339TIP3   OH234431   3.001   5.423   0.161 -0.2466  0.2463  0.2442
 4339TIP3    H134432   3.030   5.480   0.233  2.5246 -0.6694 -0.0218
 4339TIP3    H234433   2.999   5.336   0.200 -1.6605  0.1075 -0.0826
 4340TIP3   OH234434   0.008   1.185   5.122 -0.3880 -0.2238 -0.8463
 4340TIP3    H134435   0.034   1.249   5.188  0.4911 -0.1948 -1.2121
 4340TIP3    H234436  -0.082   1.210   5.100 -0.0850  0.8633 -0.9423
 4341TIP3   OH234437   0.713   6.349   0.184 -0.7451 -0.0565 -0.2501
 4341TIP3    H134438   0.686   6.352   0.093  0.5295 -2.5565 -0.7941
 4341TIP3    H234439   0.637   6.380   0.233 -1.8170  0.3377 -2.0878
 4342TIP3   OH234440   4.732   3.749  16.760 -0.1656  0.0127  0.3166
 4342TIP3    H134441   4.766   3.666  16.791  2.5378  0.1001 -2.0208
 4342TIP3    H234442   4.714   3.734  16.667  0.7572  2.0835 -0.2618
 4343TIP3   OH234443   0.255   2.586   4.900  0.8279  0.2503  0.1331
 4343TIP3    H134444   0.201   2.542   4.833 -1.8286  1.8221  1.0880
 4343TIP3    H234445   0.268   2.519   4.967 -0.8204  0.0841  0.3250
 4344TIP3   OH234446   3.369   2.755   3.008 -0.5645  0.0257  0.5075
 4344TIP3    H134447   3.301   2.743   2.941 -0.2442 -0.5340  0.2728
 4344TIP3    H234448   3.437   2.692   2.984  0.6956  1.5487 -0.0976
 4345TIP3   OH234449   3.477   5.702   4.504 -1.0583 -0.0132  0.4373
 4345TIP3    H134450   3.548   5.707   4.568  0.2841 -1.6839 -0.8308
 4345TIP3    H234451   3.446   5.792   4.495  1.3597  0.9106  0.5286
 4346TIP3   OH234452   2.684   3.608  15.245  0.1684 -0.4893  0.1776
 4346TIP3    H134453   2.645   3.544  15.187 -1.3402  1.4858 -1.1208
 4346TIP3    H234454   2.753   3.649  15.193 -0.5678  0.6445  0.0513
 4347TIP3   OH234455   3.039   5.602  13.699 -0.2481 -0.5767  0.0336
 4347TIP3    H134456   3.080   5.599  13.613  1.7132  1.8111  0.7552
 4347TIP3    H234457   2.958   5.651  13.685 -0.9845 -1.9603 -0.7467
 4348TIP3   OH234458   1.176   6.160   3.659 -0.3300 -0.5809  0.3634
 4348TIP3    H134459   1.211   6.197   3.577  1.7520 -1.9803  0.5334
 4348TIP3    H234460   1.083   6.146   3.642  0.0582 -0.8805 -1.7875
 4349TIP3   OH234461   0.327   2.870  14.172 -0.0275 -0.6400 -0.4443
 4349TIP3    H134462   0.376   2.937  14.220 -0.5083  1.8843 -3.1336
 4349TIP3    H234463   0.239   2.872  14.209  0.1347 -0.2171 -0.0754
 4350TIP3   OH234464   1.458   5.396  14.203 -0.0009  0.5777  0.0271
 4350TIP3    H134465   1.396   5.397  14.276  0.3409  1.2293  0.3135
 4350TIP3    H234466   1.404   5.379  14.126 -1.0620  4.1328 -0.1784
 4351TIP3   OH234467   2.830   3.844  15.165  0.0599 -0.1754  0.0141
 4351TIP3    H134468   2.869   3.928  15.140  0.8840 -0.4108  0.4718
 4351TIP3    H234469   2.744   3.867  15.199  0.0673  0.4329 -0.3553
 4352TIP3   OH234470   5.485   4.860  13.496 -0.2719  0.1635 -0.3122
 4352TIP3    H134471   5.501   4.767  13.512 -0.0216 -0.0258 -1.5634
 4352TIP3    H234472   5.395   4.864  13.464 -0.3388  0.3807 -0.1046
 4353TIP3   OH234473   1.852   5.685  12.840  0.2166  0.4284 -0.0157
 4353TIP3    H134474   1.785   5.690  12.908  0.5469  1.5186  0.2594
 4353TIP3    H234475   1.825   5.750  12.775  0.2453 -0.1546 -0.6225
 4354TIP3   OH234476   2.747   1.256   4.287 -0.2679  0.2136 -0.5339
 4354TIP3    H134477   2.712   1.313   4.219 -0.3354  1.8607  0.8020
 4354TIP3    H234478   2.832   1.295   4.309  0.2145 -0.9011 -0.3858
 4355TIP3   OH234479   1.788   0.307   5.247 -0.6688  0.4736 -0.5220
 4355TIP3    H134480   1.859   0.320   5.309 -1.1953  0.7194  0.0407
 4355TIP3    H234481   1.822   0.243   5.185  0.0605  0.6350 -0.2959
 4356TIP3   OH234482   1.484   3.771  10.619  0.2093 -0.2439  0.4483
 4356TIP3    H134483   1.452   3.775  10.528  0.1338 -1.7071  0.3869
 4356TIP3    H234484   1.577   3.794  10.612  0.4928 -1.4514 -0.2007
 4357TIP3   OH234485   1.588   3.382   4.351 -0.4674 -0.5415  0.2705
 4357TIP3    H134486   1.592   3.293   4.314 -0.0100 -0.5979  0.4503
 4357TIP3    H234487   1.555   3.369   4.440 -0.4963 -0.5212  0.2626
 4358TIP3   OH234488   2.667   2.644  10.957  0.9750 -0.8804  0.7418
 4358TIP3    H134489   2.697   2.719  11.009 -0.0805 -0.8423  1.3292
 4358TIP3    H234490   2.611   2.683  10.890 -0.5573 -1.1920  1.7707
 4359TIP3   OH234491   3.709   5.721  11.334 -0.2868  0.1603 -0.9809
 4359TIP3    H134492   3.695   5.639  11.287  0.5728 -0.8067  0.3553
 4359TIP3    H234493   3.745   5.781  11.268  1.4096 -1.3116 -1.4785
 4360TIP3   OH234494   0.347   3.104   4.309  0.1021 -0.3770  0.0406
 4360TIP3    H134495   0.260   3.123   4.274 -1.1017 -1.1954  2.3389
 4360TIP3    H234496   0.384   3.038   4.251 -1.2349 -0.7513 -0.3964
 4361TIP3   OH234497   4.405   6.186   5.039  0.4231  0.4498 -0.0655
 4361TIP3    H134498   4.392   6.239   5.117 -0.4221  0.8035 -0.4438
 4361TIP3    H234499   4.500   6.171   5.036  0.2268 -2.2213  2.7561
 4362TIP3   OH234500   3.786   5.785   3.258 -0.1594 -0.6901 -0.0104
 4362TIP3    H134501   3.877   5.773   3.288  0.4996 -1.9065 -2.2488
 4362TIP3    H234502   3.795   5.814   3.167 -2.0383  0.3600  0.1079
 4363TIP3   OH234503   4.407   5.131  14.281  0.2187 -0.0834  0.7151
 4363TIP3    H134504   4.470   5.129  14.208  0.3512 -0.0228  0.8282
 4363TIP3    H234505   4.348   5.204  14.260  0.9905  0.7265  1.2837
 4364TIP3   OH234506   6.357   2.304  14.406  0.0433 -0.5100 -0.3718
 4364TIP3    H134507   6.345   2.209  14.416  0.2874 -0.5666 -0.6169
 4364TIP3    H234508   6.363   2.318  14.312  1.3118 -0.4213 -0.3044
 4365TIP3   OH234509   3.057   0.750  13.801  0.2371 -0.1019  0.0613
 4365TIP3    H134510   3.046   0.796  13.718 -3.0444 -0.4695  0.1805
 4365TIP3    H234511   3.021   0.810  13.866  1.5411 -0.3806  1.0918
 4366TIP3   OH234512   2.027   0.549   4.573  0.0547 -0.8454 -0.5148
 4366TIP3    H134513   2.078   0.553   4.492 -0.3508  1.3496 -0.7332
 4366TIP3    H234514   1.998   0.639   4.587 -0.4995 -1.3157  1.7004
 4367TIP3   OH234515   6.543   4.690  14.772  0.2401 -0.0905  0.8241
 4367TIP3    H134516   6.487   4.660  14.843 -0.9031  0.0260 -0.0015
 4367TIP3    H234517   6.622   4.636  14.779  1.4729  1.8086  3.9262
 4368TIP3   OH234518   3.453   6.363  13.419  0.0209  0.3058 -0.0062
 4368TIP3    H134519   3.543   6.332  13.425 -0.5455 -2.3614 -2.8175
 4368TIP3    H234520   3.403   6.304  13.476 -0.1547  1.0220  0.6088
 4369TIP3   OH234521   3.677   3.259  13.684  0.2757  0.1260  0.2274
 4369TIP3    H134522   3.584   3.245  13.701  0.0830 -0.1346 -0.9282
 4369TIP3    H234523   3.679   3.321  13.610  0.9811 -0.8881 -0.6381
 4370TIP3   OH234524   6.495   4.418   1.132 -0.1423 -0.6376  0.2398
 4370TIP3    H134525   6.467   4.359   1.062  0.1139  0.2162 -0.6115
 4370TIP3    H234526   6.494   4.364   1.211 -3.7449 -0.7641  0.2380
 4371TIP3   OH234527   0.967   1.594   0.999 -0.1720  0.3265 -0.0738
 4371TIP3    H134528   0.894   1.598   0.936 -0.1299 -2.6824 -0.4788
 4371TIP3    H234529   0.924   1.586   1.084 -0.3130 -0.1299 -0.1835
 4372TIP3   OH234530   4.909   3.411   0.915  0.4914 -0.2980  0.0261
 4372TIP3    H134531   4.881   3.387   0.827  0.4283  1.2376 -0.4115
 4372TIP3    H234532   4.838   3.383   0.972  0.1510 -0.5574 -0.5143
 4373TIP3   OH234533   0.517   4.901   2.678 -1.0000  0.0566  0.0715
 4373TIP3    H134534   0.466   4.982   2.673 -0.1193  0.6477  0.3386
 4373TIP3    H234535   0.580   4.917   2.749  1.2706  0.3686 -1.9018
 4374TIP3   OH234536   0.564   0.164  11.116  0.0846 -0.5570  0.3849
 4374TIP3    H134537   0.558   0.076  11.080  2.3343 -0.5491 -0.1662
 4374TIP3    H234538   0.613   0.213  11.051  0.5526  0.5948  1.5643
 4375TIP3   OH234539   3.448   6.382   0.669 -0.3049 -0.3099  0.4138
 4375TIP3    H134540   3.505   6.306   0.682 -0.9665 -0.7417  0.9020
 4375TIP3    H234541   3.403   6.392   0.753  0.9443  1.6416  0.9039
 4376TIP3   OH234542   6.229   1.261  16.601 -0.5481  0.8647  0.0722
 4376TIP3    H134543   6.276   1.344  16.591  1.3890 -0.1939 -0.1626
 4376TIP3    H234544   6.220   1.227  16.512 -0.2713  0.2709  0.2698
 4377TIP3   OH234545   0.030   1.906   0.618 -0.7221  0.0576 -0.2508
 4377TIP3    H134546   0.029   1.973   0.687  1.3518 -1.1582  1.0708
 4377TIP3    H234547   0.097   1.937   0.557 -2.5891  1.1576 -1.8720
 4378TIP3   OH234548   4.616   5.866  17.155 -0.0429 -0.4403  0.0450
 4378TIP3    H134549   4.688   5.918  17.119 -0.7975  1.7965  1.5677
 4378TIP3    H234550   4.644   5.845  17.244 -1.5336  1.1083  0.9155
 4379TIP3   OH234551   5.209   4.107  12.530 -0.1865 -0.0692  0.4737
 4379TIP3    H134552   5.139   4.042  12.537 -0.3222 -0.4466 -3.0215
 4379TIP3    H234553   5.166   4.185  12.495  0.9081  0.0501 -0.6770
 4380TIP3   OH234554   3.574   6.237  10.950  0.5928 -0.4233 -0.1346
 4380TIP3    H134555   3.670   6.244  10.949  0.4952  1.4914 -0.4343
 4380TIP3    H234556   3.544   6.324  10.976 -1.0925 -0.4909 -1.6358
 4381TIP3   OH234557   2.862   2.480  12.130 -0.0212  0.2457 -0.5310
 4381TIP3    H134558   2.864   2.562  12.080  1.6954  0.3542 -0.3573
 4381TIP3    H234559   2.850   2.412  12.065 -0.0985  0.5430 -0.8304
 4382TIP3   OH234560   4.779   1.978  12.635  0.2488  0.0168  0.3204
 4382TIP3    H134561   4.738   2.050  12.685  0.4655 -0.1236  0.7059
 4382TIP3    H234562   4.869   1.977  12.666 -0.0366 -1.1714  1.1692
 4383TIP3   OH234563   5.585   2.700   5.883 -0.2610  0.0260 -0.0296
 4383TIP3    H134564   5.619   2.709   5.971  1.4508 -3.2103 -0.2171
 4383TIP3    H234565   5.537   2.617   5.884  0.0097 -0.2106 -2.1861
 4384TIP3   OH234566   0.308   4.354   1.117 -0.2860 -0.0047  0.3668
 4384TIP3    H134567   0.293   4.302   1.197 -0.2820 -1.1350 -0.3443
 4384TIP3    H234568   0.250   4.430   1.127  0.4635  0.4031  1.9068
 4385TIP3   OH234569   0.163   5.275  13.183 -0.4353  0.5671 -0.5088
 4385TIP3    H134570   0.168   5.314  13.096 -1.8327  0.6950 -0.5549
 4385TIP3    H234571   0.070   5.273  13.203 -0.1237  0.7343  1.0796
 4386TIP3   OH234572   1.398   0.338  12.613  0.2000 -0.0447 -0.5814
 4386TIP3    H134573   1.410   0.391  12.534 -0.0587  0.2836 -0.4031
 4386TIP3    H234574   1.368   0.253  12.580  1.5390 -0.4134 -0.9367
 4387TIP3   OH234575   1.824   3.108  17.281 -0.2721 -0.2685  0.1682
 4387TIP3    H134576   1.884   3.181  17.291 -0.2659 -0.3618  0.8010
 4387TIP3    H234577   1.737   3.147  17.287 -0.2695 -0.3723  0.9833
 4388TIP3   OH234578   4.815   2.025   6.214  0.1631 -0.3969 -0.0835
 4388TIP3    H134579   4.784   2.000   6.301 -0.2080 -1.4957 -0.5172
 4388TIP3    H234580   4.814   1.944   6.163  0.3544  0.2306 -1.1270
 4389TIP3   OH234581   3.868   0.140   3.209  0.1554  0.0817  0.5870
 4389TIP3    H134582   3.852   0.070   3.146 -0.8914  0.7156  0.1301
 4389TIP3    H234583   3.943   0.188   3.173 -0.2641  0.2759 -0.0434
 4390TIP3   OH234584   0.469   1.742   2.771  0.3105 -0.4492  0.3817
 4390TIP3    H134585   0.484   1.834   2.792 -0.8418 -0.3761  0.9973
 4390TIP3    H234586   0.526   1.694   2.831  0.3386 -0.1458  0.6022
 4391TIP3   OH234587   0.309   4.981  12.627  0.9428  0.1821 -0.7006
 4391TIP3    H134588   0.361   4.983  12.547 -0.5978 -0.8706 -1.7860
 4391TIP3    H234589   0.348   5.049  12.682  4.0906 -1.1874 -1.0029
 4392TIP3   OH234590   5.202   1.778  14.096 -0.3576 -0.2756  0.0011
 4392TIP3    H134591   5.128   1.727  14.129 -0.3937  0.5294  1.2124
 4392TIP3    H234592   5.205   1.759  14.002 -0.9772 -1.7180  0.2573
 4393TIP3   OH234593   6.267   5.933   5.929  0.5109 -0.0367 -0.0080
 4393TIP3    H134594   6.190   5.899   5.973  0.5927 -0.8267 -0.4723
 4393TIP3    H234595   6.233   6.001   5.871  0.2468  0.0631  0.2574
 4394TIP3   OH234596   5.247   3.309   1.980 -0.3059 -0.5156  0.3935
 4394TIP3    H134597   5.200   3.367   1.920  2.8824  1.0724 -0.7562
 4394TIP3    H234598   5.259   3.361   2.059 -0.8069 -1.0889  0.8627
 4395TIP3   OH234599   0.827   5.798  14.458  0.9206  0.0406  0.4716
 4395TIP3    H134600   0.804   5.713  14.419  1.8506 -0.4479  0.9426
 4395TIP3    H234601   0.827   5.781  14.553 -2.9900  1.5983  0.9388
 4396TIP3   OH234602   3.852   2.735  11.482  0.1079  0.5891  0.2844
 4396TIP3    H134603   3.836   2.801  11.414 -0.6782  0.2911  0.1669
 4396TIP3    H234604   3.783   2.669  11.468  1.5455 -0.8667 -0.3452
 4397TIP3   OH234605   1.052   5.744  15.611  0.5245 -0.1764 -0.1887
 4397TIP3    H134606   0.997   5.807  15.659  1.0158 -0.0255  0.1776
 4397TIP3    H234607   1.059   5.782  15.523  0.3559 -0.0036 -0.1299
 4398TIP3   OH234608   1.800   6.507  17.227 -0.3176  0.1500 -0.5036
 4398TIP3    H134609   1.770   6.578  17.170  0.5054 -0.0025 -1.1414
 4398TIP3    H234610   1.806   6.431  17.169 -1.2524 -0.4677  0.1863
 4399TIP3   OH234611   2.034   4.719  14.746 -0.6666 -0.7114 -0.5369
 4399TIP3    H134612   2.018   4.642  14.690  2.6232 -1.3309 -0.8296
 4399TIP3    H234613   2.057   4.789  14.684  1.0623 -0.8664 -0.1165
 4400TIP3   OH234614   1.646   4.550   3.643 -0.2804  0.0132 -0.3680
 4400TIP3    H134615   1.667   4.457   3.654 -0.8400 -0.0218  0.5015
 4400TIP3    H234616   1.648   4.564   3.548  1.7648 -0.4110 -0.4358
 4401TIP3   OH234617   4.978   3.385   0.550  0.1551 -0.7290 -0.1386
 4401TIP3    H134618   4.883   3.396   0.549  0.2237  0.0443  0.7724
 4401TIP3    H234619   4.992   3.305   0.601  0.0062 -0.5304  0.2215
 4402TIP3   OH234620   6.736   4.904  17.320  0.2136  0.5036  0.1500
 4402TIP3    H134621   6.784   4.943  17.247  0.2702  0.9179  0.4041
 4402TIP3    H234622   6.695   4.979  17.364 -1.8276  0.0633 -0.8866
 4403TIP3   OH234623   6.348   1.513  16.554  0.3231 -0.4272  0.0452
 4403TIP3    H134624   6.282   1.549  16.494  1.6283 -1.4077 -2.1320
 4403TIP3    H234625   6.395   1.589  16.587 -0.6517  0.1704  0.0722
 4404TIP3   OH234626   2.372   4.214  13.656  0.2109  0.3164 -0.4342
 4404TIP3    H134627   2.391   4.220  13.563  0.2428  1.6050 -0.3574
 4404TIP3    H234628   2.279   4.234  13.664  0.0160 -0.6118 -0.2615
 4405TIP3   OH234629   5.470   6.395   4.976 -0.3305  0.0318  0.0245
 4405TIP3    H134630   5.438   6.472   5.023  2.1567  0.1855  1.6436
 4405TIP3    H234631   5.478   6.328   5.043  2.0156 -0.1641 -0.3905
 4406TIP3   OH234632   6.205   2.131  11.811 -0.1456  0.2448  0.0205
 4406TIP3    H134633   6.177   2.055  11.862 -0.0851  1.2235  1.5569
 4406TIP3    H234634   6.300   2.120  11.802 -0.1879 -0.0489 -0.0923
 4407TIP3   OH234635   6.389   0.363  13.674 -0.8659 -0.2014 -0.2026
 4407TIP3    H134636   6.333   0.438  13.694  0.1611  0.3481  0.7085
 4407TIP3    H234637   6.388   0.310  13.753 -0.6443 -0.5343 -0.4196
 4408TIP3   OH234638   0.557   2.043   0.753  0.2796  0.3766 -0.2267
 4408TIP3    H134639   0.653   2.038   0.752  0.3296  1.3296 -0.8904
 4408TIP3    H234640   0.537   2.111   0.817 -0.0817 -1.5453  1.8542
 4409TIP3   OH234641   4.587   3.311   6.096 -0.4049 -0.1680  0.6504
 4409TIP3    H134642   4.563   3.401   6.117 -2.2862 -1.1458  3.1743
 4409TIP3    H234643   4.637   3.281   6.171 -1.4735 -1.7826  0.7723
 4410TIP3   OH234644   2.160   3.013  11.542  0.2316  0.2645 -0.4678
 4410TIP3    H134645   2.189   2.922  11.539 -0.4641  0.0585 -1.7651
 4410TIP3    H234646   2.064   3.006  11.547  0.2365  0.9267  2.3852
 4411TIP3   OH234647   0.158   2.098   0.485  0.4566 -0.1004 -0.4506
 4411TIP3    H134648   0.125   2.170   0.432 -0.9394 -0.7849 -0.5501
 4411TIP3    H234649   0.155   2.131   0.575  0.3969  0.1740 -0.5527
 4412TIP3   OH234650   5.474   1.278   3.865  0.1276  0.2175 -0.8929
 4412TIP3    H134651   5.527   1.277   3.786  1.0293  1.1078 -0.3243
 4412TIP3    H234652   5.418   1.200   3.858  2.3963 -1.5002 -0.9261
 4413TIP3   OH234653   4.771   3.756   6.098  0.2959 -0.2937 -0.1395
 4413TIP3    H134654   4.713   3.681   6.109  0.2232 -0.5079 -1.7338
 4413TIP3    H234655   4.849   3.734   6.149 -0.5006 -0.5563  1.0051
 4414TIP3   OH234656   1.478   3.752   5.584  0.0020  0.3315  0.0709
 4414TIP3    H134657   1.556   3.790   5.543  1.0077 -0.8731  0.7747
 4414TIP3    H234658   1.513   3.696   5.654 -1.4980 -0.3035  0.3491
 4415TIP3   OH234659   3.614   6.614   0.658 -0.3767 -0.0154  0.2100
 4415TIP3    H134660   3.532   6.564   0.662 -0.3105 -0.2034 -0.5564
 4415TIP3    H234661   3.674   6.564   0.713 -0.4284 -0.5666 -0.2200
 4416TIP3   OH234662   5.584   5.705   3.641  0.5424 -0.2598  0.1956
 4416TIP3    H134663   5.613   5.736   3.555 -2.2263  1.5265 -0.2097
 4416TIP3    H234664   5.611   5.774   3.701 -0.9057  0.4090  0.1173
 4417TIP3   OH234665   0.207   0.378   0.906  0.1107  0.3771  0.6979
 4417TIP3    H134666   0.240   0.316   0.840  1.5281 -1.7040  3.1797
 4417TIP3    H234667   0.286   0.416   0.945 -0.4086 -1.2997  3.6789
 4418TIP3   OH234668   5.394   1.825   4.664  0.0538 -0.0309 -0.4493
 4418TIP3    H134669   5.411   1.748   4.608 -1.1333  0.5701 -1.6895
 4418TIP3    H234670   5.311   1.805   4.706  1.3730 -0.9040  1.9625
 4419TIP3   OH234671   5.512   3.438  15.856  0.0859 -0.0221 -0.4828
 4419TIP3    H134672   5.590   3.445  15.801  0.1284 -0.0411 -0.4253
 4419TIP3    H234673   5.545   3.449  15.946  0.0602 -0.3080 -0.4385
 4420TIP3   OH234674   2.620   0.780   4.366  0.2643 -0.7124 -0.0518
 4420TIP3    H134675   2.593   0.713   4.302  1.8395  0.2576 -1.8554
 4420TIP3    H234676   2.571   0.859   4.340 -0.3449 -0.7109  1.0354
 4421TIP3   OH234677   5.383   1.190  11.710  0.1750  0.1398  0.0479
 4421TIP3    H134678   5.320   1.209  11.780  0.9350  1.2173  0.4710
 4421TIP3    H234679   5.359   1.103  11.679 -1.1146  0.2655  0.6303
 4422TIP3   OH234680   1.144   2.783  14.129 -0.2295  0.1043  0.0327
 4422TIP3    H134681   1.199   2.848  14.172 -0.1201 -0.4114  0.6886
 4422TIP3    H234682   1.059   2.792  14.171  0.0113 -0.7413  0.7246
 4423TIP3   OH234683   4.979   1.974   1.415 -0.0571 -0.3038  0.2736
 4423TIP3    H134684   4.984   1.957   1.321  0.1730 -3.6605  0.7668
 4423TIP3    H234685   4.885   1.980   1.433 -0.0898  0.6709 -0.2025
 4424TIP3   OH234686   0.069   1.023  11.848  0.5951  0.7356  0.1139
 4424TIP3    H134687   0.077   1.051  11.757  1.8892 -1.4172 -0.5208
 4424TIP3    H234688   0.070   1.104  11.899  0.6402  1.9485 -1.7266
 4425TIP3   OH234689   6.107   0.543   1.241  0.3446  0.0238  0.2005
 4425TIP3    H134690   6.107   0.575   1.331  0.0900 -0.8257  0.5139
 4425TIP3    H234691   6.111   0.622   1.187  0.7930  0.5318  0.9556
 4426TIP3   OH234692   0.455   5.498   3.191  0.5662 -0.0964  0.3778
 4426TIP3    H134693   0.420   5.424   3.240 -0.9784 -0.4065 -1.0947
 4426TIP3    H234694   0.438   5.574   3.247 -0.2168 -0.5537  0.7827
 4427TIP3   OH234695   6.500   2.467  13.251 -0.7621  0.0457  0.4981
 4427TIP3    H134696   6.580   2.517  13.269 -0.6124 -0.7484  2.2235
 4427TIP3    H234697   6.449   2.524  13.193  0.3093  1.2784  0.7050
 4428TIP3   OH234698   2.346   5.721   1.670  0.1448 -0.4073  0.1938
 4428TIP3    H134699   2.292   5.655   1.714 -0.1832 -0.2209  0.0778
 4428TIP3    H234700   2.377   5.778   1.740  2.0985 -1.8402  0.5622
 4429TIP3   OH234701   1.823   1.573   0.852 -0.0316 -0.3061  0.6317
 4429TIP3    H134702   1.809   1.569   0.947  2.2808  0.4546  1.0791
 4429TIP3    H234703   1.867   1.491   0.831 -1.5043 -0.9660 -0.0323
 4430TIP3   OH234704   4.491   0.113   3.470 -0.0256  0.5346 -0.0455
 4430TIP3    H134705   4.565   0.143   3.524 -1.1900 -1.3322  2.7888
 4430TIP3    H234706   4.491   0.018   3.480 -2.4629  0.4400 -0.4145
 4431TIP3   OH234707   4.706   3.248  14.102  0.2005  0.1804  0.4713
 4431TIP3    H134708   4.783   3.225  14.153  0.0664 -0.3460  0.4452
 4431TIP3    H234709   4.677   3.164  14.064 -0.5360  0.3302  0.6957
 4432TIP3   OH234710   4.063   4.090  14.648 -0.0468  0.0499  0.1851
 4432TIP3    H134711   4.095   4.066  14.735 -2.1692 -0.6740  0.8483
 4432TIP3    H234712   4.057   4.007  14.601  0.1329  0.3092 -0.2954
 4433TIP3   OH234713   0.857   1.058  12.454 -0.2268  0.5374  0.3435
 4433TIP3    H134714   0.806   1.040  12.374  1.1156 -0.2648 -0.3666
 4433TIP3    H234715   0.795   1.042  12.525 -0.6814 -1.6673 -0.4501
 4434TIP3   OH234716   1.261   3.461  14.806 -0.1918 -0.1004 -0.3335
 4434TIP3    H134717   1.216   3.385  14.844 -1.0728  0.4865 -0.1960
 4434TIP3    H234718   1.201   3.493  14.738  0.6519 -0.1659 -1.1345
 4435TIP3   OH234719   1.998   1.452  13.670 -0.2385  0.1586 -0.2966
 4435TIP3    H134720   1.964   1.498  13.747 -0.7136  0.4704 -0.6863
 4435TIP3    H234721   1.920   1.432  13.617 -0.1934 -2.0308  0.3490
 4436TIP3   OH234722   5.309   2.565   4.130 -0.3194  0.1257  0.4998
 4436TIP3    H134723   5.305   2.576   4.035 -0.3250 -0.7885  0.3875
 4436TIP3    H234724   5.268   2.480   4.147 -2.1985  1.1734  1.5359
 4437TIP3   OH234725   1.615   0.258   1.438 -0.2813 -0.0949  0.2660
 4437TIP3    H134726   1.617   0.324   1.506 -0.1869  1.6700 -1.3802
 4437TIP3    H234727   1.531   0.213   1.451 -0.4533  0.4948  1.2493
 4438TIP3   OH234728   5.156   6.018   3.665  0.2772  0.9901 -0.6568
 4438TIP3    H134729   5.203   6.066   3.733 -1.2605  0.8900  0.5186
 4438TIP3    H234730   5.204   5.935   3.657 -1.4729 -0.5752  2.9477
 4439TIP3   OH234731   1.924   4.884   5.733 -0.1519 -0.0080  0.7604
 4439TIP3    H134732   1.917   4.952   5.665  1.0147 -0.2871  0.3352
 4439TIP3    H234733   1.898   4.928   5.814 -3.9073 -0.2485 -0.1180
 4440TIP3   OH234734   3.932   2.848  17.198 -0.9139 -0.8477  0.2389
 4440TIP3    H134735   3.893   2.768  17.161  2.9388 -1.6728 -2.6841
 4440TIP3    H234736   3.933   2.910  17.125  0.8687 -0.0422  0.8883
 4441TIP3   OH234737   1.122   0.021   1.880 -0.2780 -0.5656 -0.1521
 4441TIP3    H134738   1.071  -0.008   1.955 -0.4688 -1.1336 -0.5011
 4441TIP3    H234739   1.116  -0.050   1.817 -1.8257  0.7164 -1.5537
 4442TIP3   OH234740   4.113   2.795   4.105 -0.3192  0.1770 -0.3698
 4442TIP3    H134741   4.205   2.781   4.131 -0.6325 -0.0140  0.6923
 4442TIP3    H234742   4.118   2.825   4.014  0.8882  1.4804  0.0802
 4443TIP3   OH234743   5.335   3.417   0.133 -0.3033 -0.3978  0.1331
 4443TIP3    H134744   5.300   3.469   0.061 -0.6031 -1.8719 -0.8287
 4443TIP3    H234745   5.261   3.406   0.193  0.4018  2.4411  1.7561
 4444TIP3   OH234746   1.624   0.562  15.221  0.1182  0.0311 -0.3993
 4444TIP3    H134747   1.686   0.556  15.293  0.1129  0.6494 -0.3421
 4444TIP3    H234748   1.666   0.621  15.158 -0.3380  0.3208 -0.4341
 4445TIP3   OH234749   1.229   2.148   0.103 -0.5314 -0.6276  0.2109
 4445TIP3    H134750   1.244   2.237   0.072  1.2297 -1.1626 -0.6306
 4445TIP3    H234751   1.213   2.097   0.023  2.5246 -1.7554  0.2034
 4446TIP3   OH234752   1.406   1.146   5.617  0.4169  0.3193  0.8726
 4446TIP3    H134753   1.492   1.120   5.585 -0.2709  0.9707 -1.7675
 4446TIP3    H234754   1.406   1.242   5.610 -0.8519  0.2708 -0.2763
 4447TIP3   OH234755   4.838   3.013  15.280  0.0389 -0.2915  0.1408
 4447TIP3    H134756   4.767   3.076  15.268 -0.8116 -1.1643  0.4695
 4447TIP3    H234757   4.808   2.957  15.352 -0.1550 -2.3436 -1.4627
 4448TIP3   OH234758   3.632   6.635   2.430 -0.3697 -1.4651  0.1035
 4448TIP3    H134759   3.559   6.675   2.383  2.9825  0.4737 -4.0709
 4448TIP3    H234760   3.650   6.694   2.503 -0.9226 -0.1776 -0.7805
 4449TIP3   OH234761   1.828   3.898  12.046  0.7051 -0.4706 -0.5295
 4449TIP3    H134762   1.907   3.844  12.046  0.3589 -1.0189  0.4666
 4449TIP3    H234763   1.756   3.834  12.051  0.3143  0.0426  1.9898
 4450TIP3   OH234764   2.072   4.316  13.520  0.0868  0.3744 -0.2419
 4450TIP3    H134765   2.025   4.242  13.484 -0.3716  0.2980  0.4911
 4450TIP3    H234766   2.090   4.373  13.445  0.0725 -0.2733 -0.7385
 4451TIP3   OH234767   2.881   2.024   1.383 -0.1708  0.3481  0.8436
 4451TIP3    H134768   2.785   2.018   1.384 -0.3611  2.5377  1.8103
 4451TIP3    H234769   2.911   1.935   1.399 -2.0187 -0.5384 -0.2889
 4452TIP3   OH234770   5.121   1.334  12.267  0.3699  0.3029 -0.0365
 4452TIP3    H134771   5.055   1.395  12.235 -0.9604 -1.3726 -0.6463
 4452TIP3    H234772   5.171   1.384  12.332 -1.0920  1.8070 -0.0123
 4453TIP3   OH234773   5.039   4.789   0.369  0.3130  0.5871 -0.1997
 4453TIP3    H134774   5.046   4.724   0.299  0.6317  2.6707 -2.2255
 4453TIP3    H234775   4.948   4.819   0.366  0.4430  1.0136 -0.0238
 4454TIP3   OH234776   3.379   5.776  15.518 -0.0696  0.0966 -0.3430
 4454TIP3    H134777   3.392   5.868  15.495  1.4939 -0.0096 -0.0475
 4454TIP3    H234778   3.370   5.731  15.435 -0.6842  0.4989 -0.4950
 4455TIP3   OH234779   4.056   6.454   2.622 -0.3628  0.6442  0.4569
 4455TIP3    H134780   4.096   6.399   2.555 -1.3160 -1.3380  1.4104
 4455TIP3    H234781   3.968   6.471   2.590 -1.0419 -0.8529  1.4423
 4456TIP3   OH234782   4.675   5.024  15.365 -0.0380  0.0134 -0.1291
 4456TIP3    H134783   4.755   4.993  15.322  0.6712 -0.0175  1.1526
 4456TIP3    H234784   4.704   5.097  15.419 -1.0153  0.4505 -0.1794
 4457TIP3   OH234785   4.995   1.238  17.094  0.1957  0.4213  0.6544
 4457TIP3    H134786   4.910   1.261  17.132  0.4932 -0.7200  2.0892
 4457TIP3    H234787   5.047   1.206  17.168  1.0478 -1.2463 -0.5823
 4458TIP3   OH234788   1.701   6.279  11.535 -0.1940 -0.1911  0.3384
 4458TIP3    H134789   1.615   6.288  11.576  0.3292  1.0512  1.2220
 4458TIP3    H234790   1.716   6.363  11.493 -0.0011 -0.8907 -1.0300
 4459TIP3   OH234791   0.829   2.511  11.821  0.5284  0.2568  0.3034
 4459TIP3    H134792   0.916   2.470  11.817 -0.1143 -1.4215  2.0581
 4459TIP3    H234793   0.840   2.594  11.775  2.8785 -0.2212 -0.1413
 4460TIP3   OH234794   3.729   6.511   3.503 -0.7017 -0.0814 -0.0791
 4460TIP3    H134795   3.783   6.587   3.523  0.8722 -1.1896  0.0572
 4460TIP3    H234796   3.759   6.443   3.563 -1.5288 -1.0583 -0.7192
 4461TIP3   OH234797   0.421   3.184   2.732  0.7152 -0.2226 -0.1369
 4461TIP3    H134798   0.400   3.247   2.663 -0.4511  0.9694  1.2394
 4461TIP3    H234799   0.494   3.224   2.779  0.0898  0.0349  0.6311
 4462TIP3   OH234800   5.759   5.770   1.030  0.4328 -0.0910 -1.0293
 4462TIP3    H134801   5.696   5.698   1.029  0.4115 -0.0790 -2.2645
 4462TIP3    H234802   5.712   5.843   0.988 -1.2405  2.2029  3.9915
 4463TIP3   OH234803   4.408   2.151   0.626 -0.4947 -0.2473 -0.2032
 4463TIP3    H134804   4.413   2.158   0.530  2.3479 -1.6129 -0.2505
 4463TIP3    H234805   4.411   2.058   0.644  2.0959  0.0153  1.2229
 4464TIP3   OH234806   2.467   1.469  16.816  0.2431 -0.1687 -0.7630
 4464TIP3    H134807   2.421   1.513  16.745 -0.5488  1.4722  0.7095
 4464TIP3    H234808   2.417   1.389  16.831 -1.2124  0.8057 -0.2610
 4465TIP3   OH234809   4.276   4.755  14.424  0.0633 -0.1887 -0.1766
 4465TIP3    H134810   4.211   4.692  14.456 -1.1803  0.5909 -1.0749
 4465TIP3    H234811   4.224   4.827  14.389  1.4404  0.7372 -0.3792
 4466TIP3   OH234812   4.776   5.059  12.260  0.0643 -0.3950  0.5562
 4466TIP3    H134813   4.727   5.136  12.287 -0.9400 -0.7892 -0.0839
 4466TIP3    H234814   4.715   4.986  12.271  0.3352 -0.8393 -0.6907
 4467TIP3   OH234815   0.073   3.052   0.111  0.6600 -0.4382  0.0254
 4467TIP3    H134816   0.083   3.126   0.052  1.6704  0.1671  0.9129
 4467TIP3    H234817   0.038   3.090   0.191 -0.1676 -1.1562  0.0160
 4468TIP3   OH234818   2.313   0.647  13.300  0.8273  0.1558 -0.2642
 4468TIP3    H134819   2.273   0.567  13.335  1.0198  0.7007  1.2735
 4468TIP3    H234820   2.302   0.640  13.206 -0.5081 -0.9742 -0.0530
 4469TIP3   OH234821   5.384   3.431   5.110 -0.3033 -0.2872  0.3228
 4469TIP3    H134822   5.397   3.526   5.103  1.0080 -0.4440  0.2289
 4469TIP3    H234823   5.466   3.394   5.076 -1.7973 -1.5478 -2.1485
 4470TIP3   OH234824   6.063   1.513   5.045 -0.2382  0.1030 -0.0383
 4470TIP3    H134825   6.006   1.548   5.113 -2.3379  0.7390 -2.0175
 4470TIP3    H234826   6.011   1.518   4.965  3.1998  2.6889 -2.4302
 4471TIP3   OH234827   2.363   4.522  16.168  0.0690 -0.2040 -0.0170
 4471TIP3    H134828   2.395   4.466  16.240 -1.9184 -2.4167 -0.7105
 4471TIP3    H234829   2.272   4.540  16.190 -0.0355  0.6737 -1.0743
 4472TIP3   OH234830   0.736   0.779   4.125 -0.7374 -0.3827  0.0009
 4472TIP3    H134831   0.641   0.791   4.125 -0.5361  1.6388  0.0935
 4472TIP3    H234832   0.764   0.810   4.211  0.1179  0.2988 -0.5149
 4473TIP3   OH234833   4.589   5.240  15.055 -0.2540 -0.2335  0.0046
 4473TIP3    H134834   4.670   5.253  15.105  1.3183 -0.5359 -2.3242
 4473TIP3    H234835   4.601   5.156  15.011 -1.2426  0.3624 -1.4622
 4474TIP3   OH234836   2.954   2.891   5.328 -0.1103  0.6364  0.4168
 4474TIP3    H134837   3.038   2.914   5.369  0.6080 -1.0380 -0.0353
 4474TIP3    H234838   2.964   2.920   5.237  0.5233 -0.7229  0.0261
 4475TIP3   OH234839   5.742   4.125   5.982  0.1346 -0.0711 -0.0375
 4475TIP3    H134840   5.671   4.080   6.030  0.0098  0.7661  0.5848
 4475TIP3    H234841   5.819   4.070   5.998 -0.1380 -0.3867  0.2264
 4476TIP3   OH234842   4.335   3.783  11.609  0.1108  0.2994 -0.3664
 4476TIP3    H134843   4.346   3.864  11.558 -0.4790  0.8950  0.4194
 4476TIP3    H234844   4.413   3.731  11.590  0.4020  0.9688 -1.0399
 4477TIP3   OH234845   5.418   3.559  17.032  0.0339 -0.1609 -0.4049
 4477TIP3    H134846   5.404   3.528  16.943 -1.2534  1.5783 -0.8761
 4477TIP3    H234847   5.343   3.617  17.049  0.4189 -0.2019  1.6850
 4478TIP3   OH234848   2.284   1.059   1.816 -0.1347  0.1897 -0.0571
 4478TIP3    H134849   2.193   1.087   1.816  0.3567  2.3221 -3.2236
 4478TIP3    H234850   2.322   1.102   1.739  3.3746 -1.2035  0.7220
 4479TIP3   OH234851   5.847   3.089   1.328  0.0848  0.0064 -0.0839
 4479TIP3    H134852   5.774   3.128   1.280 -0.2454 -1.2214 -0.6402
 4479TIP3    H234853   5.806   3.031   1.391  0.5586 -0.8613 -0.5510
 4480TIP3   OH234854   4.894   2.983  15.759 -0.0976 -0.2399  0.1134
 4480TIP3    H134855   4.884   3.024  15.844 -1.2056 -0.2055 -0.0137
 4480TIP3    H234856   4.848   2.899  15.767  0.3901 -0.5498 -0.2403
 4481TIP3   OH234857   5.599   2.351  11.488  0.3382 -0.2804 -0.7463
 4481TIP3    H134858   5.551   2.349  11.406 -0.1663  0.3532 -0.4755
 4481TIP3    H234859   5.540   2.311  11.552  0.0263  0.7774 -0.3487
 4482TIP3   OH234860   0.023   5.153   6.323  0.0975  0.0250 -0.0747
 4482TIP3    H134861   0.074   5.101   6.385  0.3850  1.5410  1.0033
 4482TIP3    H234862   0.069   5.237   6.319 -2.9411  1.9416  1.9232
 4483TIP3   OH234863   0.785   5.322   2.295 -0.8561  0.1073  0.3368
 4483TIP3    H134864   0.750   5.242   2.255  1.0025 -0.4771 -0.2531
 4483TIP3    H234865   0.806   5.297   2.385  1.9085 -0.8810 -0.4654
 4484TIP3   OH234866   0.068   5.448   1.220 -0.8867  0.2257  0.1051
 4484TIP3    H134867   0.108   5.528   1.254 -2.1115  1.4343 -1.1589
 4484TIP3    H234868   0.142   5.390   1.200  0.2049  2.0078 -1.2756
 4485TIP3   OH234869   0.202   6.297   1.538 -0.0614  0.0167 -0.2713
 4485TIP3    H134870   0.127   6.295   1.598 -0.1405  1.3300 -0.2996
 4485TIP3    H234871   0.185   6.227   1.475 -1.6897  0.8293 -0.7684
 4486TIP3   OH234872   2.931   4.047  16.981 -0.0615 -0.6393 -0.5308
 4486TIP3    H134873   2.847   4.074  17.017  0.0537 -0.1297 -0.6392
 4486TIP3    H234874   2.980   4.015  17.057 -0.5805 -1.5484 -0.5653
 4487TIP3   OH234875   6.647   4.547  13.739 -0.4346  0.2281  0.2089
 4487TIP3    H134876   6.624   4.637  13.716 -0.4443  0.3879  0.8223
 4487TIP3    H234877   6.582   4.494  13.694 -0.7245  0.5554  0.2336
 4488TIP3   OH234878   6.401   5.542  10.813 -0.0481 -0.6731 -0.0331
 4488TIP3    H134879   6.481   5.507  10.775  0.9717  1.8782 -0.3847
 4488TIP3    H234880   6.347   5.566  10.737  0.4951  1.1171  0.1020
 4489TIP3   OH234881   5.099   4.384   6.280  0.5982 -0.8731  0.0675
 4489TIP3    H134882   5.157   4.458   6.300 -0.4027 -0.0481  0.0252
 4489TIP3    H234883   5.131   4.351   6.196  0.5058  0.1060 -0.3706
 4490TIP3   OH234884   5.934   5.692  15.722  0.3310  0.2863  0.2819
 4490TIP3    H134885   5.928   5.683  15.817  1.5515 -0.2927  0.3150
 4490TIP3    H234886   6.022   5.662  15.700  0.1792  0.7160 -1.0028
 4491TIP3   OH234887   1.730   0.900  14.363  0.5649 -0.5097 -0.4638
 4491TIP3    H134888   1.697   0.908  14.452  2.0074 -0.4973  0.0917
 4491TIP3    H234889   1.653   0.873  14.312 -0.4943  0.3988  0.5921
 4492TIP3   OH234890   6.577   0.553  13.953 -0.1166 -0.0131 -0.3284
 4492TIP3    H134891   6.553   0.620  13.890 -1.6512  0.5427  0.7959
 4492TIP3    H234892   6.499   0.498  13.962  0.7782 -1.3638 -0.4765
 4493TIP3   OH234893   1.581   3.635  15.939 -0.1277 -0.1105 -0.3080
 4493TIP3    H134894   1.613   3.725  15.946 -1.2743  0.2134  1.5710
 4493TIP3    H234895   1.650   3.581  15.976  0.3769  0.0176 -1.0372
 4494TIP3   OH234896   2.477   3.943  11.424 -0.0839  0.2673  0.2367
 4494TIP3    H134897   2.466   3.949  11.519 -1.6039  0.3749  0.0828
 4494TIP3    H234898   2.488   3.849  11.408 -0.0003  0.2298  0.5054
 4495TIP3   OH234899   2.624   3.838  12.769 -0.1475 -0.3450 -0.5924
 4495TIP3    H134900   2.658   3.878  12.849 -1.3695 -1.3480  0.4707
 4495TIP3    H234901   2.653   3.896  12.699 -0.7407  1.6673  0.7633
 4496TIP3   OH234902   0.575   0.944   0.494 -0.4036 -0.4654  0.0483
 4496TIP3    H134903   0.493   0.962   0.449  0.5988  1.4117 -1.1560
 4496TIP3    H234904   0.578   1.009   0.565 -0.2714 -0.9853  0.5238
 4497TIP3   OH234905   4.406   4.423  14.920 -0.5286 -0.5833 -0.0596
 4497TIP3    H134906   4.497   4.398  14.905 -0.6626 -1.2641  0.2519
 4497TIP3    H234907   4.369   4.351  14.971 -1.7678 -1.2447 -1.8169
 4498TIP3   OH234908   3.685   5.469   5.913  0.6155 -0.2563 -0.8720
 4498TIP3    H134909   3.670   5.406   5.984 -0.2351 -1.1227 -1.7929
 4498TIP3    H234910   3.717   5.547   5.957  0.9765 -1.0809  0.3800
 4499TIP3   OH234911   6.556   4.517  10.951 -0.0056 -0.1627 -0.0908
 4499TIP3    H134912   6.595   4.445  11.001 -2.2130 -1.4450 -0.0377
 4499TIP3    H234913   6.547   4.482  10.863  1.4037  1.1030 -0.7652
 4500TIP3   OH234914   6.116   1.586  12.612 -0.1019 -0.1078 -0.3094
 4500TIP3    H134915   6.137   1.519  12.547 -0.0832 -0.9452  0.5361
 4500TIP3    H234916   6.047   1.638  12.571  0.1549 -0.3975 -1.1332
 4501TIP3   OH234917   4.236   4.114  10.782  0.5122 -0.6161  0.5463
 4501TIP3    H134918   4.295   4.141  10.711 -0.6606 -0.0716 -0.2618
 4501TIP3    H234919   4.245   4.018  10.785  1.0912 -0.5811  0.1306
 4502TIP3   OH234920   3.370   6.314   3.694  0.1743 -0.0013 -0.5083
 4502TIP3    H134921   3.406   6.303   3.606 -0.4468 -0.4926 -0.7023
 4502TIP3    H234922   3.369   6.226   3.731  1.2293  0.3092  0.3147
 4503TIP3   OH234923   2.464   2.488   1.885  0.5489  0.3685 -0.4912
 4503TIP3    H134924   2.540   2.457   1.934  0.7280  0.2149 -0.8672
 4503TIP3    H234925   2.499   2.556   1.827  0.0922  1.6149  0.6388
 4504TIP3   OH234926   3.338   3.445   1.432 -0.2790  0.1616  0.0104
 4504TIP3    H134927   3.277   3.491   1.375 -0.5735 -0.7478 -0.4335
 4504TIP3    H234928   3.283   3.391   1.488  0.0712  0.1275  0.3275
 4505TIP3   OH234929   5.704   1.309  12.740 -0.2853 -0.7061 -0.4325
 4505TIP3    H134930   5.740   1.342  12.823 -0.2679 -1.5469 -0.0926
 4505TIP3    H234931   5.705   1.385  12.682  0.1210 -0.2102  0.2004
 4506TIP3   OH234932   0.807   3.120   5.816 -0.1730 -0.1370 -0.1847
 4506TIP3    H134933   0.727   3.174   5.819 -0.0772 -0.0349  0.6068
 4506TIP3    H234934   0.875   3.181   5.788 -0.6720 -0.6209 -2.7625
 4507TIP3   OH234935   5.355   6.629  16.891  0.1408  0.1869  0.7884
 4507TIP3    H134936   5.327   6.713  16.927 -1.4414  0.4686 -0.9077
 4507TIP3    H234937   5.301   6.564  16.937  0.6131  0.1972  1.3598
 4508TIP3   OH234938   2.890   2.060  16.858 -0.5885  0.4403 -0.1855
 4508TIP3    H134939   2.827   2.067  16.786 -1.3927 -0.7501  0.3738
 4508TIP3    H234940   2.844   2.097  16.933 -0.5587 -0.2868  0.1929
 4509TIP3   OH234941   6.337   1.181  16.857 -0.2666  0.3546  0.8131
 4509TIP3    H134942   6.304   1.210  16.772  0.5235  0.6216  0.5940
 4509TIP3    H234943   6.284   1.105  16.878  2.4076 -2.5975 -2.0373
 4510TIP3   OH234944   2.533   5.132  16.986 -0.4781  0.0390  0.0177
 4510TIP3    H134945   2.500   5.049  16.951  1.1531 -0.2756 -0.8788
 4510TIP3    H234946   2.519   5.195  16.916 -1.2442  0.4334  0.5070
 4511TIP3   OH234947   2.131   4.933   1.079 -0.0928 -0.4135 -0.4276
 4511TIP3    H134948   2.211   4.906   1.034 -0.3407  0.4040 -1.3977
 4511TIP3    H234949   2.064   4.875   1.045 -0.1030 -0.4362 -0.3697
 4512TIP3   OH234950   1.777   2.692  14.772 -0.4980  0.2250  0.2522
 4512TIP3    H134951   1.739   2.672  14.686 -0.9247 -0.1696  0.5355
 4512TIP3    H234952   1.831   2.615  14.792 -1.0765 -0.0538  0.7304
 4513TIP3   OH234953   3.897   2.000  11.319 -0.7753 -0.5595  0.0023
 4513TIP3    H134954   3.822   2.027  11.266  1.1318  1.4223 -1.8958
 4513TIP3    H234955   3.973   2.011  11.261  1.5324  1.8890  3.0695
 4514TIP3   OH234956   1.805   3.596   0.331 -0.8395  0.3282 -0.0299
 4514TIP3    H134957   1.718   3.558   0.320 -1.0585  1.0211 -0.7903
 4514TIP3    H234958   1.827   3.630   0.244 -1.1696  3.0154  0.8435
 4515TIP3   OH234959   0.704   3.782   4.355 -0.0483 -0.5440 -0.5467
 4515TIP3    H134960   0.754   3.795   4.274  2.9441 -1.9202  0.9477
 4515TIP3    H234961   0.725   3.693   4.383 -1.6886 -0.4168  1.3386
 4516TIP3   OH234962   3.405   0.295   2.475  0.4774 -0.2609  0.2480
 4516TIP3    H134963   3.374   0.296   2.566  1.2749 -1.4983  0.5537
 4516TIP3    H234964   3.487   0.344   2.477 -0.0111  0.5987 -0.0270
 4517TIP3   OH234965   3.634   4.278  11.180 -0.3553 -0.0942  0.6227
 4517TIP3    H134966   3.570   4.331  11.134  0.4083  0.5728  0.3025
 4517TIP3    H234967   3.582   4.219  11.234 -1.2360  0.1191  0.0247
 4518TIP3   OH234968   3.335   1.723   1.748 -0.1951  0.5444 -0.1696
 4518TIP3    H134969   3.330   1.768   1.832  1.4672  1.3915 -0.4676
 4518TIP3    H234970   3.422   1.684   1.748  0.3455  1.6314 -1.9737
 4519TIP3   OH234971   0.842   5.611   5.956 -0.1895  0.6443  0.1487
 4519TIP3    H134972   0.854   5.625   6.049  0.2811 -1.2142  0.4113
 4519TIP3    H234973   0.780   5.538   5.950 -1.9874  2.1598 -1.0510
 4520TIP3   OH234974   3.523   5.101   2.297  0.1940 -0.9094  0.4116
 4520TIP3    H134975   3.473   5.182   2.283  0.2503 -1.1607 -1.5285
 4520TIP3    H234976   3.465   5.046   2.350  0.0125  0.2545  1.4616
 4521TIP3   OH234977   4.435   2.075  13.011 -0.1133  0.2474  0.4850
 4521TIP3    H134978   4.460   2.033  13.093  1.2294 -0.0195 -0.0451
 4521TIP3    H234979   4.514   2.119  12.981 -0.1206 -0.9346 -1.4394
 4522TIP3   OH234980   5.176   1.430  15.724  0.3366 -0.2719 -0.2498
 4522TIP3    H134981   5.214   1.448  15.811 -2.6083  0.4233  1.0082
 4522TIP3    H234982   5.248   1.445  15.663  1.8986  1.6644  1.8935
 4523TIP3   OH234983   6.026   3.399  15.725  0.3302  0.6857  0.9837
 4523TIP3    H134984   6.102   3.446  15.691  1.2048 -1.1901  0.2510
 4523TIP3    H234985   6.025   3.316  15.678 -2.5022  0.8315  0.5611
 4524TIP3   OH234986   1.467   3.715  14.500  0.4715  0.2954  0.5474
 4524TIP3    H134987   1.537   3.743  14.440  0.5808  2.1711  1.4622
 4524TIP3    H234988   1.387   3.728  14.450  0.6260  0.8421  0.4256
 4525TIP3   OH234989   0.101   6.020   5.958  0.4532 -0.0183  0.2670
 4525TIP3    H134990   0.126   6.001   6.049  1.3729  0.5552  0.1430
 4525TIP3    H234991   0.092   6.115   5.956  0.6086 -0.0153 -0.2835
 4526TIP3   OH234992   1.239   3.113  15.553 -0.3301 -0.3416 -0.2940
 4526TIP3    H134993   1.275   3.189  15.506 -0.5539 -0.2520 -0.3241
 4526TIP3    H234994   1.265   3.038  15.499 -3.1547 -0.0429 -2.2833
 4527TIP3   OH234995   0.789   4.510  13.474 -0.6916 -0.8276  0.6909
 4527TIP3    H134996   0.705   4.469  13.497 -1.4610  1.0877  1.4999
 4527TIP3    H234997   0.768   4.602  13.459  0.9842 -0.6511 -1.0031
 4528TIP3   OH234998   6.369   4.223  15.096 -0.3477 -0.2197 -0.2072
 4528TIP3    H134999   6.335   4.303  15.056  0.0923  0.2600  0.3714
 4528TIP3    H235000   6.375   4.161  15.023 -3.0598 -0.5653 -0.2457
 4529TIP3   OH235001   5.569   4.691   3.965  0.1277  0.2550 -0.4059
 4529TIP3    H135002   5.607   4.728   4.045 -0.9188  1.1558 -0.3016
 4529TIP3    H235003   5.587   4.757   3.898 -0.4549  0.2723 -0.5479
 4530TIP3   OH235004   5.944   5.086  15.937  0.2759  0.2239  0.2403
 4530TIP3    H135005   5.937   5.124  16.024 -1.7122 -0.1336  0.2642
 4530TIP3    H235006   5.862   5.039  15.924  0.9579 -0.5812 -1.4300
 4531TIP3   OH235007   2.096   2.564  17.194 -0.3821  0.0910  0.3289
 4531TIP3    H135008   2.006   2.576  17.164 -1.1191 -0.8194  2.0602
 4531TIP3    H235009   2.104   2.622  17.270  0.6146  0.4263 -0.0202
 4532TIP3   OH235010   3.657   4.513  14.824  0.3255  0.0315  0.2280
 4532TIP3    H135011   3.621   4.431  14.859  0.0248 -0.1597 -0.5212
 4532TIP3    H235012   3.581   4.558  14.787  0.3531  0.9964  1.2806
 4533TIP3   OH235013   4.135   2.367  14.030  1.0139 -0.5493 -0.4166
 4533TIP3    H135014   4.156   2.424  14.104 -1.2096  1.3744 -1.1442
 4533TIP3    H235015   4.127   2.427  13.955 -1.9428 -1.6595 -1.1224
 4534TIP3   OH235016   5.710   1.563   4.711  0.0269  0.1794  0.0804
 4534TIP3    H135017   5.736   1.632   4.650 -1.9652 -0.4133 -1.5363
 4534TIP3    H235018   5.678   1.610   4.788 -0.7021  1.0584 -0.7353
 4535TIP3   OH235019   2.880   3.519   4.295 -0.1559  0.2909 -0.3732
 4535TIP3    H135020   2.887   3.609   4.264 -0.5131  0.5717  0.3310
 4535TIP3    H235021   2.968   3.482   4.283 -0.1014  0.6187 -0.9986
 4536TIP3   OH235022   2.166   2.945   3.533 -0.2486 -0.1829 -0.1789
 4536TIP3    H135023   2.173   2.892   3.612 -1.3132 -0.1883 -0.0733
 4536TIP3    H235024   2.255   2.951   3.500  0.5023  1.1555  1.8821
 4537TIP3   OH235025   5.917   6.429  12.470 -0.4924  0.7579 -0.4651
 4537TIP3    H135026   5.843   6.427  12.531 -1.0372  0.3734 -1.1206
 4537TIP3    H235027   5.893   6.496  12.406 -0.4795  0.3312 -0.9246
 4538TIP3   OH235028   3.943   2.499   5.817 -0.4807 -0.0590  0.1182
 4538TIP3    H135029   3.960   2.486   5.910  0.7604  1.3896  0.1246
 4538TIP3    H235030   4.007   2.565   5.789  0.1494 -1.4438 -2.0704
 4539TIP3   OH235031   1.357   6.176  14.826 -0.2708  0.5754 -0.2325
 4539TIP3    H135032   1.291   6.243  14.843 -0.1109  0.7393 -0.2553
 4539TIP3    H235033   1.320   6.123  14.755 -1.5079 -0.8904  1.4389
 4540TIP3   OH235034   1.962   2.379   2.130 -0.5176 -0.0670 -0.0767
 4540TIP3    H135035   1.970   2.469   2.099  0.0161  0.1209  0.5766
 4540TIP3    H235036   2.041   2.335   2.099 -0.4688 -0.1374  0.1417
 4541TIP3   OH235037   3.415   6.055   3.751  0.0162  0.2983  0.5995
 4541TIP3    H135038   3.382   5.979   3.704  2.0610 -0.0951 -0.2893
 4541TIP3    H235039   3.417   6.027   3.843  0.5816 -0.6828  0.3034
 4542TIP3   OH235040   6.412   5.181  13.528 -0.8892 -0.3024 -0.4032
 4542TIP3    H135041   6.490   5.173  13.474 -0.6094  0.9214 -0.2051
 4542TIP3    H235042   6.344   5.213  13.469 -0.7044  0.5826 -0.1506
 4543TIP3   OH235043   1.545   4.163   6.695 -0.7269  0.4017  0.5420
 4543TIP3    H135044   1.510   4.074   6.702  0.3186 -0.1450 -0.6988
 4543TIP3    H235045   1.471   4.216   6.665 -0.9526 -0.3787 -0.3290
 4544TIP3   OH235046   2.773   2.102  13.141  0.3312 -0.3029  0.0929
 4544TIP3    H135047   2.745   2.176  13.088 -0.3675 -0.5502  0.1020
 4544TIP3    H235048   2.868   2.112  13.149  0.0428  1.6657  1.7148
 4545TIP3   OH235049   6.192   2.430   6.432  0.0327 -0.3107 -0.0605
 4545TIP3    H135050   6.222   2.520   6.430  0.2835 -0.3782  0.4320
 4545TIP3    H235051   6.269   2.378   6.410  0.2730 -0.4760  1.0928
 4546TIP3   OH235052   2.556   1.353  15.776  0.3400 -0.4643  0.2571
 4546TIP3    H135053   2.609   1.324  15.702  0.3991 -0.5248  0.3238
 4546TIP3    H235054   2.478   1.393  15.736  1.8681  2.5801  0.0336
 4547TIP3   OH235055   4.420   5.783  11.373  0.6142  0.4674 -0.1309
 4547TIP3    H135056   4.329   5.762  11.397  0.3628  1.4074 -0.2299
 4547TIP3    H235057   4.473   5.727  11.431 -0.0164  0.3090  0.3110
 4548TIP3   OH235058   5.884   2.395  16.148 -0.2714 -0.3481  0.3471
 4548TIP3    H135059   5.852   2.335  16.215 -1.4879  1.0226  1.0468
 4548TIP3    H235060   5.818   2.465  16.145  0.3277  0.1939 -1.4893
 4549TIP3   OH235061   1.100   0.776   3.229  0.1922  0.0967 -0.5529
 4549TIP3    H135062   1.084   0.699   3.284  0.7125 -0.4067 -1.0964
 4549TIP3    H235063   1.187   0.806   3.253 -0.4674  1.2770  0.5325
 4550TIP3   OH235064   2.798   4.097  14.834 -0.3546 -0.4468 -0.2695
 4550TIP3    H135065   2.876   4.118  14.886  0.4104 -0.6913 -1.2854
 4550TIP3    H235066   2.740   4.051  14.895 -0.4943  1.3151  0.9924
 4551TIP3   OH235067   4.481   5.244  15.651  0.4890 -0.3219 -0.3690
 4551TIP3    H135068   4.492   5.337  15.671 -0.0419 -0.1426 -0.8769
 4551TIP3    H235069   4.564   5.204  15.675  0.9267  0.3779 -0.6903
 4552TIP3   OH235070   0.632   6.649   1.594  0.1411  0.3139  0.0590
 4552TIP3    H135071   0.679   6.568   1.616  0.9625  0.8694  0.4282
 4552TIP3    H235072   0.553   6.647   1.648 -1.1811 -1.4632 -1.8415
 4553TIP3   OH235073   0.597   3.450   3.136 -0.6851  0.0394  0.2528
 4553TIP3    H135074   0.682   3.494   3.138  0.2629 -1.4531 -1.9596
 4553TIP3    H235075   0.618   3.358   3.156 -1.4979 -0.6214 -1.7017
 4554TIP3   OH235076   2.109   1.818  16.973  0.4065 -0.2112 -0.1297
 4554TIP3    H135077   2.095   1.729  16.941 -0.5466 -0.6888  1.4727
 4554TIP3    H235078   2.157   1.806  17.055 -1.6203  0.5346  1.2561
 4555TIP3   OH235079   2.290   0.555   2.986 -0.6861 -0.0971 -0.1776
 4555TIP3    H135080   2.314   0.531   2.897 -0.6377 -0.0157 -0.1871
 4555TIP3    H235081   2.363   0.526   3.040 -0.3731  0.5265 -0.2594
 4556TIP3   OH235082   6.352   2.918   5.963  0.2039 -0.0813  0.5159
 4556TIP3    H135083   6.302   2.984   5.915 -0.5542 -0.7493  0.3428
 4556TIP3    H235084   6.396   2.867   5.895 -0.3742 -0.6433  0.5543
 4557TIP3   OH235085   1.278   2.354   2.656 -0.1577  0.2174 -0.3645
 4557TIP3    H135086   1.340   2.401   2.711 -0.0382 -1.2682  0.8673
 4557TIP3    H235087   1.271   2.406   2.576  2.1435  0.7766 -0.2704
 4558TIP3   OH235088   2.175   6.284  17.336  0.1779  0.5704 -0.0871
 4558TIP3    H135089   2.204   6.195  17.354 -2.4311 -0.5762 -1.0243
 4558TIP3    H235090   2.134   6.279  17.249  0.3344  2.7989 -0.3534
 4559TIP3   OH235091   6.451   1.759   3.257 -0.4331  0.1774  0.0829
 4559TIP3    H135092   6.461   1.755   3.352  1.4929  0.1256 -0.0754
 4559TIP3    H235093   6.463   1.851   3.236  1.0292 -0.0567 -0.2377
 4560TIP3   OH235094   0.736   1.191   3.050  0.0562 -0.0361  0.5359
 4560TIP3    H135095   0.699   1.278   3.066  1.2242  0.3355  1.3777
 4560TIP3    H235096   0.663   1.131   3.064 -1.3955  0.8911 -2.3575
 4561TIP3   OH235097   4.500   2.285  15.307 -0.0066 -0.7112  0.3040
 4561TIP3    H135098   4.408   2.265  15.323 -0.1994  0.9077  1.4373
 4561TIP3    H235099   4.520   2.240  15.225 -1.8147 -1.0495  0.0018
 4562TIP3   OH235100   1.448   4.186   2.187 -0.0288  0.3627 -0.3873
 4562TIP3    H135101   1.460   4.157   2.097 -2.0188 -0.4280 -0.4397
 4562TIP3    H235102   1.504   4.128   2.239  2.2151  1.7036 -1.1602
 4563TIP3   OH235103   6.235   1.165   4.038 -0.3720  0.4333  0.3805
 4563TIP3    H135104   6.233   1.071   4.021  1.2877  0.4826 -0.2254
 4563TIP3    H235105   6.179   1.176   4.116 -0.9862 -0.9658  0.1723
 4564TIP3   OH235106   0.500   2.217   0.957  0.4056  0.3534 -0.4192
 4564TIP3    H135107   0.405   2.217   0.949  0.2498 -0.0905  1.1030
 4564TIP3    H235108   0.516   2.204   1.050  1.9630 -2.4051 -0.9480
 4565TIP3   OH235109   4.067   3.555  16.551 -0.1099  0.2001 -0.5032
 4565TIP3    H135110   4.088   3.512  16.468  0.1248  0.9270 -0.8257
 4565TIP3    H235111   4.142   3.611  16.569  0.3059 -0.7014  0.7262
 4566TIP3   OH235112   1.824   3.166   4.091  0.0765 -0.0217  0.0842
 4566TIP3    H135113   1.792   3.105   4.024  1.3524 -0.6469  0.0212
 4566TIP3    H235114   1.773   3.145   4.169  0.2551 -0.9302 -0.0393
 4567TIP3   OH235115   0.612   1.612  15.190  0.2033  0.6730  0.3326
 4567TIP3    H135116   0.693   1.597  15.240 -0.9147 -0.2058  2.0111
 4567TIP3    H235117   0.624   1.562  15.109  0.0166 -2.5332  2.0979
 4568TIP3   OH235118   5.873   6.201   5.652  0.1552  0.1911 -0.3464
 4568TIP3    H135119   5.868   6.108   5.675  1.3228 -0.3911 -2.1793
 4568TIP3    H235120   5.825   6.207   5.570  2.0523  0.7002 -1.4699
 4569TIP3   OH235121   1.015   2.865  14.395 -0.2291 -0.4225  0.2095
 4569TIP3    H135122   1.111   2.869  14.397 -0.1862 -0.7435 -0.5654
 4569TIP3    H235123   0.989   2.941  14.344 -0.3886 -0.3462  0.4045
 4570TIP3   OH235124   2.436   0.130   6.740  0.6785  0.0814  0.3894
 4570TIP3    H135125   2.528   0.138   6.764  0.2076 -0.5787  2.6491
 4570TIP3    H235126   2.438   0.102   6.648  2.6473  1.8983 -0.1937
 4571TIP3   OH235127   4.119   6.486   6.290  0.4404  0.6137  0.4476
 4571TIP3    H135128   4.173   6.415   6.256  0.3502 -0.0766  1.6831
 4571TIP3    H235129   4.040   6.443   6.323 -0.8399  1.5835 -1.1538
 4572TIP3   OH235130   1.404   2.297   1.222 -0.2204  0.3328 -0.2142
 4572TIP3    H135131   1.354   2.217   1.204 -0.5234  0.8157 -1.6892
 4572TIP3    H235132   1.340   2.357   1.261 -0.3005  0.2653 -0.2408
 4573TIP3   OH235133   0.138   4.028  13.515 -0.3489 -0.0796 -0.5104
 4573TIP3    H135134   0.225   4.001  13.544 -0.5805 -2.6936 -1.9119
 4573TIP3    H235135   0.154   4.108  13.465  0.7994  1.1092  1.5995
 4574TIP3   OH235136   4.280   3.758   0.636  0.0839 -0.0878 -0.3361
 4574TIP3    H135137   4.223   3.829   0.666  0.7471  0.4143 -0.2441
 4574TIP3    H235138   4.354   3.760   0.697 -0.3653 -1.5147  0.2929
 4575TIP3   OH235139   5.865   4.687   1.724  0.2655  0.0503  0.0680
 4575TIP3    H135140   5.942   4.656   1.674 -0.2037 -0.2579 -0.4849
 4575TIP3    H235141   5.792   4.674   1.663 -0.2034  0.4645  0.5462
 4576TIP3   OH235142   6.727   2.698  12.083  0.5756 -0.5117  0.0348
 4576TIP3    H135143   6.782   2.622  12.097  1.4623  0.4136  1.9588
 4576TIP3    H235144   6.643   2.675  12.122 -0.0688 -1.4514 -1.7864
 4577TIP3   OH235145   4.828   6.533  12.271 -0.3230  0.0333 -0.4440
 4577TIP3    H135146   4.821   6.462  12.206  1.0523  0.1640 -0.7744
 4577TIP3    H235147   4.862   6.489  12.349  0.2850  0.2663 -0.5698
 4578TIP3   OH235148   4.968   4.349   2.854  0.2034 -0.1457  0.3954
 4578TIP3    H135149   5.015   4.393   2.925 -0.8873 -0.0086  1.0554
 4578TIP3    H235150   4.966   4.413   2.783  2.1942 -0.6510 -0.1657
 4579TIP3   OH235151   2.863   2.692  15.837  0.1718 -0.4531 -0.3941
 4579TIP3    H135152   2.828   2.630  15.901 -1.1031  0.7211  0.1153
 4579TIP3    H235153   2.830   2.662  15.753  1.3495 -1.6638 -0.4422
 4580TIP3   OH235154   3.725   1.946   4.345 -0.2257 -0.5026  0.2212
 4580TIP3    H135155   3.633   1.959   4.368 -0.5584  0.0250 -1.3285
 4580TIP3    H235156   3.768   2.027   4.370 -0.4610 -0.1832 -0.4029
 4581TIP3   OH235157   4.721   4.571  15.825 -0.3513 -0.5332 -0.4229
 4581TIP3    H135158   4.734   4.477  15.834 -1.1412 -0.7723 -1.6017
 4581TIP3    H235159   4.774   4.596  15.750  0.0164  0.0138  0.0059
 4582TIP3   OH235160   0.419   1.568  14.787 -0.2788 -0.4080 -0.5152
 4582TIP3    H135161   0.377   1.519  14.716  0.0239  1.7904 -2.3236
 4582TIP3    H235162   0.351   1.628  14.817  0.0921 -0.2136 -0.0691
 4583TIP3   OH235163   2.549   0.541  15.818 -0.1032 -0.7115  0.2946
 4583TIP3    H135164   2.476   0.490  15.783 -0.5577 -0.5513  0.9880
 4583TIP3    H235165   2.534   0.543  15.913  0.8782 -0.7884  0.4571
 4584TIP3   OH235166   1.728   5.742  13.325  0.1555 -0.0938  0.0887
 4584TIP3    H135167   1.637   5.717  13.336  0.2847 -0.7758 -0.3416
 4584TIP3    H235168   1.740   5.815  13.386 -0.7540  0.2051 -0.0723
 4585TIP3   OH235169   2.590   3.979  15.275  0.4641 -0.0920  0.1496
 4585TIP3    H135170   2.591   4.013  15.186 -1.2915  0.2250  0.2150
 4585TIP3    H235171   2.623   4.051  15.329  1.8247 -0.3930 -0.2495
 4586TIP3   OH235172   4.397   2.902   3.944 -0.0780 -0.2139  0.3549
 4586TIP3    H135173   4.400   2.895   4.040 -1.4259 -1.4154  0.3359
 4586TIP3    H235174   4.455   2.832   3.914 -0.2506 -0.3212  0.2759
 4587TIP3   OH235175   0.200   3.169  15.141  0.0446  0.0560  0.0151
 4587TIP3    H135176   0.212   3.218  15.222 -0.4822 -1.0057  0.7576
 4587TIP3    H235177   0.289   3.151  15.110  0.2450  0.7905  0.1476
 4588TIP3   OH235178   1.076   1.614   6.611 -0.1820 -0.1855 -0.3805
 4588TIP3    H135179   0.995   1.596   6.659  1.4566  0.3478  2.8562
 4588TIP3    H235180   1.116   1.688   6.658  2.1760 -0.4281 -1.8499
 4589TIP3   OH235181   6.356   3.910  13.447 -0.1952  0.3160 -0.0238
 4589TIP3    H135182   6.427   3.866  13.492 -0.2529  1.4219  1.1953
 4589TIP3    H235183   6.294   3.839  13.426  0.4933 -0.4178  0.3507
 4590TIP3   OH235184   3.142   2.452  13.888 -0.2084 -0.1839 -0.2023
 4590TIP3    H135185   3.174   2.541  13.903  0.0852 -0.6044  2.0256
 4590TIP3    H235186   3.076   2.462  13.820  0.6305  1.5526 -0.8259
 4591TIP3   OH235187   1.503   5.835   1.829 -0.1062  0.7428  0.2053
 4591TIP3    H135188   1.503   5.930   1.820 -1.2914  0.8693  1.2740
 4591TIP3    H235189   1.417   5.814   1.865  0.5301 -0.6404  1.0134
 4592TIP3   OH235190   3.894   5.137  12.892  0.5962  0.1560 -0.3900
 4592TIP3    H135191   3.868   5.220  12.933  0.9629 -0.3230  0.8799
 4592TIP3    H235192   3.970   5.159  12.838 -0.2442  0.9110 -1.2966
 4593TIP3   OH235193   6.280   6.739   5.728  1.1016  0.0203 -0.1688
 4593TIP3    H135194   6.190   6.711   5.713  1.4310 -0.8553 -0.6207
 4593TIP3    H235195   6.332   6.685   5.668  1.8949  0.7560 -0.1709
 4594TIP3   OH235196   0.204   3.532   3.155 -0.3904 -0.0428  0.1118
 4594TIP3    H135197   0.215   3.441   3.182 -1.0058 -0.0553  0.3401
 4594TIP3    H235198   0.142   3.527   3.082 -0.6268  0.2171  0.2944
 4595TIP3   OH235199   0.817   6.455   1.668 -0.0325  0.2248  0.4030
 4595TIP3    H135200   0.897   6.507   1.658 -0.5205  1.3357  1.8935
 4595TIP3    H235201   0.842   6.382   1.724 -0.3431  1.3487  2.0661
 4596TIP3   OH235202   2.009   3.490   5.726  0.0020 -0.1181  0.7663
 4596TIP3    H135203   2.065   3.479   5.649  1.6787  3.2564  1.3492
 4596TIP3    H235204   2.023   3.410   5.776  3.3174 -0.0498  0.1982
 4597TIP3   OH235205   0.225   0.901   2.455  0.5961 -0.5045  0.3661
 4597TIP3    H135206   0.321   0.898   2.461  0.6563 -0.5144 -0.4542
 4597TIP3    H235207   0.205   0.848   2.378 -0.1236 -1.1244  0.9693
 4598TIP3   OH235208   5.590   6.718  14.796  0.0303 -0.5086  0.4744
 4598TIP3    H135209   5.659   6.773  14.758  1.8961 -3.4534 -0.7875
 4598TIP3    H235210   5.574   6.756  14.882  3.3277  0.3435  0.8667
 4599TIP3   OH235211   2.441   1.087   3.749 -0.1320 -0.4092 -0.7653
 4599TIP3    H135212   2.417   1.175   3.778  2.9003  0.4831 -0.5887
 4599TIP3    H235213   2.414   1.030   3.821 -1.3007  0.4742 -0.4630
 4600TIP3   OH235214   4.697   5.371  16.254 -0.5741 -0.1048  0.5781
 4600TIP3    H135215   4.769   5.405  16.201 -1.2577  1.2431  0.4732
 4600TIP3    H235216   4.731   5.370  16.343  0.0471 -0.8351  0.3316
 4601TIP3   OH235217   1.094   0.021  10.778  0.0724 -0.4644 -0.1129
 4601TIP3    H135218   1.064  -0.043  10.715  0.3721 -1.3770  0.6478
 4601TIP3    H235219   1.022   0.084  10.785 -0.7788 -1.4271  0.0802
 4602TIP3   OH235220   0.490   1.711  14.073 -0.0892 -0.1368  0.0479
 4602TIP3    H135221   0.542   1.676  14.001  0.1205  0.9531 -0.3521
 4602TIP3    H235222   0.414   1.751  14.030  1.0627  2.3778  0.2033
 4603TIP3   OH235223   4.122   0.732   2.868  0.5179 -0.6616  0.6597
 4603TIP3    H135224   4.063   0.709   2.940 -1.5983  0.2340 -0.6701
 4603TIP3    H235225   4.096   0.675   2.796  1.7164 -0.6675  0.2094
 4604TIP3   OH235226   1.325   3.267   3.121 -0.9135 -0.8024  0.7633
 4604TIP3    H135227   1.273   3.341   3.089 -2.5325 -1.5862  1.4804
 4604TIP3    H235228   1.408   3.306   3.146 -1.5492  0.6998  0.6479
 4605TIP3   OH235229   6.412   6.644   3.350 -0.0937  0.0955  0.0480
 4605TIP3    H135230   6.387   6.575   3.289 -0.8885 -0.2293  0.7211
 4605TIP3    H235231   6.332   6.696   3.361 -0.3579 -0.5988  1.7735
 4606TIP3   OH235232   1.668   0.464  12.415  0.4390  0.5780  0.3354
 4606TIP3    H135233   1.698   0.530  12.477  0.0992 -0.4006  1.6030
 4606TIP3    H235234   1.593   0.503  12.371 -0.9079  0.4294  2.3711
 4607TIP3   OH235235   1.110   0.843  16.759 -0.3740 -0.0753 -0.5168
 4607TIP3    H135236   1.032   0.820  16.809  0.2670 -3.3533 -0.7445
 4607TIP3    H235237   1.175   0.868  16.825 -1.4614  2.3903 -0.3124
 4608TIP3   OH235238   1.831   4.148   1.954 -0.4147  0.0982  0.1730
 4608TIP3    H135239   1.784   4.114   2.029 -2.0540 -0.1879 -0.9326
 4608TIP3    H235240   1.792   4.234   1.938 -0.8898 -0.3233 -1.0194
 4609TIP3   OH235241   3.886   6.455   5.713  0.4371 -0.4435 -0.6985
 4609TIP3    H135242   3.865   6.531   5.659  1.9024 -0.5029 -1.3972
 4609TIP3    H235243   3.884   6.487   5.803 -0.3229  0.0737 -0.8923
 4610TIP3   OH235244   0.483   1.902  13.699  0.6499  0.2757 -0.1620
 4610TIP3    H135245   0.529   1.851  13.766 -1.5745  0.8367  1.9315
 4610TIP3    H235246   0.393   1.870  13.702 -0.2433  2.5639 -0.5562
 4611TIP3   OH235247   0.525   4.614  13.247  0.0040 -0.4946 -0.8362
 4611TIP3    H135248   0.605   4.595  13.199  0.0085  0.4607 -1.2326
 4611TIP3    H235249   0.454   4.590  13.186 -0.0028 -0.6654 -0.7608
 4612TIP3   OH235250   0.119   5.088  14.923  0.1609  0.1911  0.4476
 4612TIP3    H135251   0.079   5.175  14.913  1.6362  0.9211  0.5903
 4612TIP3    H235252   0.126   5.054  14.834 -0.6586  0.0978  0.4136
 4613TIP3   OH235253   6.427   6.676  14.068 -0.7486 -0.9356 -0.5046
 4613TIP3    H135254   6.443   6.743  14.133  0.8536 -1.4325 -0.3501
 4613TIP3    H235255   6.339   6.644  14.087 -0.4312 -0.8482  1.2267
 4614TIP3   OH235256   0.233   0.332   3.454  0.6007 -0.4183 -0.5793
 4614TIP3    H135257   0.178   0.402   3.421  0.4328  0.6991  1.8489
 4614TIP3    H235258   0.192   0.252   3.421 -1.2186  0.4830 -0.6554
 4615TIP3   OH235259   6.574   5.085   3.183 -0.4900  0.0540  0.3099
 4615TIP3    H135260   6.590   4.998   3.219  0.0088  0.0965  0.1933
 4615TIP3    H235261   6.660   5.116   3.155 -0.8903 -0.0410 -1.0654
 4616TIP3   OH235262   5.946   2.473  11.914  0.6453 -0.1211  0.1500
 4616TIP3    H135263   5.868   2.432  11.951  0.6354 -1.7313 -1.4827
 4616TIP3    H235264   5.984   2.405  11.858  2.1926  1.2487 -0.5439
 4617TIP3   OH235265   2.471   2.549   3.028 -0.0739 -0.0327 -0.5145
 4617TIP3    H135266   2.387   2.529   3.069  0.2416  0.3304  0.3315
 4617TIP3    H235267   2.449   2.572   2.938 -0.4814 -4.4131 -1.7877
 4618TIP3   OH235268   1.355   4.442   2.039  0.2697  0.0291 -0.3109
 4618TIP3    H135269   1.375   4.520   2.092  0.8191  0.8614 -1.6856
 4618TIP3    H235270   1.401   4.371   2.084 -0.7906  0.3465  1.3446
 4619TIP3   OH235271   4.266   3.847   3.264 -0.0348 -0.0578 -0.8231
 4619TIP3    H135272   4.225   3.919   3.311  1.2867  1.2664 -1.6101
 4619TIP3    H235273   4.222   3.845   3.179 -1.0161 -1.1139 -0.3153
 4620TIP3   OH235274   1.180   1.408  12.001  0.2754 -0.3120  0.1665
 4620TIP3    H135275   1.187   1.467  11.927 -2.8158 -0.3752 -0.3230
 4620TIP3    H235276   1.120   1.451  12.061 -2.1618 -2.8403 -0.2339
 4621TIP3   OH235277   2.460   4.465   1.838  0.0874  0.8719 -0.1810
 4621TIP3    H135278   2.388   4.511   1.880 -0.5660  0.1602 -0.4916
 4621TIP3    H235279   2.523   4.450   1.908 -0.6681  0.3303  0.3998
 4622TIP3   OH235280   5.571   3.851  16.967  0.8116 -0.1602 -0.2765
 4622TIP3    H135281   5.483   3.817  16.982  0.5923  0.9363  1.1573
 4622TIP3    H235282   5.558   3.943  16.942  1.5543  0.1561  0.4387
 4623TIP3   OH235283   5.765   4.061   0.805 -0.4313  0.3162  0.2928
 4623TIP3    H135284   5.695   4.040   0.867  0.4165 -1.0814  0.8025
 4623TIP3    H235285   5.834   4.100   0.858 -1.1368  2.6187 -0.3445
 4624TIP3   OH235286   5.188   4.610   2.085 -0.5059 -0.0472 -0.4263
 4624TIP3    H135287   5.240   4.654   2.152 -0.8821 -0.0972 -0.0980
 4624TIP3    H235288   5.131   4.678   2.049 -2.4074 -0.5879  1.3512
 4625TIP3   OH235289   6.081   1.707   2.495 -0.0122 -0.1990 -0.4054
 4625TIP3    H135290   6.070   1.612   2.490  4.8511 -1.0334 -0.0843
 4625TIP3    H235291   6.106   1.723   2.586  1.9984  0.8483 -1.0760
 4626TIP3   OH235292   4.481   1.704   6.144  0.5435  0.1538  0.0713
 4626TIP3    H135293   4.486   1.742   6.056  1.4692 -0.3691 -0.1088
 4626TIP3    H235294   4.483   1.780   6.203 -0.1639  0.5143 -0.3467
 4627TIP3   OH235295   5.804   1.780   2.540 -0.0546  0.4964 -0.2900
 4627TIP3    H135296   5.893   1.747   2.529  0.1249  0.6352  0.6549
 4627TIP3    H235297   5.757   1.751   2.461  0.1200 -1.9324  0.4398
 4628TIP3   OH235298   4.321   0.680   4.762  0.7034  0.1123 -0.4570
 4628TIP3    H135299   4.352   0.701   4.674  1.0885 -0.3379 -0.4307
 4628TIP3    H235300   4.397   0.642   4.806  0.0795 -1.1614 -0.4461
 4629TIP3   OH235301   0.485   3.855   5.401 -0.9332  0.5532 -0.0092
 4629TIP3    H135302   0.485   3.926   5.465 -0.6622  1.1385 -0.6348
 4629TIP3    H235303   0.509   3.898   5.319  1.3354 -0.5961 -0.0336
 4630TIP3   OH235304   2.082   0.190  17.315  0.3909 -0.1162  0.7115
 4630TIP3    H135305   2.080   0.262  17.253  0.8162  0.2663  1.1396
 4630TIP3    H235306   2.046   0.226  17.396  0.2398 -0.4896  0.8157
 4631TIP3   OH235307   2.702   2.534   2.252 -0.3980  0.4774  0.9441
 4631TIP3    H135308   2.767   2.552   2.321  1.0164 -2.3842  0.5082
 4631TIP3    H235309   2.693   2.617   2.205  1.1118  1.6025  2.5144
 4632TIP3   OH235310   1.611   5.812   4.890  0.8920  0.4362  0.5804
 4632TIP3    H135311   1.598   5.753   4.815  3.5071  2.2898 -1.5462
 4632TIP3    H235312   1.660   5.760   4.954  0.0391 -0.7084  0.3342
 4633TIP3   OH235313   0.751   5.893   5.275  0.6802 -0.6920 -0.2662
 4633TIP3    H135314   0.667   5.848   5.278  0.6058 -0.6664 -1.4453
 4633TIP3    H235315   0.799   5.861   5.352 -0.4652 -0.5491  0.5396
 4634TIP3   OH235316   5.998   4.866   6.201  0.5219 -0.1723  0.5171
 4634TIP3    H135317   6.004   4.799   6.133 -1.0076 -0.8850  1.0291
 4634TIP3    H235318   5.942   4.827   6.268 -1.1000  1.8729  0.4828
 4635TIP3   OH235319   1.618   5.043  13.888  0.3196 -0.1072 -0.5377
 4635TIP3    H135320   1.565   5.026  13.810 -0.5820  0.9779 -0.2050
 4635TIP3    H235321   1.708   5.035  13.858  0.0308  1.4554 -2.0207
 4636TIP3   OH235322   1.235   5.069   5.486 -0.4085  0.1841  0.4339
 4636TIP3    H135323   1.315   5.067   5.537  0.6968 -0.7629 -1.2440
 4636TIP3    H235324   1.214   5.162   5.479 -0.1746  0.3745  1.9059
 4637TIP3   OH235325   5.926   5.708   4.004  0.0994 -0.3300 -0.0084
 4637TIP3    H135326   5.900   5.749   4.087  0.2210  0.7592 -0.4965
 4637TIP3    H235327   6.018   5.730   3.994  0.7638 -2.4616  0.7039
 4638TIP3   OH235328   3.443   3.688  10.946 -0.2541  0.3947 -0.6000
 4638TIP3    H135329   3.363   3.639  10.928  0.1040 -0.2783 -0.4065
 4638TIP3    H235330   3.427   3.730  11.031  0.6033 -2.0287  0.8723
 4639TIP3   OH235331   1.323   0.542   5.919  0.3347 -0.1503 -0.8229
 4639TIP3    H135332   1.235   0.581   5.918  1.3436  2.2903 -0.6747
 4639TIP3    H235333   1.351   0.545   5.827  0.6574  0.0236 -0.7181
 4640TIP3   OH235334   0.252   2.123   4.690  0.5434  0.6757 -0.2527
 4640TIP3    H135335   0.293   2.209   4.694 -0.5610  1.1933  0.3945
 4640TIP3    H235336   0.214   2.110   4.777 -0.2249 -0.0067 -0.6760
 4641TIP3   OH235337   0.796   1.325  12.844  0.2142  0.1752 -0.0524
 4641TIP3    H135338   0.811   1.418  12.858  1.0734  0.5246 -2.7217
 4641TIP3    H235339   0.846   1.282  12.914  0.2914  1.6773  0.8672
 4642TIP3   OH235340   1.366   0.273  15.922  0.3852  0.2968 -0.2995
 4642TIP3    H135341   1.404   0.186  15.922 -1.0372 -0.3989 -2.1244
 4642TIP3    H235342   1.279   0.262  15.961  0.4427  1.0412  0.0716
 4643TIP3   OH235343   5.739   1.276  10.916  0.5448  0.3452  0.1087
 4643TIP3    H135344   5.733   1.274  10.820  1.8905  1.3252 -0.0232
 4643TIP3    H235345   5.724   1.368  10.939  0.5345  0.1704  0.8272
 4644TIP3   OH235346   4.592   3.582   4.633 -0.0342 -0.4242 -0.3642
 4644TIP3    H135347   4.681   3.616   4.617 -0.1379 -0.2061 -0.4927
 4644TIP3    H235348   4.604   3.513   4.697 -0.0371  1.2964  1.6179
 4645TIP3   OH235349   2.088   4.305  12.638 -1.0253 -0.0024  0.3393
 4645TIP3    H135350   2.172   4.261  12.622 -0.0633  2.3714 -1.9273
 4645TIP3    H235351   2.022   4.242  12.609 -0.1186 -1.9042  2.1306
 4646TIP3   OH235352   1.752   2.634  16.244  0.4232  0.7750 -0.6782
 4646TIP3    H135353   1.799   2.684  16.310 -0.8412 -0.0954  0.9858
 4646TIP3    H235354   1.803   2.554  16.234 -1.1128 -0.7269  2.0325
 4647TIP3   OH235355   0.396   4.305  11.692  0.3427  0.1638  0.0835
 4647TIP3    H135356   0.441   4.241  11.638  0.1827  0.1923 -0.0807
 4647TIP3    H235357   0.467   4.359  11.729  0.5982 -1.0276  1.4165
 4648TIP3   OH235358   3.467   6.292   4.662  0.2287 -0.4913 -0.2556
 4648TIP3    H135359   3.537   6.236   4.629  0.7148  0.0202 -0.1053
 4648TIP3    H235360   3.438   6.343   4.586  0.7580  0.0655 -0.0917
 4649TIP3   OH235361   0.588   2.143  14.636  0.9247 -0.3949  0.4794
 4649TIP3    H135362   0.647   2.211  14.602 -1.2478  0.6547 -1.5392
 4649TIP3    H235363   0.546   2.184  14.712  1.3878 -0.4190  0.7506
 4650TIP3   OH235364   1.512   5.222   2.539 -0.4647 -0.3153 -0.5205
 4650TIP3    H135365   1.468   5.305   2.519 -1.9554 -0.9231  0.1379
 4650TIP3    H235366   1.606   5.244   2.536 -0.8229  1.5444  0.2409
 4651TIP3   OH235367   0.041   1.208   1.238 -0.3067  0.0794  0.1338
 4651TIP3    H135368   0.063   1.299   1.259  0.9460 -0.2519  0.3626
 4651TIP3    H235369   0.126   1.166   1.221 -0.8669 -1.0330 -0.0283
 4652TIP3   OH235370   2.866   5.957   0.327  0.8455 -0.3015  0.2191
 4652TIP3    H135371   2.960   5.943   0.312  0.6737 -1.7272  0.3800
 4652TIP3    H235372   2.824   5.927   0.247  0.5597  1.3831 -0.3150
 4653TIP3   OH235373   3.457   1.714  15.633 -0.9171  1.1701 -0.3200
 4653TIP3    H135374   3.376   1.713  15.582 -0.3054 -0.4962 -1.3684
 4653TIP3    H235375   3.429   1.731  15.723 -2.5908 -0.5039 -0.4584
 4654TIP3   OH235376   2.206   2.396  11.865 -0.6208 -0.3771  0.1467
 4654TIP3    H135377   2.278   2.399  11.802 -1.1121 -1.1332 -0.4707
 4654TIP3    H235378   2.186   2.488  11.884  0.0411 -0.1562 -0.1998
 4655TIP3   OH235379   3.923   0.674   0.700 -0.0294  0.2059 -0.3233
 4655TIP3    H135380   3.956   0.735   0.634 -1.5752  0.7600 -0.6467
 4655TIP3    H235381   3.901   0.595   0.651 -0.2151  0.2443 -0.3036
 4656TIP3   OH235382   0.029   3.049   4.206 -0.7194 -0.5941 -0.0355
 4656TIP3    H135383   0.057   2.970   4.251  0.2382 -0.0420  0.3764
 4656TIP3    H235384  -0.024   3.018   4.132 -1.0775 -1.5666  0.6139
 4657TIP3   OH235385   0.286   4.028  13.815 -0.1942 -0.0118  0.8252
 4657TIP3    H135386   0.216   4.080  13.854 -0.2902 -1.3730  2.6290
 4657TIP3    H235387   0.366   4.061  13.857  0.0298  0.3253  0.1364
 4658TIP3   OH235388   4.417   1.530  16.956 -0.2603  0.2102 -0.5860
 4658TIP3    H135389   4.482   1.595  16.981 -0.4916  0.0994  0.3314
 4658TIP3    H235390   4.384   1.495  17.039  0.5949 -1.8316 -1.0530
 4659TIP3   OH235391   4.177   1.046   3.231 -0.3535  0.0615  0.4307
 4659TIP3    H135392   4.224   1.065   3.312  0.3065  0.8166 -0.1216
 4659TIP3    H235393   4.128   0.966   3.250  1.3261 -0.8936  0.9481
 4660TIP3   OH235394   3.720   5.929  16.140 -0.6699 -0.2553  0.1228
 4660TIP3    H135395   3.756   6.018  16.135  0.4433 -0.7470 -1.6863
 4660TIP3    H235396   3.631   5.938  16.104 -0.0446 -0.0708 -1.4870
 4661TIP3   OH235397   2.538   4.443  15.113 -0.2558  0.5126 -0.2219
 4661TIP3    H135398   2.567   4.370  15.168 -1.5869 -0.4001 -0.6808
 4661TIP3    H235399   2.610   4.459  15.053  0.2778 -0.0465  0.2630
 4662TIP3   OH235400   0.010   6.674  16.428  0.3148 -0.3605 -0.2907
 4662TIP3    H135401   0.040   6.636  16.510 -1.2595 -0.8640  0.0927
 4662TIP3    H235402  -0.074   6.630  16.410 -0.9827  1.9974 -0.4609
 4663TIP3   OH235403   3.651   5.344  15.800  0.2945  0.5933  0.5248
 4663TIP3    H135404   3.710   5.269  15.802  0.5932  0.7942 -0.3955
 4663TIP3    H235405   3.564   5.306  15.792  0.4994  0.3489 -0.6732
 4664TIP3   OH235406   1.889   4.862   1.994 -0.1144  0.2701 -0.1569
 4664TIP3    H135407   1.905   4.939   2.049 -0.3312 -0.4746  0.9953
 4664TIP3    H235408   1.904   4.893   1.905  2.4890  0.9856  0.4189
 4665TIP3   OH235409   1.553   0.374  10.568  0.1234 -0.3283 -0.2755
 4665TIP3    H135410   1.635   0.416  10.596 -0.2437  0.3670 -0.2083
 4665TIP3    H235411   1.537   0.409  10.480 -0.2800 -0.1808 -0.1470
 4666TIP3   OH235412   6.449   1.351  12.139 -0.5574  0.1378  0.1596
 4666TIP3    H135413   6.476   1.440  12.162  0.0643 -0.3152  1.2497
 4666TIP3    H235414   6.429   1.310  12.223 -0.8318 -0.7586 -0.3332
 4667TIP3   OH235415   1.218   4.216   5.844 -0.2441  0.0635  0.0576
 4667TIP3    H135416   1.301   4.262   5.854 -1.2249  2.2951 -1.3528
 4667TIP3    H235417   1.189   4.199   5.934  1.9781 -1.3470  0.5730
 4668TIP3   OH235418   5.579   5.536   4.478  0.1933 -0.0648  0.0289
 4668TIP3    H135419   5.550   5.593   4.549 -1.2918  0.9475 -1.3113
 4668TIP3    H235420   5.660   5.497   4.510 -0.1708  0.7327  2.0583
 4669TIP3   OH235421   6.677   6.022   5.164 -0.0387 -0.2814 -0.1878
 4669TIP3    H135422   6.583   6.042   5.168  0.0360 -0.0503  0.6262
 4669TIP3    H235423   6.719   6.107   5.155  0.2150 -0.1006  2.0599
 4670TIP3   OH235424   1.523   0.581   5.412  0.7041 -0.7826 -0.2538
 4670TIP3    H135425   1.486   0.550   5.329 -1.9847 -0.9559  0.9156
 4670TIP3    H235426   1.537   0.674   5.398 -1.6927 -0.3727 -0.3214
 4671TIP3   OH235427   6.436   1.792  17.258  0.4616 -0.3395 -0.4775
 4671TIP3    H135428   6.366   1.765  17.199 -1.2321 -1.6490  1.9504
 4671TIP3    H235429   6.495   1.717  17.262  0.8824 -0.0381 -0.9066
 4672TIP3   OH235430   0.770   5.686   4.805 -0.5350 -0.0432  0.4913
 4672TIP3    H135431   0.844   5.718   4.856  1.4275  0.0776 -2.2091
 4672TIP3    H235432   0.806   5.615   4.752 -1.7615  1.3034 -2.3523
 4673TIP3   OH235433   1.305   0.697  13.642 -0.3830 -0.1951  0.0041
 4673TIP3    H135434   1.380   0.739  13.600 -0.0687  0.1997  0.9428
 4673TIP3    H235435   1.233   0.711  13.580  0.3535 -0.8042 -1.0265
 4674TIP3   OH235436   2.195   2.516  11.555 -0.1001 -0.0208  0.3627
 4674TIP3    H135437   2.154   2.445  11.505  1.4964  0.0178 -1.1227
 4674TIP3    H235438   2.124   2.553  11.607 -1.5813 -0.9664 -0.8771
 4675TIP3   OH235439   4.417   4.748   5.190  0.1265 -0.4757  0.0077
 4675TIP3    H135440   4.395   4.769   5.280 -2.0289 -1.7356 -0.1693
 4675TIP3    H235441   4.386   4.822   5.139  2.3790  0.7791  0.3314
 4676TIP3   OH235442   2.283   5.252  17.092  0.4981 -0.6730  0.4970
 4676TIP3    H135443   2.308   5.343  17.107 -0.7972  0.1459 -1.8366
 4676TIP3    H235444   2.367   5.206  17.081  1.1553  0.6483 -0.3134
 4677TIP3   OH235445   0.367   4.153  17.000  0.3114 -0.6011  0.5535
 4677TIP3    H135446   0.450   4.165  16.955  0.5797 -1.4157  0.8184
 4677TIP3    H235447   0.320   4.088  16.948  0.9433 -2.1427  1.8374
 4678TIP3   OH235448   2.163   6.123  10.806  0.1326 -0.3329  0.0289
 4678TIP3    H135449   2.104   6.152  10.737 -1.1782 -0.4376  1.0733
 4678TIP3    H235450   2.245   6.170  10.789 -0.9102  1.4870 -0.2073
 4679TIP3   OH235451   5.243   0.151  15.916  0.1137 -0.1035 -0.5120
 4679TIP3    H135452   5.278   0.237  15.892 -0.7684  0.2147 -0.6936
 4679TIP3    H235453   5.291   0.127  15.996  1.9345 -0.4507 -1.6527
 4680TIP3   OH235454   3.201   5.926  13.459  0.3925 -0.3966  0.0841
 4680TIP3    H135455   3.209   5.972  13.375 -1.1598 -0.0730  0.0831
 4680TIP3    H235456   3.269   5.965  13.514  1.1477 -0.3129 -0.8843
 4681TIP3   OH235457   4.524   6.501   0.245  0.1508 -0.6375  0.5443
 4681TIP3    H135458   4.476   6.421   0.222 -0.6946 -0.1102  0.4505
 4681TIP3    H235459   4.542   6.543   0.160 -1.0694  0.2208  0.6969
 4682TIP3   OH235460   2.955   3.917  15.601  0.1441  0.1743  0.5404
 4682TIP3    H135461   2.908   3.848  15.553 -0.3913  0.5814  0.4750
 4682TIP3    H235462   2.887   3.978  15.629  0.7936  1.8772 -1.3205
 4683TIP3   OH235463   1.229   5.064   4.197  0.0903 -0.7502 -0.0846
 4683TIP3    H135464   1.223   4.969   4.191 -0.9808 -0.7384  0.5834
 4683TIP3    H235465   1.169   5.096   4.129 -0.2977 -0.5575  0.3495
 4684TIP3   OH235466   4.950   4.130  12.280 -0.1614 -0.2564  0.0927
 4684TIP3    H135467   4.887   4.168  12.220 -2.5626 -1.6132  1.5913
 4684TIP3    H235468   4.931   4.036  12.280  2.5260 -0.9004 -0.0737
 4685TIP3   OH235469   3.606   6.710  14.140  0.5122 -0.1570  0.1780
 4685TIP3    H135470   3.674   6.669  14.087 -0.4306 -3.4874  1.3153
 4685TIP3    H235471   3.647   6.724  14.226  0.2204 -0.6988  0.4072
 4686TIP3   OH235472   4.877   1.798  13.503  0.0402  0.1569  0.1538
 4686TIP3    H135473   4.819   1.838  13.568 -1.5509 -0.5768 -0.7679
 4686TIP3    H235474   4.829   1.722  13.471  0.6293  0.6555 -2.1213
 4687TIP3   OH235475   4.453   4.024   3.437  0.1091  0.1503 -0.2249
 4687TIP3    H135476   4.433   3.937   3.401 -1.7299  0.6587 -0.5348
 4687TIP3    H235477   4.444   4.013   3.532  1.9741 -0.4731 -0.0899
 4688TIP3   OH235478   6.142   2.496   3.020 -0.8032 -0.5869 -0.0731
 4688TIP3    H135479   6.158   2.564   3.086  0.9318 -2.9138  2.1761
 4688TIP3    H235480   6.048   2.480   3.024 -1.0102  0.6707  0.4522
 4689TIP3   OH235481   0.729   1.392  15.783  0.5952 -0.3899 -0.3468
 4689TIP3    H135482   0.788   1.330  15.741 -0.7108 -1.2643 -0.9755
 4689TIP3    H235483   0.765   1.478  15.762  1.5960 -0.8907 -0.7533
 4690TIP3   OH235484   3.192   4.806   2.262  0.3346  0.2774 -0.1756
 4690TIP3    H135485   3.263   4.842   2.209 -1.1451  1.6792 -1.3058
 4690TIP3    H235486   3.155   4.736   2.209  0.2681  0.1669  0.0126
 4691TIP3   OH235487   1.148   5.282   0.954 -0.4122  0.4486 -0.4202
 4691TIP3    H135488   1.243   5.289   0.968 -0.2666 -0.0972 -1.0990
 4691TIP3    H235489   1.126   5.359   0.901 -0.3610  0.6201 -0.1921
 4692TIP3   OH235490   4.885   2.849  14.592 -0.3449  0.1316 -0.5792
 4692TIP3    H135491   4.848   2.906  14.660 -1.4692 -1.1430 -0.0751
 4692TIP3    H235492   4.831   2.866  14.515 -1.4016 -1.0350 -0.1138
 4693TIP3   OH235493   2.496   2.253   0.310  0.1095 -0.1081  0.0421
 4693TIP3    H135494   2.537   2.208   0.237  1.3472  0.9733  0.0224
 4693TIP3    H235495   2.529   2.207   0.388 -0.8668 -0.9836 -0.0379
 4694TIP3   OH235496   2.954   4.083  15.147 -0.2960  0.2366  0.3984
 4694TIP3    H135497   2.928   4.175  15.139 -0.6695  0.3242  2.1636
 4694TIP3    H235498   3.006   4.080  15.228  1.2518 -0.8013 -0.5825
 4695TIP3   OH235499   2.502   0.116   2.752 -1.0751  0.1359  0.0262
 4695TIP3    H135500   2.563   0.063   2.700 -0.6877  0.6677 -0.0621
 4695TIP3    H235501   2.453   0.166   2.687  1.4624  3.1131  0.1723
 4696TIP3   OH235502   5.510   5.469   2.081  0.0883  0.0637  0.6367
 4696TIP3    H135503   5.447   5.397   2.086 -0.2230  0.3133  0.2992
 4696TIP3    H235504   5.499   5.516   2.163 -1.1042  0.8835  0.0315
 4697TIP3   OH235505   0.643   3.399   2.508  0.4375  0.4800 -0.0521
 4697TIP3    H135506   0.670   3.312   2.478 -0.2654 -0.0473  0.7869
 4697TIP3    H235507   0.591   3.434   2.435  0.6347  0.1629 -0.3523
 4698TIP3   OH235508   5.052   3.560  16.628  0.1290 -0.1259 -0.2832
 4698TIP3    H135509   4.968   3.539  16.669  0.2477  0.1485  0.1073
 4698TIP3    H235510   5.067   3.652  16.650  0.0883  0.0956 -1.1387
 4699TIP3   OH235511   0.534   1.704  16.999  0.4445 -0.4397 -0.0153
 4699TIP3    H135512   0.503   1.703  16.908 -1.1923  0.5304  0.4798
 4699TIP3    H235513   0.529   1.613  17.027  0.6808 -0.7036 -0.8040
 4700TIP3   OH235514   4.431   1.347  13.837  0.2618 -0.0806  0.4583
 4700TIP3    H135515   4.363   1.280  13.848 -0.0796  0.2865  0.6015
 4700TIP3    H235516   4.488   1.336  13.913  0.3459 -0.3674  0.3564
 4701TIP3   OH235517   1.940   0.685   6.223  0.3041  0.2424 -0.6267
 4701TIP3    H135518   1.977   0.597   6.222 -1.9004 -0.7376 -0.7610
 4701TIP3    H235519   1.847   0.672   6.243  0.0627  2.6016  0.1124
 4702TIP3   OH235520   6.030   3.173   5.032  0.1404  0.0336 -0.1492
 4702TIP3    H135521   6.111   3.196   4.986 -0.1617 -1.5224 -1.5252
 4702TIP3    H235522   5.960   3.188   4.968 -0.4614 -0.6008  0.3426
 4703TIP3   OH235523   6.149   0.048  14.763  0.3548 -0.1072 -0.6076
 4703TIP3    H135524   6.137  -0.047  14.761  0.7967 -0.2252 -4.1192
 4703TIP3    H235525   6.175   0.071  14.673 -2.8507  3.7141 -0.8641
 4704TIP3   OH235526   1.372   3.800   1.055 -0.0807  0.5122  0.1029
 4704TIP3    H135527   1.350   3.741   0.983  1.3400 -0.6431  0.5692
 4704TIP3    H235528   1.436   3.752   1.107 -1.0857  1.2871  2.1779
 4705TIP3   OH235529   0.848   1.179   6.445 -0.2168 -0.5476 -0.3194
 4705TIP3    H135530   0.785   1.185   6.374 -0.1311  4.4455 -0.2718
 4705TIP3    H235531   0.796   1.195   6.524  0.4880 -0.7001  0.1843
 4706TIP3   OH235532   3.133   3.575   2.482 -0.4682  0.2207 -0.2067
 4706TIP3    H135533   3.133   3.664   2.447  2.7147  0.4534  0.1074
 4706TIP3    H235534   3.171   3.583   2.570  1.2503 -1.5281 -0.7081
 4707TIP3   OH235535   2.500   4.260  12.623 -0.0093 -0.3950  0.0121
 4707TIP3    H135536   2.477   4.346  12.586  1.1617  0.8773  2.0530
 4707TIP3    H235537   2.426   4.204  12.601 -1.7568  1.6607  0.2764
 4708TIP3   OH235538   1.567   6.643   0.012  0.3853  0.0688  0.0249
 4708TIP3    H135539   1.599   6.634  -0.078 -0.9449  1.7731 -0.6842
 4708TIP3    H235540   1.639   6.685   0.059  1.0457 -0.7212 -0.2609
 4709TIP3   OH235541   0.256   1.671   5.533  0.1296 -0.4116  0.0066
 4709TIP3    H135542   0.324   1.603   5.526  1.7446  0.5498  3.8077
 4709TIP3    H235543   0.192   1.634   5.594  0.0235  0.7144  0.6002
 4710TIP3   OH235544   1.271   5.437   4.689 -0.4651 -0.8455 -0.2573
 4710TIP3    H135545   1.251   5.481   4.772 -2.8245 -0.6968 -0.8458
 4710TIP3    H235546   1.359   5.467   4.667 -0.8637  1.3189  0.8058
 4711TIP3   OH235547   5.289   6.491   1.523 -0.0986 -0.5193 -0.3263
 4711TIP3    H135548   5.248   6.502   1.437  2.2309 -0.3857 -1.4974
 4711TIP3    H235549   5.324   6.402   1.521  2.0377  0.2642 -0.5346
 4712TIP3   OH235550   4.629   0.324   1.973  0.1535  0.1050  0.4130
 4712TIP3    H135551   4.591   0.262   2.035 -0.8589  0.5945  0.2965
 4712TIP3    H235552   4.578   0.313   1.893  1.9998 -1.1464 -0.6730
 4713TIP3   OH235553   0.737   0.080   2.320  0.0719  0.0580 -0.2438
 4713TIP3    H135554   0.704   0.037   2.242 -1.1306  0.5410 -0.0255
 4713TIP3    H235555   0.754   0.009   2.382 -1.6590 -0.1590  0.0312
 4714TIP3   OH235556   4.890   6.003  11.977 -0.4712  0.6617 -0.1994
 4714TIP3    H135557   4.812   5.969  12.021 -0.4344  2.4746  1.4035
 4714TIP3    H235558   4.887   5.964  11.890 -3.1945  0.7093 -0.2187
 4715TIP3   OH235559   1.100   5.400   1.231  0.1457  0.2295  0.3096
 4715TIP3    H135560   1.058   5.421   1.147  0.5503 -0.6659 -0.1247
 4715TIP3    H235561   1.029   5.367   1.286 -0.0475  0.4446  0.1919
 4716TIP3   OH235562   6.479   2.175   5.309 -0.5877 -0.0808 -0.2976
 4716TIP3    H135563   6.423   2.108   5.347 -1.7491  1.0363  0.0460
 4716TIP3    H235564   6.528   2.130   5.241 -1.0886 -1.3418  0.1547
 4717TIP3   OH235565   0.385   1.090   4.949 -0.2634 -0.0189  0.1819
 4717TIP3    H135566   0.398   1.175   4.993  0.3082 -0.3132  0.6020
 4717TIP3    H235567   0.348   1.034   5.017  4.4262 -1.7052  1.7305
 4718TIP3   OH235568   1.794   1.174  16.902 -0.1739  0.2424 -0.2322
 4718TIP3    H135569   1.840   1.093  16.922 -1.6403 -0.3939  0.8044
 4718TIP3    H235570   1.701   1.150  16.906 -0.7402  2.3633  2.2614
 4719TIP3   OH235571   2.057   4.551   0.920 -0.1756  1.0626 -0.1570
 4719TIP3    H135572   2.029   4.460   0.923  2.1791  0.2736  0.9027
 4719TIP3    H235573   2.011   4.593   0.993  0.3977  0.1422  0.7569
 4720TIP3   OH235574   6.099   0.746   5.516 -0.2692  0.2099 -0.2767
 4720TIP3    H135575   6.160   0.693   5.566 -0.3668 -1.8503 -2.1499
 4720TIP3    H235576   6.144   0.828   5.501  2.0902 -1.2057 -1.5190
 4721TIP3   OH235577   4.655   4.082  12.702  0.4323  0.2509  1.0069
 4721TIP3    H135578   4.573   4.100  12.747 -0.3894  0.2540 -0.4592
 4721TIP3    H235579   4.721   4.125  12.757 -0.7266  1.7868  1.2754
 4722TIP3   OH235580   3.729   4.782  13.145  0.5735 -0.1000 -0.4337
 4722TIP3    H135581   3.687   4.728  13.078  0.7796  0.6529 -1.1839
 4722TIP3    H235582   3.820   4.787  13.119  0.6986  0.0325  0.0198
 4723TIP3   OH235583   1.704   3.885  15.925  0.2606 -0.1000 -0.1056
 4723TIP3    H135584   1.692   3.976  15.898  0.7426 -0.6652 -2.5195
 4723TIP3    H235585   1.765   3.849  15.861  1.0661 -1.8264  1.5323
 4724TIP3   OH235586   0.636   3.715   6.315 -0.2296  0.6927  0.4125
 4724TIP3    H135587   0.725   3.747   6.332 -0.2509  0.9315  0.0743
 4724TIP3    H235588   0.580   3.774   6.365 -0.2273  0.8086  0.2783
 4725TIP3   OH235589   2.524   4.898  15.101  0.5752 -0.1117 -0.2067
 4725TIP3    H135590   2.432   4.894  15.128  0.1445  0.1496 -1.5595
 4725TIP3    H235591   2.563   4.819  15.136  0.2244  0.5048  1.7146
 4726TIP3   OH235592   3.176   4.210   0.235  0.1913  0.2387 -0.0942
 4726TIP3    H135593   3.146   4.300   0.227  1.8636  0.8397 -0.1009
 4726TIP3    H235594   3.271   4.217   0.249  0.3556 -1.5126 -0.0114
 4727TIP3   OH235595   4.399   6.281   0.819  0.5686 -0.0977 -0.4489
 4727TIP3    H135596   4.351   6.350   0.863  0.4592 -0.8960  0.7216
 4727TIP3    H235597   4.491   6.303   0.833  0.5394  0.2694 -0.8254
 4728TIP3   OH235598   1.712   3.834  11.152  0.1860  0.4215 -0.0299
 4728TIP3    H135599   1.639   3.780  11.183  0.7970 -0.6851 -0.4695
 4728TIP3    H235600   1.733   3.799  11.066  1.2783  0.6921  0.1122
 4729TIP3   OH235601   1.551   6.431  12.588 -0.0829  0.7329  0.8700
 4729TIP3    H135602   1.612   6.358  12.592 -0.3527  0.5090  0.9512
 4729TIP3    H235603   1.481   6.407  12.649 -1.8627 -0.5029 -1.5040
 4730TIP3   OH235604   2.697   2.478   4.058  0.2411  0.0938  0.0614
 4730TIP3    H135605   2.788   2.499   4.080  0.0856 -1.2530  2.3066
 4730TIP3    H235606   2.650   2.560   4.072  1.1214  0.9445 -1.6080
 4731TIP3   OH235607   1.601   6.185  10.357 -0.4985  0.9408  0.3917
 4731TIP3    H135608   1.538   6.256  10.361 -1.3823  0.1997 -0.0008
 4731TIP3    H235609   1.549   6.106  10.375  0.2858  0.3066 -0.0789
 4732TIP3   OH235610   4.131   1.804  13.086  0.2774  0.1090 -0.2557
 4732TIP3    H135611   4.091   1.883  13.050 -1.1749 -0.4637  0.0504
 4732TIP3    H235612   4.097   1.733  13.031  0.1836 -0.4800  0.5509
 4733TIP3   OH235613   3.884   5.998   3.961  0.0109 -0.3385  0.3351
 4733TIP3    H135614   3.803   6.035   3.926 -0.1318 -3.4931 -3.2731
 4733TIP3    H235615   3.860   5.910   3.990  1.9122 -0.9422  0.2185
 4734TIP3   OH235616   4.574   1.420  13.622 -0.2918  0.0260  0.1801
 4734TIP3    H135617   4.669   1.413  13.627 -0.2283  0.9585  0.4820
 4734TIP3    H235618   4.542   1.391  13.708 -0.1064  2.0553  0.9903
 4735TIP3   OH235619   5.184   4.741   1.246  0.3024  0.1826  0.1126
 4735TIP3    H135620   5.166   4.834   1.263  0.8135  0.1840  0.7074
 4735TIP3    H235621   5.111   4.712   1.192  0.9210  1.3349 -1.4416
 4736TIP3   OH235622   3.610   5.641  12.779  0.2436  0.3489  0.0864
 4736TIP3    H135623   3.620   5.663  12.686  0.1319  0.3659  0.0791
 4736TIP3    H235624   3.522   5.606  12.787  0.8598 -1.3566 -0.1425
 4737TIP3   OH235625   6.129   6.510  12.295 -0.0064 -0.5148 -0.3411
 4737TIP3    H135626   6.043   6.532  12.257  0.5159  0.6076 -0.9063
 4737TIP3    H235627   6.108   6.472  12.381 -1.0695 -0.2965 -0.4888
 4738TIP3   OH235628   0.883   4.881  12.696  0.4557  0.2223  0.4928
 4738TIP3    H135629   0.798   4.923  12.692  0.6137  0.5509  0.5304
 4738TIP3    H235630   0.938   4.941  12.747  0.9275  0.4077 -0.2121
 4739TIP3   OH235631   5.938   6.688   0.360  0.1648 -0.0716  0.7276
 4739TIP3    H135632   5.912   6.701   0.452  2.4573  0.1909  1.3908
 4739TIP3    H235633   5.930   6.774   0.321 -0.9085 -0.2010  0.6154
 4740TIP3   OH235634   2.233   0.214  12.623  0.0885 -0.1580  0.5385
 4740TIP3    H135635   2.181   0.278  12.575  0.2757 -0.8448 -0.6251
 4740TIP3    H235636   2.265   0.261  12.699 -0.2526  0.9633  0.0107
 4741TIP3   OH235637   0.638   6.598   1.301 -0.9519 -0.1863 -0.3677
 4741TIP3    H135638   0.639   6.679   1.351 -2.8958  1.1685 -2.3431
 4741TIP3    H235639   0.561   6.551   1.333 -0.8464 -0.4122 -0.4422
 4742TIP3   OH235640   1.962   2.032  16.875  0.3232  0.3911 -0.5080
 4742TIP3    H135641   1.987   2.102  16.936  1.8549  1.5759 -2.3967
 4742TIP3    H235642   2.015   1.957  16.902  1.9998  1.2996 -1.1239
 4743TIP3   OH235643   1.232   1.312   2.928  0.0743  0.9492  0.6169
 4743TIP3    H135644   1.270   1.328   2.842 -1.8425 -2.2785 -1.0235
 4743TIP3    H235645   1.252   1.221   2.947 -0.7663  1.1781  2.9671
 4744TIP3   OH235646   6.350   4.804  17.238 -0.0888 -0.1613 -0.2319
 4744TIP3    H135647   6.293   4.842  17.304 -1.7754 -2.0687 -0.4892
 4744TIP3    H235648   6.416   4.871  17.221  0.2086  0.5218  3.1050
 4745TIP3   OH235649   1.649   1.700   0.504  0.1653 -0.3536 -0.3961
 4745TIP3    H135650   1.558   1.722   0.484  0.1392 -0.6479 -0.6162
 4745TIP3    H235651   1.675   1.761   0.573 -0.8313 -1.6094  1.1151
 4746TIP3   OH235652   1.685   1.882  14.901 -0.0051 -0.1401  0.2798
 4746TIP3    H135653   1.769   1.875  14.855 -0.1991 -0.1820 -0.0701
 4746TIP3    H235654   1.708   1.875  14.993  0.6871  2.2818  0.3857
 4747TIP3   OH235655   6.720   0.404  16.434  0.4293 -0.2920 -0.2548
 4747TIP3    H135656   6.761   0.331  16.481 -2.7761 -2.7799 -0.9541
 4747TIP3    H235657   6.707   0.371  16.345  0.8124  1.9912 -1.2136
 4748TIP3   OH235658   3.641   5.882  16.446  0.0167  0.2417  0.0262
 4748TIP3    H135659   3.705   5.952  16.454  2.2925 -1.8400  1.6539
 4748TIP3    H235660   3.627   5.873  16.351  1.5197  1.2856 -0.3303
 4749TIP3   OH235661   5.108   5.217   6.621  0.4784  0.1240 -0.3103
 4749TIP3    H135662   5.147   5.275   6.555  2.4023  0.1875  0.7985
 4749TIP3    H235663   5.167   5.223   6.696 -0.5887 -1.4371  0.7202
 4750TIP3   OH235664   4.972   4.884  16.318  0.1925 -0.0878 -0.1150
 4750TIP3    H135665   5.056   4.909  16.281  1.0673  0.1785  1.8864
 4750TIP3    H235666   4.993   4.812  16.378 -0.7468  0.7846  1.3403
 4751TIP3   OH235667   4.332   2.154  14.019 -0.1198 -0.3041 -0.0960
 4751TIP3    H135668   4.356   2.171  13.928  1.4215 -0.6229  0.2283
 4751TIP3    H235669   4.263   2.217  14.038 -2.3936 -1.9605 -2.2747
 4752TIP3   OH235670   3.781   6.434  13.433  0.4433  0.0832  0.2948
 4752TIP3    H135671   3.786   6.380  13.354 -1.2801 -1.3094  1.0800
 4752TIP3    H235672   3.841   6.392  13.494 -0.2592 -0.4797  0.6159
 4753TIP3   OH235673   6.692   1.069  17.296 -0.1408  0.3275 -0.1642
 4753TIP3    H135674   6.680   1.141  17.234 -1.2841 -1.0964 -1.6901
 4753TIP3    H235675   6.609   1.065  17.344  0.2626  0.6008  0.5660
 4754TIP3   OH235676   5.960   4.706  12.668 -0.6025 -0.4943 -0.2296
 4754TIP3    H135677   5.972   4.756  12.587 -0.3057  1.5748  1.0319
 4754TIP3    H235678   6.048   4.699  12.705 -0.8086 -0.9965  0.1839
 4755TIP3   OH235679   4.011   2.369  16.817  0.0369  0.4937  0.4189
 4755TIP3    H135680   3.989   2.334  16.903  0.5812  1.2618  0.8784
 4755TIP3    H235681   3.959   2.316  16.756  0.4381 -0.7610  1.1240
 4756TIP3   OH235682   6.557   5.427  16.707 -0.2067 -0.0841 -0.2133
 4756TIP3    H135683   6.556   5.457  16.617  2.2596 -0.9233 -0.5958
 4756TIP3    H235684   6.491   5.481  16.752 -0.7265  1.0622 -2.2571
 4757TIP3   OH235685   2.381   1.170   1.572  0.0002 -0.6056  0.0494
 4757TIP3    H135686   2.461   1.218   1.593 -1.0897  1.8696 -1.0072
 4757TIP3    H235687   2.398   1.131   1.486  0.4126 -1.0039  0.3036
 4758TIP3   OH235688   4.041   4.373   4.800  0.0614 -0.2095 -0.0076
 4758TIP3    H135689   4.040   4.374   4.704 -1.9082 -0.2658 -0.0269
 4758TIP3    H235690   4.030   4.464   4.825 -0.9254 -0.3475  0.1204
 4759TIP3   OH235691   0.621   0.388   3.152  0.2928 -0.3722  0.1886
 4759TIP3    H135692   0.606   0.367   3.245 -1.3814 -1.4845 -0.2911
 4759TIP3    H235693   0.586   0.477   3.143  0.3891 -0.2868  0.6038
 4760TIP3   OH235694   3.453   3.521  12.518  0.4750 -0.7623 -0.0678
 4760TIP3    H135695   3.375   3.573  12.536  0.7338 -0.7497  1.1142
 4760TIP3    H235696   3.522   3.564  12.569  0.6309 -2.4269  1.1948
 4761TIP3   OH235697   4.317   3.818   6.671 -0.1015 -0.4655 -0.2812
 4761TIP3    H135698   4.382   3.828   6.740  1.3088 -2.6738 -1.1351
 4761TIP3    H235699   4.259   3.893   6.680  2.1512  1.2363  0.9937
 4762TIP3   OH235700   5.472   4.738   0.582 -0.5132  0.8842  0.0774
 4762TIP3    H135701   5.560   4.767   0.557  0.3757  1.0373  3.0156
 4762TIP3    H235702   5.487   4.666   0.642 -2.2086  2.7134  2.9055
 4763TIP3   OH235703   0.393   2.583   3.668 -0.5882 -0.1827  0.1058
 4763TIP3    H135704   0.455   2.514   3.644 -0.0857  0.2160  0.2339
 4763TIP3    H235705   0.401   2.589   3.763  2.3874  2.7625 -0.1444
 4764TIP3   OH235706   3.402   3.558  15.560 -0.4039 -0.1617 -0.0014
 4764TIP3    H135707   3.410   3.545  15.655  0.6484 -1.0994 -0.2010
 4764TIP3    H235708   3.308   3.573  15.546 -0.3546  1.8593  1.3896
 4765TIP3   OH235709   1.183   3.447  14.339 -0.1579 -0.1623 -0.2916
 4765TIP3    H135710   1.176   3.389  14.263 -0.1994 -1.4338  0.6418
 4765TIP3    H235711   1.147   3.396  14.411  3.0680 -0.4441  1.3153
 4766TIP3   OH235712   0.577   1.617   4.061 -0.0149  0.2114  0.5637
 4766TIP3    H135713   0.591   1.574   3.976  0.4277  2.4913 -0.6115
 4766TIP3    H235714   0.661   1.611   4.105  0.8977  2.0867 -0.7480
 4767TIP3   OH235715   5.088   5.800   5.491  0.0534  0.5769  0.0852
 4767TIP3    H135716   5.017   5.849   5.532  1.3525  1.4621  1.3716
 4767TIP3    H235717   5.101   5.724   5.547 -0.1905  0.1594 -0.4188
 4768TIP3   OH235718   5.114   4.932  14.588 -0.0096  0.0628 -0.3008
 4768TIP3    H135719   5.053   5.000  14.618 -0.9081  0.0100 -1.9046
 4768TIP3    H235720   5.193   4.979  14.564 -0.2945  0.4300 -0.5263
 4769TIP3   OH235721   6.402   5.202   2.017 -0.0281 -0.0389 -0.6033
 4769TIP3    H135722   6.365   5.171   1.934 -0.0017 -1.8624  0.0377
 4769TIP3    H235723   6.370   5.141   2.082  0.1183  1.2516  0.7391
 4770TIP3   OH235724   3.890   5.613   1.521 -0.6234  0.4273 -0.3099
 4770TIP3    H135725   3.834   5.635   1.595 -0.0650  0.8377 -0.0075
 4770TIP3    H235726   3.832   5.621   1.445 -1.3771 -0.6269  0.1158
 4771TIP3   OH235727   2.330   1.406  15.221  0.2568 -0.3675  0.2378
 4771TIP3    H135728   2.419   1.424  15.192 -0.0815  0.4146 -0.3488
 4771TIP3    H235729   2.339   1.336  15.287  1.3363  0.0364  0.5301
 4772TIP3   OH235730   3.276   1.335  15.086  0.1665  0.0040  0.4572
 4772TIP3    H135731   3.192   1.308  15.049  0.1173  1.1775 -0.3553
 4772TIP3    H235732   3.259   1.347  15.179 -0.4441 -0.2606  0.3833
 4773TIP3   OH235733   0.709   4.734   0.222  0.4384 -0.0888 -0.5915
 4773TIP3    H135734   0.704   4.686   0.305  0.7188  0.6431 -0.1472
 4773TIP3    H235735   0.652   4.684   0.163  0.5538 -0.8463 -0.0812
 4774TIP3   OH235736   6.430   3.630  12.732  0.0763 -0.0682 -0.2011
 4774TIP3    H135737   6.419   3.611  12.825 -0.8818  2.5531  0.3127
 4774TIP3    H235738   6.390   3.555  12.688 -2.5633  0.1513  1.5713
 4775TIP3   OH235739   5.105   3.633  13.554 -0.3789  0.4414  0.1700
 4775TIP3    H135740   5.164   3.699  13.519 -0.5498  0.5347  0.0579
 4775TIP3    H235741   5.063   3.594  13.477 -0.2529  0.1787  0.2335
 4776TIP3   OH235742   1.945   5.024  12.885  0.5696 -0.4494  0.5647
 4776TIP3    H135743   1.977   4.952  12.831  0.1239 -0.0181 -0.2882
 4776TIP3    H235744   1.969   5.103  12.838  1.7554  0.0196  1.8875
 4777TIP3   OH235745   1.414   0.805  15.052 -0.0313 -0.0823  0.3037
 4777TIP3    H135746   1.491   0.754  15.077  2.4027  2.2658 -1.7801
 4777TIP3    H235747   1.416   0.882  15.109 -1.3599 -0.3387  0.7509
 4778TIP3   OH235748   4.960   0.434   6.600  0.0286  0.1628  0.3978
 4778TIP3    H135749   4.875   0.470   6.624 -1.0650 -0.7761 -1.8111
 4778TIP3    H235750   4.942   0.346   6.567  1.4622  0.7672 -2.3566
 4779TIP3   OH235751   5.628   0.866  12.705  0.3214  0.2262 -0.2779
 4779TIP3    H135752   5.585   0.948  12.726  2.2525  1.2671 -0.1431
 4779TIP3    H235753   5.664   0.878  12.617 -1.0724 -1.2567 -1.1185
 4780TIP3   OH235754   0.402   5.989  16.571 -0.2272  0.4584 -0.4968
 4780TIP3    H135755   0.373   5.956  16.656  0.1567 -0.2170 -0.6297
 4780TIP3    H235756   0.434   5.913  16.524  1.3159  1.1083 -0.5471
 4781TIP3   OH235757   0.028   1.964  17.308 -0.3864 -0.0422  0.3587
 4781TIP3    H135758   0.029   1.992  17.399  0.9782  1.3135 -0.0407
 4781TIP3    H235759   0.063   1.875  17.310 -0.2085  0.0372  1.1442
 4782TIP3   OH235760   0.420   3.864  14.700  0.2930  0.2655  0.1440
 4782TIP3    H135761   0.326   3.874  14.685  0.5133  1.0888 -0.8171
 4782TIP3    H235762   0.433   3.770  14.711 -0.5052  0.0347 -0.7521
 4783TIP3   OH235763   5.021   0.978  11.886  0.0580 -0.7175  0.1820
 4783TIP3    H135764   5.070   0.901  11.915 -0.4927 -1.3718 -0.5920
 4783TIP3    H235765   5.072   1.052  11.920  2.2656 -1.3048 -1.5637
 4784TIP3   OH235766   4.852   1.439   4.748 -0.0157 -0.1765  0.1968
 4784TIP3    H135767   4.898   1.361   4.779  0.5060 -0.1196 -0.4124
 4784TIP3    H235768   4.922   1.498   4.720 -0.4496 -0.6189 -2.0150
 4785TIP3   OH235769   5.094   3.656   2.486  0.2790  0.0264 -0.1448
 4785TIP3    H135770   5.176   3.608   2.493  0.9258  1.1998  0.4938
 4785TIP3    H235771   5.043   3.628   2.561  0.9015  0.7687  0.5720
 4786TIP3   OH235772   3.318   1.589   5.096 -0.2324 -0.2063  0.1923
 4786TIP3    H135773   3.346   1.583   5.187 -3.8093 -1.8608  1.3547
 4786TIP3    H235774   3.319   1.683   5.077 -0.5832  0.2960  2.3913
 4787TIP3   OH235775   0.226   0.224   1.208  0.8201  0.8045 -0.2072
 4787TIP3    H135776   0.159   0.273   1.255  0.4911 -0.2839  0.4696
 4787TIP3    H235777   0.295   0.209   1.272  0.9579  0.4619 -0.4324
 4788TIP3   OH235778   2.854   3.226   0.372 -0.0974 -0.5306 -0.0481
 4788TIP3    H135779   2.859   3.163   0.300 -0.1614 -0.4744 -0.1015
 4788TIP3    H235780   2.827   3.308   0.331  0.7009 -0.2781 -0.0934
 4789TIP3   OH235781   2.179   0.882  13.375 -0.0561 -0.0047  0.3479
 4789TIP3    H135782   2.248   0.818  13.358  0.0154  0.0425  0.4621
 4789TIP3    H235783   2.212   0.935  13.448 -0.3474 -0.1860  0.6156
 4790TIP3   OH235784   0.255   4.565  17.033  0.2856 -0.3620  0.3113
 4790TIP3    H135785   0.318   4.544  16.964  2.5525  0.9840  1.8262
 4790TIP3    H235786   0.170   4.556  16.991  1.5181  1.6546 -3.0738
 4791TIP3   OH235787   0.354   0.567   2.844 -0.8231  0.5503  0.0712
 4791TIP3    H135788   0.371   0.634   2.777 -0.5557  0.8758  0.4594
 4791TIP3    H235789   0.381   0.485   2.802  0.4122  0.8843  0.1524
 4792TIP3   OH235790   0.519   1.190  12.092 -0.5980  0.1312 -0.7512
 4792TIP3    H135791   0.452   1.167  12.027  0.9277  0.9147 -2.6960
 4792TIP3    H235792   0.580   1.246  12.045  0.1324  1.4709  1.6380
 4793TIP3   OH235793   1.597   2.244  15.362 -0.2653  0.1232 -0.2204
 4793TIP3    H135794   1.665   2.210  15.305  1.0482  0.2298  1.2099
 4793TIP3    H235795   1.550   2.167  15.392  1.4909 -0.3618  1.5104
 4794TIP3   OH235796   0.252   5.835   3.951 -0.2103  0.3898 -0.3869
 4794TIP3    H135797   0.310   5.801   4.019  0.2725 -2.0095 -1.9051
 4794TIP3    H235798   0.245   5.929   3.971  1.6219  0.1723  1.6763
 4795TIP3   OH235799   0.302   1.646   4.173  0.4463 -0.3360 -0.7214
 4795TIP3    H135800   0.278   1.563   4.131  2.1008 -1.7366  0.9346
 4795TIP3    H235801   0.394   1.636   4.195  0.4147  1.5307  0.4885
 4796TIP3   OH235802   3.236   4.213  16.753  0.5166  0.2603  0.2687
 4796TIP3    H135803   3.330   4.226  16.740  0.2942  0.9016 -0.9333
 4796TIP3    H235804   3.206   4.176  16.670 -0.6689  2.3238 -0.2987
 4797TIP3   OH235805   2.680   3.823  11.705  0.1609 -0.2810  0.4220
 4797TIP3    H135806   2.746   3.872  11.656  1.7562 -1.3086  1.4700
 4797TIP3    H235807   2.613   3.888  11.727  0.6292  0.7164 -0.9655
 4798TIP3   OH235808   6.413   4.248   0.932  0.2601  0.2901  0.0572
 4798TIP3    H135809   6.374   4.165   0.960  2.1037 -0.5415  0.3180
 4798TIP3    H235810   6.393   4.253   0.838 -1.8652  0.7501  0.4870
 4799TIP3   OH235811   0.861   1.871  11.172 -0.3652 -0.3611 -0.9231
 4799TIP3    H135812   0.884   1.953  11.216 -0.3944 -0.9155  0.1510
 4799TIP3    H235813   0.937   1.851  11.118 -0.6266  0.7117 -1.7473
 4800TIP3   OH235814   6.678   2.723   4.858  0.6021 -0.1642  0.1714
 4800TIP3    H135815   6.595   2.732   4.905 -0.7157  0.4607 -2.1314
 4800TIP3    H235816   6.696   2.629   4.857 -0.1250 -0.3103  0.5866
 4801TIP3   OH235817   2.825   6.389  13.594 -0.2856  0.4986 -0.3389
 4801TIP3    H135818   2.876   6.373  13.673 -1.2533 -0.8429  0.0416
 4801TIP3    H235819   2.783   6.474  13.609 -1.6528 -0.3914  1.2880
 4802TIP3   OH235820   1.471   1.654   5.377  0.2990  0.0786 -0.2421
 4802TIP3    H135821   1.564   1.635   5.368  0.1241 -0.1989 -1.6202
 4802TIP3    H235822   1.458   1.668   5.471  1.9474  1.3342 -0.1681
 4803TIP3   OH235823   4.961   3.835   0.794  0.3526  0.2454  0.4273
 4803TIP3    H135824   5.026   3.770   0.821 -0.6635 -0.4481  1.2874
 4803TIP3    H235825   4.957   3.827   0.699 -0.9682 -2.1815  0.6110
 4804TIP3   OH235826   5.089   3.800   2.002  0.6098  0.1434 -0.2277
 4804TIP3    H135827   4.993   3.805   2.009  0.6794  1.7914 -0.2154
 4804TIP3    H235828   5.109   3.710   2.030 -0.8474  0.0556  0.7037
 4805TIP3   OH235829   3.868   4.771  15.327 -0.3533  0.3386  0.1175
 4805TIP3    H135830   3.903   4.815  15.249 -2.8275 -0.0585 -1.3142
 4805TIP3    H235831   3.819   4.839  15.372  0.2390  0.3162  0.8052
 4806TIP3   OH235832   2.628   6.449  16.550 -0.0410 -0.5500  0.0977
 4806TIP3    H135833   2.697   6.497  16.505  1.2620 -1.2942  1.2189
 4806TIP3    H235834   2.580   6.404  16.481 -1.0648  1.9905 -0.9515
 4807TIP3   OH235835   4.882   5.767  14.260 -0.2272  0.2612 -0.1673
 4807TIP3    H135836   4.958   5.712  14.241 -1.2753 -1.7755  1.1666
 4807TIP3    H235837   4.906   5.813  14.340  0.8863  2.3299 -1.6032
 4808TIP3   OH235838   5.168   2.197  11.672  1.0718 -0.5003  0.0133
 4808TIP3    H135839   5.097   2.179  11.734 -0.7656  0.9432 -1.5305
 4808TIP3    H235840   5.123   2.218  11.590  3.3988 -2.0983 -1.7952
 4809TIP3   OH235841   4.826   3.513  16.173 -0.0154 -0.8519  0.1045
 4809TIP3    H135842   4.876   3.592  16.152  0.6450 -0.6052  2.3127
 4809TIP3    H235843   4.876   3.472  16.244 -0.7706 -2.8509 -0.4782
 4810TIP3   OH235844   1.491   1.038  14.170  0.3054 -0.0990  0.1194
 4810TIP3    H135845   1.444   1.069  14.248  0.3848  0.8133 -0.1883
 4810TIP3    H235846   1.499   0.944  14.184 -1.5048 -0.2782  0.2365
 4811TIP3   OH235847   3.400   4.302   3.431  0.4330 -0.0862 -0.2979
 4811TIP3    H135848   3.331   4.247   3.395 -0.9833  2.2746 -1.4993
 4811TIP3    H235849   3.460   4.317   3.358  0.4322  0.4686 -0.1926
 4812TIP3   OH235850   4.095   4.593  14.515 -0.1537 -0.6176  0.1415
 4812TIP3    H135851   4.048   4.538  14.452 -0.4945  1.3333 -1.3939
 4812TIP3    H235852   4.026   4.631  14.569  0.1533 -2.4696  1.9373
 4813TIP3   OH235853   1.369   1.168  11.650 -0.4005 -0.1392  0.0608
 4813TIP3    H135854   1.337   1.085  11.685  2.9125 -1.7336 -0.2907
 4813TIP3    H235855   1.343   1.167  11.558 -1.9603  0.1381  0.4719
 4814TIP3   OH235856   4.702   2.840  15.514  0.2499 -0.0716 -0.4758
 4814TIP3    H135857   4.755   2.764  15.536 -0.5537 -1.0383 -1.7239
 4814TIP3    H235858   4.656   2.863  15.595  2.5573  0.8448  0.6639
 4815TIP3   OH235859   3.999   3.476   3.256 -0.0245 -0.2655  0.1801
 4815TIP3    H135860   3.907   3.467   3.280 -0.6326 -0.4820 -1.9762
 4815TIP3    H235861   4.036   3.390   3.271 -0.3942 -0.4146  0.2544
 4816TIP3   OH235862   2.149   6.618  16.972  0.5008  1.1629 -0.1833
 4816TIP3    H135863   2.154   6.646  17.064 -0.0787 -0.3309  0.3467
 4816TIP3    H235864   2.238   6.625  16.940  0.5604  2.5287  0.2286
 4817TIP3   OH235865   3.286   4.618   6.131 -0.0951 -0.3787  0.0280
 4817TIP3    H135866   3.331   4.557   6.191 -0.3768 -1.0229 -0.4018
 4817TIP3    H235867   3.223   4.664   6.187  1.8301  1.3503  0.8744
 4818TIP3   OH235868   5.885   4.259   4.064  0.5125  0.3049 -0.3100
 4818TIP3    H135869   5.806   4.211   4.085  0.2822  0.9691  0.3938
 4818TIP3    H235870   5.874   4.344   4.107  0.6230  1.2393 -2.0453
 4819TIP3   OH235871   5.487   0.616   2.341 -0.2254 -0.3249 -0.7934
 4819TIP3    H135872   5.461   0.701   2.305  1.3737  1.0277  0.9981
 4819TIP3    H235873   5.527   0.570   2.268  0.2401  1.0981 -1.4749
 4820TIP3   OH235874   4.800   4.450  14.591  0.0385 -0.4384 -0.5138
 4820TIP3    H135875   4.746   4.472  14.515 -0.6039 -1.5676 -0.4106
 4820TIP3    H235876   4.887   4.437  14.555 -0.2584 -0.9581 -1.0782
 4821TIP3   OH235877   1.120   6.012   2.723 -0.3014  0.1399  0.1988
 4821TIP3    H135878   1.198   6.064   2.703 -0.0351 -0.0509  0.7194
 4821TIP3    H235879   1.154   5.935   2.768 -0.8197  0.1837  0.6650
 4822TIP3   OH235880   3.212   0.036  14.509  0.2788  0.2388 -0.2412
 4822TIP3    H135881   3.227   0.092  14.433 -0.2476  0.6275 -0.0680
 4822TIP3    H235882   3.146  -0.027  14.480 -2.0865  2.1308  0.6830
 4823TIP3   OH235883   0.401   6.588  15.426  0.0477 -0.5688 -0.4360
 4823TIP3    H135884   0.311   6.570  15.398 -0.5483  0.7096  0.5889
 4823TIP3    H235885   0.449   6.602  15.344 -1.0338  0.2681 -0.9524
 4824TIP3   OH235886   4.369   3.156   0.913  0.2004 -0.2209  0.1467
 4824TIP3    H135887   4.449   3.109   0.938 -0.1488 -1.7980 -1.5163
 4824TIP3    H235888   4.298   3.101   0.945 -0.3136  1.5223  2.2465
 4825TIP3   OH235889   6.706   6.312  12.448 -0.3847 -0.2368 -0.1669
 4825TIP3    H135890   6.687   6.224  12.415 -0.2482  0.0656 -1.0857
 4825TIP3    H235891   6.630   6.364  12.422 -1.0376 -0.3354  1.4537
 4826TIP3   OH235892   1.147   3.194   5.265 -0.6017  0.0145  0.2149
 4826TIP3    H135893   1.147   3.282   5.303 -0.7384  0.8531 -1.6534
 4826TIP3    H235894   1.233   3.184   5.225 -0.7070 -0.5792  0.1220
 4827TIP3   OH235895   3.569   5.331  11.391 -0.2357  0.1812 -0.4522
 4827TIP3    H135896   3.650   5.347  11.345  0.0823  2.1505  0.6651
 4827TIP3    H235897   3.583   5.249  11.438  0.2367 -0.6681 -2.0273
 4828TIP3   OH235898   0.755   3.566  15.230  0.0679 -0.0187 -0.3504
 4828TIP3    H135899   0.708   3.645  15.204 -2.2443 -1.0813  0.3166
 4828TIP3    H235900   0.837   3.598  15.267  0.3607  1.8877 -2.3879
 4829TIP3   OH235901   5.589   1.988   3.938 -0.0225 -0.0574 -0.0211
 4829TIP3    H135902   5.662   2.050   3.935 -1.1489  1.4978  1.9891
 4829TIP3    H235903   5.591   1.953   4.027 -0.1995 -1.9886 -0.7356
 4830TIP3   OH235904   3.242   2.005   6.099 -0.2626  0.0577  0.0266
 4830TIP3    H135905   3.285   2.085   6.130  0.0074 -0.2328  0.4208
 4830TIP3    H235906   3.149   2.027   6.095 -0.1412  0.5131 -0.2587
 4831TIP3   OH235907   5.329   0.331   0.098  0.1059 -0.7097  0.4808
 4831TIP3    H135908   5.287   0.390   0.162  2.0934  0.9294  0.3934
 4831TIP3    H235909   5.390   0.279   0.151  1.5979  0.5001  0.0292
 4832TIP3   OH235910   4.273   6.024  15.038 -0.4480  0.1073  0.0531
 4832TIP3    H135911   4.351   6.015  15.092 -0.4628 -0.2314  0.0188
 4832TIP3    H235912   4.306   6.032  14.948 -0.4875 -1.7560 -0.1769
 4833TIP3   OH235913   5.276   4.421  15.521  0.1509 -0.8365  0.1179
 4833TIP3    H135914   5.259   4.424  15.427 -1.3554 -2.3463  0.2913
 4833TIP3    H235915   5.362   4.379  15.529  0.8108  0.3478 -0.5993
 4834TIP3   OH235916   2.334   6.411  16.691  0.0261  0.2475 -0.3029
 4834TIP3    H135917   2.413   6.440  16.645  0.9673  1.1415  1.7336
 4834TIP3    H235918   2.357   6.325  16.726  0.3021  0.6893  0.6523
 4835TIP3   OH235919   1.811   2.887  12.543  0.5119 -0.4444  0.4865
 4835TIP3    H135920   1.766   2.803  12.534  0.5221 -0.4961  0.8871
 4835TIP3    H235921   1.903   2.863  12.558  0.8879 -0.3211 -1.4609
 4836TIP3   OH235922   4.209   0.301   0.140 -0.1447  0.0730 -0.6010
 4836TIP3    H135923   4.280   0.336   0.193  1.6654 -3.0112 -0.7229
 4836TIP3    H235924   4.203   0.360   0.065  0.9155  1.5140  0.3953
 4837TIP3   OH235925   4.757   3.821  12.728  0.4663 -0.0832  0.5036
 4837TIP3    H135926   4.706   3.894  12.692  0.2722 -0.2797  0.3733
 4837TIP3    H235927   4.737   3.822  12.821 -0.6549 -0.8372  0.2895
 4838TIP3   OH235928   4.623   6.269  15.259  0.2035 -0.0696  0.2725
 4838TIP3    H135929   4.556   6.301  15.198 -0.4408 -1.0489  0.4402
 4838TIP3    H235930   4.625   6.335  15.329  0.8121  0.9627 -0.6928
 4839TIP3   OH235931   3.085   0.213  12.310  0.3490  0.1878  0.2667
 4839TIP3    H135932   3.085   0.146  12.379  0.1232  1.3865  1.4847
 4839TIP3    H235933   3.178   0.234  12.298  0.3726  0.1563  0.3899
 4840TIP3   OH235934   6.438   2.459  11.947  0.2033  0.0164  0.2040
 4840TIP3    H135935   6.523   2.478  11.989 -0.4027  0.8492  1.1085
 4840TIP3    H235936   6.401   2.388  11.999  0.7171 -0.9798 -0.7442
 4841TIP3   OH235937   1.422   4.501  14.665  0.4362 -0.2450 -0.3726
 4841TIP3    H135938   1.434   4.427  14.725  0.6114  1.4580  1.8581
 4841TIP3    H235939   1.483   4.567  14.697 -0.2406  1.1408 -1.8103
 4842TIP3   OH235940   3.706   0.804  14.307  0.1710 -0.6156 -0.5185
 4842TIP3    H135941   3.781   0.751  14.284 -0.3928 -1.3181 -0.7710
 4842TIP3    H235942   3.654   0.809  14.227  0.2151  0.3242 -0.4992
 4843TIP3   OH235943   3.847   5.182  15.088  0.3160  0.4458  0.4552
 4843TIP3    H135944   3.779   5.197  15.022 -0.6572  0.0613  1.3388
 4843TIP3    H235945   3.897   5.264  15.089  1.0461  0.0730 -1.5069
 4844TIP3   OH235946   4.110   0.510   3.424 -0.3481  0.2307  0.0977
 4844TIP3    H135947   4.062   0.453   3.364 -0.2563  1.0535 -0.7728
 4844TIP3    H235948   4.062   0.593   3.423  0.9834  1.0150 -0.6630
 4845TIP3   OH235949   2.193   2.171  11.197  0.5817  0.1314  0.2053
 4845TIP3    H135950   2.248   2.093  11.195  1.1642  0.5353 -1.6743
 4845TIP3    H235951   2.202   2.208  11.109 -0.2730  1.9054  0.8323
 4846TIP3   OH235952   3.775   3.682   3.024 -0.2784 -0.1555 -0.0813
 4846TIP3    H135953   3.804   3.681   2.932  0.4805 -0.7125  0.1616
 4846TIP3    H235954   3.763   3.590   3.046  0.3645 -0.0782  0.6307
 4847TIP3   OH235955   5.401   2.140   4.434  0.3517  0.2169 -0.8103
 4847TIP3    H135956   5.432   2.164   4.521 -0.0969  1.1197 -0.8900
 4847TIP3    H235957   5.409   2.044   4.431  1.0024  0.2395 -0.0292
 4848TIP3   OH235958   5.631   1.706   4.920  0.1924 -0.4544  0.2145
 4848TIP3    H135959   5.664   1.759   4.992  0.0014 -0.9371  0.6699
 4848TIP3    H235960   5.558   1.657   4.958  2.6547 -3.9359  0.9523
 4849TIP3   OH235961   1.281   1.966  13.411 -0.3736 -0.1083 -0.3853
 4849TIP3    H135962   1.337   1.992  13.484 -0.4094 -1.0432 -0.0160
 4849TIP3    H235963   1.226   2.043  13.395 -0.5237  0.0354  0.7197
 4850TIP3   OH235964   0.646   0.275  15.421 -0.5912 -0.3435  0.4818
 4850TIP3    H135965   0.685   0.211  15.362  0.5405  0.5096  0.2677
 4850TIP3    H235966   0.719   0.329  15.449 -1.3169  0.0609  1.6785
 4851TIP3   OH235967   3.821   3.165  14.014 -0.1454 -0.1267  0.0285
 4851TIP3    H135968   3.825   3.232  13.946 -0.2785  0.5411  0.6665
 4851TIP3    H235969   3.771   3.093  13.974 -2.4505  1.2602  0.2501
 4852TIP3   OH235970   5.444   6.125  15.094  0.2989  0.2952  0.2701
 4852TIP3    H135971   5.481   6.089  15.175  0.1121 -1.2966 -0.3227
 4852TIP3    H235972   5.467   6.218  15.097  0.4573  0.2489  2.0571
 4853TIP3   OH235973   6.199   3.839   3.531  0.0405 -0.1496 -0.0504
 4853TIP3    H135974   6.161   3.890   3.603 -0.1923 -0.7258  0.2427
 4853TIP3    H235975   6.290   3.827   3.556  0.1514  0.2990 -0.2240
 4854TIP3   OH235976   1.272   5.434   0.247  0.2895  0.6036 -0.1746
 4854TIP3    H135977   1.363   5.406   0.248  0.4201  1.0127 -0.6184
 4854TIP3    H235978   1.238   5.409   0.333  0.4262 -0.8479 -0.5105
 4855TIP3   OH235979   6.605   4.852  14.254 -0.2906 -0.7067  0.0575
 4855TIP3    H135980   6.545   4.883  14.186  0.5397  0.7816 -0.0492
 4855TIP3    H235981   6.679   4.913  14.249  1.9135 -3.2900 -0.7965
 4856TIP3   OH235982   2.005   2.202   2.612 -0.2468  0.2369 -0.0442
 4856TIP3    H135983   2.024   2.200   2.518  2.2565 -1.9926  0.3827
 4856TIP3    H235984   1.910   2.191   2.617 -0.5214  0.9600 -2.2803
 4857TIP3   OH235985   4.233   4.131  15.442  0.0353  0.1268  0.2484
 4857TIP3    H135986   4.307   4.176  15.401  0.9583 -0.1182  1.5909
 4857TIP3    H235987   4.159   4.192  15.432  0.4783  0.5115 -0.8180
 4858TIP3   OH235988   4.872   1.775   1.850 -0.7313 -0.2629 -0.9775
 4858TIP3    H135989   4.883   1.834   1.925 -0.3054 -0.7899 -0.6218
 4858TIP3    H235990   4.950   1.791   1.796  0.3188 -1.7652  0.0071
 4859TIP3   OH235991   5.423   0.298   0.737  0.2670 -0.3360  0.5731
 4859TIP3    H135992   5.442   0.389   0.758 -0.6044 -0.0266  0.0610
 4859TIP3    H235993   5.397   0.259   0.821 -0.3002  0.1352  0.6203
 4860TIP3   OH235994   0.997   4.403  11.220 -0.2375  0.5807  0.0837
 4860TIP3    H135995   0.963   4.396  11.309  2.1995  0.3228  1.0886
 4860TIP3    H235996   0.972   4.321  11.178 -1.7053  0.8426  0.3812
 4861TIP3   OH235997   3.932   2.049   2.380  0.3323 -0.1404  0.1072
 4861TIP3    H135998   3.896   2.136   2.395  0.3277  0.3904 -2.5442
 4861TIP3    H235999   4.012   2.064   2.330  0.0929 -1.6532 -0.8163
 4862TIP3   OH236000   4.492   2.798  11.252  0.2072 -0.7175  0.4178
 4862TIP3    H136001   4.508   2.710  11.285  0.7903 -1.5375 -1.8983
 4862TIP3    H236002   4.576   2.825  11.215 -0.3160  0.2855 -0.0753
 4863TIP3   OH236003   0.938   1.720   5.780  0.3353  0.2384  0.2677
 4863TIP3    H136004   0.900   1.644   5.736 -0.2109 -0.3649  1.7229
 4863TIP3    H236005   1.032   1.705   5.776  0.3737  0.7089 -1.5449
 4864TIP3   OH236006   0.593   3.353  15.235 -0.2652  0.1625  0.1844
 4864TIP3    H136007   0.658   3.423  15.237  0.4350 -0.4477 -0.4036
 4864TIP3    H236008   0.516   3.393  15.195 -0.1653  0.8169  0.6245
 4865TIP3   OH236009   2.227   0.607   2.613  0.0860 -0.3383  0.2866
 4865TIP3    H136010   2.249   0.692   2.652  1.2001 -0.4415 -0.0633
 4865TIP3    H236011   2.141   0.620   2.573 -0.0767  0.4147  0.8689
 4866TIP3   OH236012   0.111   6.719   3.517 -0.6322 -0.4015 -0.0032
 4866TIP3    H136013   0.018   6.736   3.507 -0.6232 -1.0243 -1.3133
 4866TIP3    H236014   0.134   6.665   3.442  0.7992 -0.2119  0.2685
 4867TIP3   OH236015   2.364   3.723  17.023 -0.4129  0.3530 -0.0804
 4867TIP3    H136016   2.347   3.773  17.103  0.6378 -0.5188  0.7203
 4867TIP3    H236017   2.291   3.744  16.965 -0.0624  2.7198  0.2503
 4868TIP3   OH236018   3.236   2.799  14.057  0.1666  0.2401  0.2969
 4868TIP3    H136019   3.231   2.789  13.962 -0.9156  0.1140  0.3570
 4868TIP3    H236020   3.147   2.780  14.088  0.6170 -0.1606  1.3744
 4869TIP3   OH236021   3.110   1.570  12.352  0.4622 -0.2218 -0.3809
 4869TIP3    H136022   3.174   1.639  12.367  0.0359 -0.0595  0.8045
 4869TIP3    H236023   3.073   1.589  12.266  2.6581 -0.8696 -1.5760
 4870TIP3   OH236024   1.598   1.892   3.148  0.0238  0.5158  0.3844
 4870TIP3    H136025   1.554   1.807   3.159 -0.7162  0.5473 -1.7357
 4870TIP3    H236026   1.531   1.948   3.109  1.0648  1.4895 -0.0596
 4871TIP3   OH236027   0.756   1.934   2.280  0.2335 -0.0448 -0.5437
 4871TIP3    H136028   0.698   1.906   2.351  0.3815 -0.0401 -0.4191
 4871TIP3    H236029   0.843   1.903   2.307  0.2104 -0.4963 -0.9667
 4872TIP3   OH236030   0.130   1.875   1.989 -0.3617  0.4561  0.0958
 4872TIP3    H136031   0.128   1.958   2.036 -0.0053  1.2155 -1.1782
 4872TIP3    H236032   0.056   1.826   2.024 -1.8921  2.1511 -0.5936
 4873TIP3   OH236033   1.507   4.716   6.700 -0.1874 -0.2036 -0.5467
 4873TIP3    H136034   1.588   4.710   6.751 -0.0525 -0.5771 -0.7995
 4873TIP3    H236035   1.504   4.634   6.651  0.6886  0.9086 -2.6026
 4874TIP3   OH236036   4.284   5.048   4.483  0.3111 -0.6053 -0.1230
 4874TIP3    H136037   4.339   4.989   4.533  0.7840 -1.9055 -2.0572
 4874TIP3    H236038   4.197   5.040   4.522  0.5124 -2.1075  0.0752
 4875TIP3   OH236039   6.739   1.681   2.686  0.1442  0.2341  0.6437
 4875TIP3    H136040   6.829   1.659   2.710  0.4493  0.7088 -0.0371
 4875TIP3    H236041   6.738   1.776   2.679  0.0936  0.1165 -1.2659
 4876TIP3   OH236042   4.649   2.092   2.784 -0.3203  0.3835  0.1480
 4876TIP3    H136043   4.725   2.051   2.825 -0.8116 -1.4949 -0.7214
 4876TIP3    H236044   4.674   2.103   2.692 -1.0952 -0.2383 -0.1427
 4877TIP3   OH236045   0.443   2.551  11.241  0.0651 -0.1780 -0.3541
 4877TIP3    H136046   0.421   2.475  11.296  2.5441 -0.7677 -0.0774
 4877TIP3    H236047   0.512   2.520  11.183  0.4076  1.5894 -0.9509
 4878TIP3   OH236048   1.355   4.846   2.087 -0.1034 -0.8388  0.1785
 4878TIP3    H136049   1.281   4.800   2.046 -0.8322 -0.8818  1.5077
 4878TIP3    H236050   1.315   4.920   2.133  0.6487 -1.0315  1.1624
 4879TIP3   OH236051   0.534   6.156   4.728 -0.2739 -0.2702 -0.5932
 4879TIP3    H136052   0.577   6.092   4.672  1.9649  0.8333 -0.2742
 4879TIP3    H236053   0.589   6.159   4.807 -0.6235  1.5965 -0.3677
 4880TIP3   OH236054   0.509   2.891   5.732 -0.0834  0.2075 -0.4705
 4880TIP3    H136055   0.437   2.860   5.788  0.1669  0.7985  0.2083
 4880TIP3    H236056   0.544   2.966   5.780  0.9669 -0.0586 -0.8154
 4881TIP3   OH236057   6.286   3.314   3.280 -0.5408 -0.4654  0.5646
 4881TIP3    H136058   6.204   3.359   3.258 -1.3923 -1.8665  0.7404
 4881TIP3    H236059   6.277   3.290   3.372  0.3883 -0.0164  0.7867
 4882TIP3   OH236060   0.949   4.181  14.961  0.0980 -0.2635 -0.3999
 4882TIP3    H136061   1.019   4.135  15.008 -0.9432 -1.0869  0.4247
 4882TIP3    H236062   0.877   4.186  15.025 -0.6074  0.5122 -1.2295
 4883TIP3   OH236063   2.339   1.199   4.506  0.4200 -0.1338  0.0571
 4883TIP3    H136064   2.343   1.288   4.470  0.0253  0.2635  0.9792
 4883TIP3    H236065   2.409   1.196   4.571 -0.2374 -0.1596  0.7724
 4884TIP3   OH236066   3.035   3.486  14.595 -0.2533  0.3899 -0.3144
 4884TIP3    H136067   3.124   3.455  14.576  0.3330  0.6050  1.8428
 4884TIP3    H236068   2.981   3.448  14.525  1.1308 -1.9262 -0.2398
 4885TIP3   OH236069   1.002   0.838   1.688  0.4050  0.6825  0.3621
 4885TIP3    H136070   0.943   0.897   1.735  0.3475  1.2342 -0.3927
 4885TIP3    H236071   1.041   0.892   1.620  0.1711 -0.2141 -0.5047
 4886TIP3   OH236072   2.114   3.639   4.789 -0.0723 -0.6592  0.3707
 4886TIP3    H136073   2.123   3.626   4.883 -0.3250  0.0718  0.5014
 4886TIP3    H236074   2.079   3.728   4.780 -1.0197 -1.0895 -0.3661
 4887TIP3   OH236075   2.672   2.734  15.093 -0.3609  0.0798  0.0872
 4887TIP3    H136076   2.658   2.686  15.011 -1.1323 -0.0280  0.2655
 4887TIP3    H236077   2.644   2.672  15.161 -0.7569  0.5479  0.3585
 4888TIP3   OH236078   5.799   5.262   4.357 -0.2091  0.1168  0.1481
 4888TIP3    H136079   5.889   5.233   4.343  0.0829  0.7164  0.7623
 4888TIP3    H236080   5.803   5.320   4.433 -1.0908  0.2585  0.1005
 4889TIP3   OH236081   6.299   3.190   5.873 -0.0974 -0.5233 -0.2050
 4889TIP3    H136082   6.315   3.252   5.944 -0.7574 -1.5424  0.8571
 4889TIP3    H236083   6.205   3.199   5.854 -0.2306 -1.2649  0.0528
 4890TIP3   OH236084   5.187   2.761  11.040  0.0108 -0.2778  0.1225
 4890TIP3    H136085   5.169   2.730  10.951  0.8187  0.4728 -0.3093
 4890TIP3    H236086   5.265   2.815  11.032 -0.6823  0.9070  1.0607
 4891TIP3   OH236087   1.491   4.631  13.329 -0.0880 -0.5500 -0.4626
 4891TIP3    H136088   1.415   4.690  13.334 -0.2587 -0.8088  0.0561
 4891TIP3    H236089   1.473   4.577  13.252 -1.1144 -1.5271  0.4222
 4892TIP3   OH236090   3.533   6.341  16.360  0.2004  0.2431  0.0286
 4892TIP3    H136091   3.506   6.261  16.404  1.0100  0.8621  1.7396
 4892TIP3    H236092   3.460   6.362  16.302 -0.9935 -0.5320  1.1992
 4893TIP3   OH236093   5.719   3.471   5.572  0.3406  0.1636  0.2902
 4893TIP3    H136094   5.805   3.514   5.581  1.1342 -0.9665 -1.4253
 4893TIP3    H236095   5.737   3.379   5.587 -0.2410 -0.3119 -1.6897
 4894TIP3   OH236096   4.641   6.045   2.663  0.0666 -0.2561  0.1455
 4894TIP3    H136097   4.602   6.084   2.741 -0.2649  0.2903 -0.2900
 4894TIP3    H236098   4.589   6.078   2.591  1.0412  0.1035 -0.4093
 4895TIP3   OH236099   1.757   2.444  14.211 -0.0668  0.2276 -0.5697
 4895TIP3    H136100   1.712   2.515  14.165  1.8664  1.1901 -1.1246
 4895TIP3    H236101   1.822   2.413  14.148 -0.0799 -1.2413  0.1095
 4896TIP3   OH236102   1.984   1.672  12.252 -0.3855  0.0358 -0.3070
 4896TIP3    H136103   1.983   1.579  12.229 -0.2838 -0.0995  0.2017
 4896TIP3    H236104   1.919   1.712  12.194 -0.1592 -0.2863 -0.7896
 4897TIP3   OH236105   5.738   6.230   1.480 -0.1836 -0.3362  0.1510
 4897TIP3    H136106   5.801   6.287   1.437 -1.6333  0.8952 -0.4064
 4897TIP3    H236107   5.675   6.289   1.521 -0.1406 -1.5110  2.0529
 4898TIP3   OH236108   4.480   4.010   1.482 -0.2014  0.5983  0.1594
 4898TIP3    H136109   4.517   4.003   1.570 -0.9298  0.4772  0.4663
 4898TIP3    H236110   4.497   4.100   1.456 -2.2313  1.4212  1.4763
 4899TIP3   OH236111   2.697   6.572  14.288  0.0482 -0.7923 -0.3460
 4899TIP3    H136112   2.630   6.528  14.340  0.1229 -0.1300  0.3263
 4899TIP3    H236113   2.754   6.501  14.258 -0.0658 -1.1992  0.3726
 4900TIP3   OH236114   0.781   4.229  13.106  0.3525 -0.1629 -0.3860
 4900TIP3    H136115   0.688   4.209  13.115  0.5449 -0.6293  0.6807
 4900TIP3    H236116   0.792   4.315  13.146  0.2050  0.4111 -1.5218
 4901TIP3   OH236117   4.882   3.075  12.174 -0.3907 -0.5085 -0.0512
 4901TIP3    H136118   4.871   3.005  12.237  0.0141  0.7112  1.4274
 4901TIP3    H236119   4.882   3.155  12.226  0.2618  0.5312 -1.5666
 4902TIP3   OH236120   5.834   4.835   4.436 -0.3371  0.0733  0.0740
 4902TIP3    H136121   5.740   4.846   4.420 -0.1413  0.0815 -1.1429
 4902TIP3    H236122   5.875   4.856   4.353  0.6863 -0.8411  0.3285
 4903TIP3   OH236123   0.571   3.467  14.650  0.5194 -0.6176  0.4602
 4903TIP3    H136124   0.650   3.466  14.704 -0.2525  4.4788  2.1663
 4903TIP3    H236125   0.602   3.499  14.565  0.4553  1.2514  1.0886
 4904TIP3   OH236126   0.482   2.917   0.256  0.4823  0.1998  0.1878
 4904TIP3    H136127   0.552   2.975   0.286  2.4574 -1.4903 -0.8523
 4904TIP3    H236128   0.503   2.898   0.165  0.4918 -2.7836  0.6871
 4905TIP3   OH236129   6.389   1.109   0.603  0.0813 -0.0572 -0.0057
 4905TIP3    H136130   6.476   1.145   0.615  0.4849 -0.2308 -2.0171
 4905TIP3    H236131   6.337   1.145   0.674  1.7602  0.1262  1.1681
 4906TIP3   OH236132   2.477   0.190  15.984 -0.0213  0.5830  0.2806
 4906TIP3    H136133   2.557   0.171  15.935 -0.7426  0.0884 -0.7483
 4906TIP3    H236134   2.421   0.236  15.921 -1.3528 -0.9303  0.2884
 4907TIP3   OH236135   4.680   3.976  14.683 -0.2013  0.4795 -0.2456
 4907TIP3    H136136   4.586   3.958  14.685 -0.3417  1.1419 -0.5003
 4907TIP3    H236137   4.698   3.995  14.591  0.5264 -1.3316 -0.5234
 4908TIP3   OH236138   4.668   1.627  17.037 -0.1661  0.6478  0.6559
 4908TIP3    H136139   4.735   1.564  17.064 -0.6239  0.1217  0.5673
 4908TIP3    H236140   4.715   1.689  16.981 -0.2047 -1.1030 -1.4544
 4909TIP3   OH236141   6.198   6.755  13.038 -0.7029 -0.1449  0.4020
 4909TIP3    H136142   6.140   6.721  12.970  1.4434 -2.8248 -0.2735
 4909TIP3    H236143   6.219   6.679  13.092  1.8026  0.7406  0.8366
 4910TIP3   OH236144   3.387   1.024  12.342 -0.1856  0.3959  0.1254
 4910TIP3    H136145   3.418   0.938  12.371 -0.2314  0.4229  0.2565
 4910TIP3    H236146   3.467   1.071  12.318 -0.2470 -0.1063 -1.1332
 4911TIP3   OH236147   6.149   5.777   0.835 -0.7009 -0.2095  0.0937
 4911TIP3    H136148   6.102   5.754   0.755  2.6703 -0.8647 -1.8791
 4911TIP3    H236149   6.131   5.705   0.895 -0.8357 -1.3207 -1.2166
 4912TIP3   OH236150   0.997   4.892  14.938  0.1235 -0.2232 -0.0007
 4912TIP3    H136151   0.918   4.943  14.958  0.6110  0.1811  0.9392
 4912TIP3    H236152   1.067   4.935  14.987  0.9572 -0.5295 -0.8856
 4913TIP3   OH236153   1.914   3.596  12.245 -0.0524  0.1710 -0.9326
 4913TIP3    H136154   1.860   3.533  12.197 -0.0097  0.9706 -2.0714
 4913TIP3    H236155   1.974   3.631  12.179  0.3943  0.8916 -0.1583
 4914TIP3   OH236156   2.387   0.408   0.209 -0.3504  0.1872 -0.4358
 4914TIP3    H136157   2.315   0.353   0.241 -0.8963  0.8792 -0.4535
 4914TIP3    H236158   2.416   0.457   0.286 -0.9519  1.0654 -0.7576
 4915TIP3   OH236159   4.862   3.045   3.235  0.0587 -0.5541 -0.5281
 4915TIP3    H136160   4.933   2.981   3.237  0.6966  0.1257 -0.7466
 4915TIP3    H236161   4.834   3.047   3.144 -0.8038 -1.4042 -0.2982
 4916TIP3   OH236162   6.241   1.528  14.305  0.3693 -0.4417 -0.0663
 4916TIP3    H136163   6.201   1.579  14.235  1.7778 -1.0364 -1.3744
 4916TIP3    H236164   6.171   1.515  14.369 -0.9578  0.1400 -1.3489
 4917TIP3   OH236165   2.090   6.019   1.572 -0.1469 -0.0225  0.6727
 4917TIP3    H136166   2.056   5.989   1.488  0.0564  1.5416 -0.0117
 4917TIP3    H236167   2.142   6.097   1.550  0.5153 -0.0175  2.1656
 4918TIP3   OH236168   3.119   3.726  16.584 -0.3191  0.0350 -0.0353
 4918TIP3    H136169   3.211   3.701  16.598 -0.9191 -1.5503  1.4397
 4918TIP3    H236170   3.103   3.795  16.648 -0.1392  0.3733 -0.3522
 4919TIP3   OH236171   2.387   2.411  15.421  0.0278 -0.5568  0.0058
 4919TIP3    H136172   2.310   2.380  15.470 -1.2787 -1.3647 -2.3661
 4919TIP3    H236173   2.355   2.421  15.331  1.7920  2.6573 -0.4092
 4920TIP3   OH236174   0.801   3.169   2.377  0.2192  0.9381  0.2301
 4920TIP3    H136175   0.777   3.094   2.322  0.5853  1.6015 -0.8679
 4920TIP3    H236176   0.865   3.217   2.325  0.5978  1.5768  1.2672
 4921TIP3   OH236177   5.005   1.975   4.102  0.2124  0.2840 -0.7235
 4921TIP3    H136178   5.001   1.997   4.195 -1.8023  0.6986 -0.8782
 4921TIP3    H236179   5.006   2.059   4.057 -1.0984  0.1051 -1.1242
 4922TIP3   OH236180   2.477   5.868  14.706  0.2302  0.1335  0.2869
 4922TIP3    H136181   2.450   5.958  14.720 -1.1214 -0.5230  2.3600
 4922TIP3    H236182   2.432   5.818  14.775  0.7108 -2.1640 -0.9555
 4923TIP3   OH236183   6.344   6.145   1.499  0.3845 -0.5227  0.3872
 4923TIP3    H136184   6.263   6.182   1.533  0.7721  0.3901  0.3437
 4923TIP3    H236185   6.365   6.073   1.558 -0.4998 -0.8222  0.3439
 4924TIP3   OH236186   1.067   6.092  13.823 -0.1002  0.2831 -0.7307
 4924TIP3    H136187   1.023   6.010  13.845 -0.3402  0.4832 -0.4567
 4924TIP3    H236188   1.146   6.065  13.777  1.8222 -0.3038  2.6202
 4925TIP3   OH236189   5.718   3.471   3.607  0.2708 -0.1939 -0.0830
 4925TIP3    H136190   5.637   3.506   3.642  0.4525  0.7743 -0.6121
 4925TIP3    H236191   5.694   3.385   3.571 -0.1381 -0.7217  1.3771
 4926TIP3   OH236192   6.066   5.239   4.343 -0.4428 -0.0541  0.1646
 4926TIP3    H136193   6.127   5.217   4.273 -0.8425  0.8120 -0.4774
 4926TIP3    H236194   6.115   5.296   4.402 -0.4167  0.0688  0.0243
 4927TIP3   OH236195   0.035   3.337  16.032  0.5159  0.1909 -0.1655
 4927TIP3    H136196   0.033   3.263  16.093 -0.8276  0.4757  0.1743
 4927TIP3    H236197   0.102   3.396  16.067  0.1995  0.0542  0.6795
 4928TIP3   OH236198   5.706   2.018   3.626  0.1341  1.0152  0.4020
 4928TIP3    H136199   5.677   2.035   3.715 -0.5317 -1.3614  0.7121
 4928TIP3    H236200   5.799   1.996   3.634 -0.8300 -3.8925  1.3963
 4929TIP3   OH236201   1.225   1.978  15.235  0.0922  0.2211 -0.1590
 4929TIP3    H136202   1.295   1.999  15.174  0.1059 -1.2424 -0.7059
 4929TIP3    H236203   1.263   1.991  15.321  0.2976  1.6414 -0.4422
 4930TIP3   OH236204   6.486   5.372   3.252  0.5696  0.6261 -0.3375
 4930TIP3    H136205   6.502   5.458   3.213 -0.8034  0.8066 -0.5452
 4930TIP3    H236206   6.411   5.337   3.203  0.6550 -0.3845  0.2254
 4931TIP3   OH236207   4.673   6.136  16.738  0.0357 -0.1184 -0.0589
 4931TIP3    H136208   4.762   6.167  16.721  0.3566 -0.7509  0.4555
 4931TIP3    H236209   4.617   6.210  16.711  0.5620 -0.5437 -2.5923
 4932TIP3   OH236210   6.686   3.071  13.714  0.1622 -0.1798  0.4513
 4932TIP3    H136211   6.703   3.040  13.625  0.4043  0.6316  0.2080
 4932TIP3    H236212   6.704   2.995  13.770 -0.1493 -0.7433 -0.1986
 4933TIP3   OH236213   5.590   6.579  15.109 -0.3813  0.3390  0.9415
 4933TIP3    H136214   5.531   6.550  15.040 -0.4703 -0.7468  1.4506
 4933TIP3    H236215   5.596   6.674  15.098 -0.6933  0.2243 -0.3026
 4934TIP3   OH236216   0.836   6.466   1.169  0.2728 -0.4253  0.4387
 4934TIP3    H136217   0.866   6.524   1.099  0.6183 -1.3934 -0.2310
 4934TIP3    H236218   0.757   6.509   1.203 -0.0202 -0.0300 -0.6872
 4935TIP3   OH236219   5.855   5.070   3.534 -0.2768 -0.4149 -0.2283
 4935TIP3    H136220   5.902   4.989   3.515 -0.7047 -0.9052  0.7258
 4935TIP3    H236221   5.874   5.127   3.459  1.7743 -0.6068  0.0849
 4936TIP3   OH236222   1.628   1.235   5.868 -0.1948  0.3673  0.0937
 4936TIP3    H136223   1.586   1.276   5.793 -0.3433 -0.4990 -0.3174
 4936TIP3    H236224   1.700   1.184   5.831 -0.8859 -0.8814  0.4039
 4937TIP3   OH236225   4.620   4.778  15.490 -0.0691  1.2058  0.4134
 4937TIP3    H136226   4.652   4.859  15.450 -0.5943  0.6074 -1.3153
 4937TIP3    H236227   4.665   4.708  15.442 -0.8341  0.4389  0.7868
 4938TIP3   OH236228   2.422   2.315  12.890  0.1717 -0.5532  0.1839
 4938TIP3    H136229   2.383   2.236  12.853  0.2293 -0.4956  0.0002
 4938TIP3    H236230   2.471   2.354  12.818 -0.6927  0.1925 -0.0228
 4939TIP3   OH236231   1.883   0.957  12.573  0.0170  0.5706  0.7680
 4939TIP3    H136232   1.928   0.954  12.658 -0.6018  1.0865  1.1257
 4939TIP3    H236233   1.897   1.046  12.541  0.0889  0.4340  0.4125
 4940TIP3   OH236234   4.303   1.383   4.966 -0.0466  0.0726 -0.1355
 4940TIP3    H136235   4.288   1.289   4.963  0.3796 -0.0031 -3.0449
 4940TIP3    H236236   4.377   1.398   4.907 -1.7909  2.4205 -1.9674
 4941TIP3   OH236237   0.614   6.439  11.716 -0.2763  0.8157 -0.0620
 4941TIP3    H136238   0.675   6.491  11.664 -1.7650  0.3505 -2.4492
 4941TIP3    H236239   0.535   6.492  11.719 -1.2634 -0.5189 -1.0940
 4942TIP3   OH236240   1.577   4.436   2.204  0.0520 -0.1337  0.0208
 4942TIP3    H136241   1.580   4.345   2.234 -1.1103  0.3266  1.7134
 4942TIP3    H236242   1.668   4.464   2.204  0.3104 -0.9072  0.7931
 4943TIP3   OH236243   2.153   2.843  14.505 -0.0819  0.0880  0.4619
 4943TIP3    H136244   2.136   2.803  14.420  0.0778  1.0882 -0.0548
 4943TIP3    H236245   2.087   2.805  14.563 -0.5137 -0.2228 -0.2200
 4944TIP3   OH236246   5.711   4.358  11.525 -0.0891 -0.5251  0.3712
 4944TIP3    H136247   5.676   4.441  11.556 -1.3732  0.1887 -2.6288
 4944TIP3    H236248   5.776   4.383  11.459 -0.8608 -1.8479 -0.9558
 4945TIP3   OH236249   1.262   3.391  12.615  0.1399  0.2962 -0.0238
 4945TIP3    H136250   1.289   3.452  12.546 -2.5530 -0.8682 -2.3252
 4945TIP3    H236251   1.330   3.324  12.616  2.1339  2.1967  1.1882
 4946TIP3   OH236252   0.417   0.872  15.393 -0.1012  0.0366  0.9076
 4946TIP3    H136253   0.492   0.915  15.435 -0.4793  0.2497  1.3800
 4946TIP3    H236254   0.456   0.804  15.338  0.6283  1.7840 -0.8770
 4947TIP3   OH236255   6.633   2.967  16.810  0.2293 -0.5921 -0.0336
 4947TIP3    H136256   6.625   3.059  16.788 -0.7899 -0.7104 -0.1764
 4947TIP3    H236257   6.578   2.921  16.747 -3.1139 -0.9310  2.7812
 4948TIP3   OH236258   1.048   3.740   6.530  0.2094 -0.0717  0.6725
 4948TIP3    H136259   1.007   3.654   6.531  1.6418 -0.7963  1.0300
 4948TIP3    H236260   1.138   3.723   6.501  0.8515  1.1213  1.8370
 4949TIP3   OH236261   1.537   0.666   1.366  0.1803 -0.1101 -0.3564
 4949TIP3    H136262   1.549   0.604   1.294 -1.0293 -2.3670  1.2784
 4949TIP3    H236263   1.484   0.619   1.430 -0.7604  2.6207  1.0341
 4950TIP3   OH236264   0.182   5.483  13.881  0.0380 -0.2576 -0.0485
 4950TIP3    H136265   0.200   5.540  13.956 -0.3063  0.8310 -0.7813
 4950TIP3    H236266   0.087   5.472  13.881 -0.0041  0.1138 -0.5975
 4951TIP3   OH236267   1.855   4.489   2.232 -0.2830 -0.3908 -0.3695
 4951TIP3    H136268   1.876   4.557   2.296 -0.8438 -0.1460 -0.4408
 4951TIP3    H236269   1.914   4.506   2.158 -2.1710  1.6497 -1.5111
 4952TIP3   OH236270   3.303   6.737   0.867 -0.0323 -0.3945 -0.3864
 4952TIP3    H136271   3.271   6.677   0.799 -1.0205  0.4387 -0.6782
 4952TIP3    H236272   3.235   6.736   0.934  1.1763 -1.6141  0.8801
 4953TIP3   OH236273   2.265   4.371  11.862 -0.1472 -0.5007  0.8113
 4953TIP3    H136274   2.209   4.422  11.803  1.3368  0.1081 -0.1252
 4953TIP3    H236275   2.284   4.291  11.815  1.9649  0.4642 -0.1130
 4954TIP3   OH236276   2.321   4.150   3.718  0.0585 -0.3715 -0.5173
 4954TIP3    H136277   2.272   4.069   3.710 -1.4828  0.3616  0.9096
 4954TIP3    H236278   2.367   4.143   3.802 -0.1457  0.2489 -0.3436
 4955TIP3   OH236279   2.011   2.128  12.559  0.1337 -0.2286  0.2451
 4955TIP3    H136280   2.093   2.126  12.510 -0.5421 -0.6118 -0.9075
 4955TIP3    H236281   1.945   2.096  12.497 -1.2977  2.1903  0.3917
 4956TIP3   OH236282   2.312   3.080   0.670 -0.6208 -0.2335 -0.6670
 4956TIP3    H136283   2.392   3.132   0.672 -0.8832  0.1375  1.2477
 4956TIP3    H236284   2.252   3.129   0.613 -1.3022  2.3192  2.0213
 4957TIP3   OH236285   1.889   5.400   2.254 -0.2856 -0.2689  0.1356
 4957TIP3    H136286   1.800   5.436   2.256  0.2012  1.0980 -0.6871
 4957TIP3    H236287   1.892   5.349   2.173 -0.4603 -0.7294  0.4161
 4958TIP3   OH236288   6.533   2.835  16.244 -0.1990 -0.1124 -0.3190
 4958TIP3    H136289   6.564   2.749  16.214 -0.9230  0.1410 -1.8686
 4958TIP3    H236290   6.448   2.817  16.284  0.0686 -0.2319  0.2098
 4959TIP3   OH236291   6.067   3.291  11.999 -0.3139  0.3024 -0.4806
 4959TIP3    H136292   6.118   3.334  11.930 -1.1447  1.4248 -0.4191
 4959TIP3    H236293   6.113   3.208  12.015  1.1549  1.0213 -0.8184
 4960TIP3   OH236294   4.654   6.595   0.469 -0.6562 -0.0528 -0.0456
 4960TIP3    H136295   4.734   6.633   0.434  0.2695 -0.1269  1.8936
 4960TIP3    H236296   4.607   6.564   0.391  1.1373  0.0634 -1.2437
 4961TIP3   OH236297   6.337   0.053   0.382  0.2799 -0.0939  0.6149
 4961TIP3    H136298   6.425   0.087   0.393  1.4156 -2.9267  1.2378
 4961TIP3    H236299   6.326   0.044   0.287 -0.8539  3.5733  0.2438
 4962TIP3   OH236300   6.701   4.647  17.232 -0.5261  0.5952  0.1825
 4962TIP3    H136301   6.720   4.656  17.138 -0.3318  0.0852  0.1703
 4962TIP3    H236302   6.714   4.735  17.267  1.3746  0.4041  0.0786
 4963TIP3   OH236303   4.765   3.764  15.582  0.0239  0.1345 -0.4313
 4963TIP3    H136304   4.756   3.675  15.548 -0.9958  0.3511 -0.7773
 4963TIP3    H236305   4.728   3.759  15.671  1.5487 -0.1569  0.2083
 4964TIP3   OH236306   6.748   2.963  11.911  0.1680 -0.6545 -0.2355
 4964TIP3    H136307   6.717   2.876  11.935  0.9993 -0.8315  0.2216
 4964TIP3    H236308   6.735   2.967  11.816 -1.9553 -0.4154  0.0074
 4965TIP3   OH236309   4.077   0.040   1.046  0.0889 -0.1474  0.0121
 4965TIP3    H136310   4.104   0.112   1.102 -0.4721  0.5182 -0.5655
 4965TIP3    H236311   4.104   0.066   0.958  0.1859 -0.7977 -0.1607
 4966TIP3   OH236312   2.470   2.395  12.204 -0.7717 -0.1492 -0.5172
 4966TIP3    H136313   2.400   2.434  12.256  1.7595  0.6960  2.5427
 4966TIP3    H236314   2.435   2.310  12.177 -2.2809 -0.7391  2.7928
 4967TIP3   OH236315   0.925   3.684  14.328 -0.2395 -0.7310  0.0018
 4967TIP3    H136316   0.852   3.728  14.373  0.4489  0.0098  0.4313
 4967TIP3    H236317   0.889   3.600  14.300 -1.4442 -0.1174 -0.3685
 4968TIP3   OH236318   1.099   4.651  13.747 -0.7187 -0.6391 -0.0547
 4968TIP3    H136319   1.073   4.676  13.659 -3.0945  0.2588  0.8179
 4968TIP3    H236320   1.071   4.559  13.755  0.1111 -0.9320 -0.4327
 4969TIP3   OH236321   2.047   6.623  15.585  0.3541 -0.2579  0.2839
 4969TIP3    H136322   2.085   6.676  15.515  0.3521  1.5597  1.5871
 4969TIP3    H236323   2.121   6.597  15.639  0.2513 -0.8766  0.1434
 4970TIP3   OH236324   5.763   5.487   4.066 -0.2604 -0.1587 -0.3955
 4970TIP3    H136325   5.682   5.527   4.036  0.7073  2.0717 -0.2338
 4970TIP3    H236326   5.831   5.551   4.045  1.3948 -1.6893  0.0120
 4971TIP3   OH236327   0.381   5.077  16.669 -0.2520  0.3253 -0.6411
 4971TIP3    H136328   0.305   5.067  16.726  0.2470  0.1420  0.0197
 4971TIP3    H236329   0.387   5.170  16.651 -1.8325  0.1383 -2.4197
 4972TIP3   OH236330   5.152   5.801   5.001 -0.3360  0.1576 -0.5403
 4972TIP3    H136331   5.082   5.752   4.958 -1.1810  1.0794 -0.2577
 4972TIP3    H236332   5.205   5.734   5.045  0.2635 -0.7701 -2.5447
 4973TIP3   OH236333   4.469   4.058   0.008  0.4650 -0.5248  1.0377
 4973TIP3    H136334   4.459   3.967  -0.021  2.4033  0.0912 -2.0652
 4973TIP3    H236335   4.564   4.073   0.006  0.1665  1.7050  1.0189
 4974TIP3   OH236336   6.068   5.736  17.277  0.3544 -0.2061  0.6713
 4974TIP3    H136337   5.982   5.773  17.257  0.5420 -0.2669 -0.3208
 4974TIP3    H236338   6.058   5.697  17.363 -0.8364 -0.8700  0.2551
 4975TIP3   OH236339   3.870   1.745  12.682 -0.2439 -0.1127 -0.1006
 4975TIP3    H136340   3.963   1.724  12.674  0.5314  2.0949  2.0188
 4975TIP3    H236341   3.847   1.786  12.598  1.1139  0.6676 -0.1139
 4976TIP3   OH236342   0.541   5.979  13.298 -0.0397  1.3644 -0.3826
 4976TIP3    H136343   0.637   5.985  13.302  0.0884  0.9641 -2.2687
 4976TIP3    H236344   0.512   6.069  13.284  0.1372  1.3393 -0.9279
 4977TIP3   OH236345   2.353   0.146  13.350 -0.0250 -0.3287  0.4776
 4977TIP3    H136346   2.321   0.207  13.283  4.0000  0.7758 -0.7814
 4977TIP3    H236347   2.323   0.183  13.433 -1.9924  0.3894 -0.4866
 4978TIP3   OH236348   1.611   2.122   4.408 -0.8802  0.2373 -0.6771
 4978TIP3    H136349   1.535   2.096   4.356 -1.6325  0.8693  0.0853
 4978TIP3    H236350   1.580   2.195   4.462 -0.0808 -0.2656  0.5134
 4979TIP3   OH236351   0.364   4.534   1.349  0.2814  0.0766 -0.1122
 4979TIP3    H136352   0.436   4.476   1.326  0.7934  0.6410  0.0382
 4979TIP3    H236353   0.290   4.476   1.366  0.1303 -0.4344 -2.2386
 4980TIP3   OH236354   3.415   3.369  17.298  0.3094  0.0490 -0.7222
 4980TIP3    H136355   3.325   3.402  17.296 -0.5639 -2.0706  0.2690
 4980TIP3    H236356   3.469   3.447  17.309 -1.2292  1.5646 -2.9923
 4981TIP3   OH236357   3.131   2.038  14.800  0.4584  0.0513  0.1937
 4981TIP3    H136358   3.156   2.007  14.713 -1.4828 -1.6425  0.1584
 4981TIP3    H236359   3.105   2.129  14.787  2.4124  0.5530 -0.5034
 4982TIP3   OH236360   5.370   5.051  15.864 -0.0463 -0.2425 -0.0989
 4982TIP3    H136361   5.385   5.035  15.957 -0.1633  1.3328  0.2203
 4982TIP3    H236362   5.274   5.052  15.855 -0.0664 -2.2933 -0.6306
 4983TIP3   OH236363   5.629   2.011   1.521 -0.0246  0.0484  0.3682
 4983TIP3    H136364   5.631   1.920   1.551  0.5147  0.2485  0.9515
 4983TIP3    H236365   5.665   2.007   1.432  1.3006 -0.1431  0.8841
 4984TIP3   OH236366   0.972   0.537   3.802  0.0876  0.1587 -0.5522
 4984TIP3    H136367   1.030   0.475   3.756 -1.7274 -1.3342 -0.9621
 4984TIP3    H236368   0.954   0.605   3.737  0.7062  0.1980 -0.6917
 4985TIP3   OH236369   2.787   6.103  14.209  0.2981  0.7143  0.9133
 4985TIP3    H136370   2.734   6.038  14.255  0.5091  0.9758  1.5459
 4985TIP3    H236371   2.727   6.142  14.145  0.1557 -0.0489  0.5716
 4986TIP3   OH236372   2.766   4.494   2.960  0.1124 -0.2412  0.0081
 4986TIP3    H136373   2.699   4.552   2.922  0.3278  0.5667  0.8263
 4986TIP3    H236374   2.849   4.532   2.932  0.2493 -1.2060 -0.9504
 4987TIP3   OH236375   1.756   0.557   0.163  0.1073  0.4308  0.3554
 4987TIP3    H136376   1.686   0.608   0.204  0.1167 -1.2818  2.7444
 4987TIP3    H236377   1.832   0.615   0.164 -0.6714  1.4844 -0.0551
 4988TIP3   OH236378   1.230   3.767  11.196 -0.7431 -0.0246  0.0532
 4988TIP3    H136379   1.204   3.786  11.105 -1.2200 -0.4947  0.0885
 4988TIP3    H236380   1.191   3.838  11.247 -1.6820 -0.5293  0.0615
 4989TIP3   OH236381   4.283   3.205  15.293  0.0989  0.2345  0.2965
 4989TIP3    H136382   4.197   3.184  15.328  1.5017 -2.5695  2.5309
 4989TIP3    H236383   4.335   3.231  15.369  1.7833 -0.4167 -0.5618
 4990TIP3   OH236384   1.720   2.694   3.650  0.3595  0.3798  0.1216
 4990TIP3    H136385   1.642   2.682   3.704 -0.7082  0.4144 -1.3713
 4990TIP3    H236386   1.720   2.620   3.590  0.1997  1.5705 -1.4014
 4991TIP3   OH236387   1.908   4.428  14.564  0.3015 -0.2881 -0.2098
 4991TIP3    H136388   1.926   4.468  14.479  0.9942 -0.1853 -0.0269
 4991TIP3    H236389   1.814   4.411  14.564 -0.1035  1.7485 -0.1239
 4992TIP3   OH236390   0.721   2.775   1.989 -0.1920  0.3358 -0.4629
 4992TIP3    H136391   0.716   2.679   1.990  2.2414  0.1598 -0.1648
 4992TIP3    H236392   0.653   2.802   1.927  0.0111 -1.6797 -1.6567
 4993TIP3   OH236393   5.023   3.205   2.134  0.3798 -0.3015  0.4046
 4993TIP3    H136394   5.100   3.208   2.077  0.0758 -0.2903 -0.0061
 4993TIP3    H236395   5.026   3.117   2.173 -0.4403 -1.0340 -1.0834
 4994TIP3   OH236396   3.684   5.625   1.344  0.2479 -0.3254  0.8774
 4994TIP3    H136397   3.619   5.691   1.369  0.7505 -0.3802  2.5021
 4994TIP3    H236398   3.655   5.545   1.388 -0.1063 -1.1089 -0.7047
 4995TIP3   OH236399   1.603   4.321   4.844  0.6159  0.3168 -0.1160
 4995TIP3    H136400   1.658   4.399   4.848 -1.3963  1.7591  2.4485
 4995TIP3    H236401   1.535   4.342   4.781  1.4186 -0.4301 -1.2869
 4996TIP3   OH236402   3.179   5.661  13.017 -0.0537  0.1494 -0.2546
 4996TIP3    H136403   3.098   5.615  13.038  0.3579 -1.2066 -1.4880
 4996TIP3    H236404   3.247   5.612  13.063  0.2767  0.1619 -0.7204
 4997TIP3   OH236405   3.605   1.641   0.643  0.2429  0.1612 -0.4768
 4997TIP3    H136406   3.587   1.547   0.652 -2.3533  0.6756  0.4961
 4997TIP3    H236407   3.518   1.681   0.636  1.3139  2.4570 -1.4420
 4998TIP3   OH236408   5.740   6.713   5.120  0.2937 -0.0885 -0.4016
 4998TIP3    H136409   5.835   6.722   5.114  0.7374 -1.5559  2.6219
 4998TIP3    H236410   5.707   6.803   5.112  1.8664  0.4314 -1.6594
 4999TIP3   OH236411   4.257   1.703   5.856  0.1893 -0.3127 -0.4867
 4999TIP3    H136412   4.295   1.766   5.794  0.4867 -3.8044 -4.3269
 4999TIP3    H236413   4.327   1.640   5.873 -0.8511 -1.1597  0.9443
 5000TIP3   OH236414   0.607   6.571  15.848  0.4074  0.1505 -0.0144
 5000TIP3    H136415   0.685   6.580  15.792  0.7329 -1.5432  0.1093
 5000TIP3    H236416   0.604   6.653  15.898  1.6010  0.6179 -0.6644
 5001TIP3   OH236417   6.136   1.351  11.635 -0.3311 -0.1112 -0.1477
 5001TIP3    H136418   6.112   1.292  11.563 -0.6333 -0.9873  0.6619
 5001TIP3    H236419   6.105   1.307  11.714  1.4989  0.0413  0.6896
 5002TIP3   OH236420   0.547   1.183  14.671 -0.1131 -0.3711 -0.1639
 5002TIP3    H136421   0.472   1.229  14.708 -0.7988 -0.6864 -1.1221
 5002TIP3    H236422   0.582   1.244  14.606  1.3206  0.3422  1.2093
 5003TIP3   OH236423   2.626   4.692   5.079 -0.4315 -0.4542 -0.6434
 5003TIP3    H136424   2.630   4.596   5.076 -2.4191 -0.5827 -1.4014
 5003TIP3    H236425   2.592   4.717   4.993  0.3411  0.9756 -0.5705
 5004TIP3   OH236426   1.064   5.311  15.163 -0.3210  0.0421  0.1595
 5004TIP3    H136427   0.970   5.329  15.162 -0.5882 -1.2113  0.3251
 5004TIP3    H236428   1.105   5.397  15.167 -1.4784  0.5878  0.8505
 5005TIP3   OH236429   6.048   2.715  11.952  0.3294 -0.4953  0.2648
 5005TIP3    H136430   6.006   2.631  11.937 -0.0226 -0.2821  0.0245
 5005TIP3    H236431   6.046   2.758  11.866 -1.3376  0.5827  0.7955
 5006TIP3   OH236432   6.621   3.860  15.956  0.0316 -0.1720  0.2616
 5006TIP3    H136433   6.587   3.936  15.909 -0.6245 -1.3945 -1.3369
 5006TIP3    H236434   6.714   3.855  15.932  0.0267 -0.0025  0.2130
 5007TIP3   OH236435   6.561   3.545   5.835 -0.6633  0.1377 -0.1211
 5007TIP3    H136436   6.623   3.528   5.763  0.5361  0.7301  0.7438
 5007TIP3    H236437   6.562   3.464   5.886 -2.7220 -0.8977 -1.5754
 5008TIP3   OH236438   0.068   4.558   2.342 -0.1124  0.2611 -0.2095
 5008TIP3    H136439   0.052   4.585   2.251  0.0803 -0.5205 -0.4858
 5008TIP3    H236440   0.041   4.633   2.394 -0.7326  0.5279 -0.8864
 5009TIP3   OH236441   3.181   0.436  14.252 -0.2640 -0.1457 -0.3298
 5009TIP3    H136442   3.232   0.442  14.170  0.2343 -0.6591 -0.0652
 5009TIP3    H236443   3.183   0.525  14.287  0.2562 -0.1092 -0.4432
 5010TIP3   OH236444   2.893   4.812   4.810 -0.1005  0.1247 -0.0909
 5010TIP3    H136445   2.829   4.866   4.857 -0.3298 -0.3908  0.2017
 5010TIP3    H236446   2.891   4.846   4.720 -1.0961 -0.1418 -0.1924
 5011TIP3   OH236447   3.640   1.485   3.445  0.0254  0.8042 -0.5461
 5011TIP3    H136448   3.654   1.578   3.427  1.2144  0.5819 -0.8446
 5011TIP3    H236449   3.661   1.441   3.363 -1.8124  0.3538 -0.8139
 5012TIP3   OH236450   6.043   0.658  12.175 -0.3871 -0.8057 -0.3036
 5012TIP3    H136451   6.025   0.578  12.125  0.8368 -0.0633 -2.0151
 5012TIP3    H236452   6.101   0.629  12.246 -0.8523 -1.6161 -0.2446
 5013TIP3   OH236453   5.056   5.267  15.663 -0.3809  0.2843  0.4542
 5013TIP3    H136454   5.063   5.360  15.687  0.6405  0.5684 -0.8486
 5013TIP3    H236455   5.055   5.267  15.568 -0.4509 -1.0599  0.4427
 5014TIP3   OH236456   5.968   4.415  10.724  0.3621 -0.3235 -0.3994
 5014TIP3    H136457   5.925   4.489  10.682  1.5167  0.1854 -0.7109
 5014TIP3    H236458   6.053   4.449  10.753 -0.2021 -0.7721  1.9723
 5015TIP3   OH236459   5.679   6.732  17.051  0.6423 -0.3798 -0.0593
 5015TIP3    H136460   5.722   6.699  16.973 -0.4553 -0.5082 -0.6286
 5015TIP3    H236461   5.707   6.824  17.057 -1.1007  0.3483 -1.9832
 5016TIP3   OH236462   1.921   0.584  16.525  0.1099  0.1753 -0.3114
 5016TIP3    H136463   1.829   0.587  16.497  0.2014  0.8626 -0.5489
 5016TIP3    H236464   1.945   0.491  16.518 -0.3888  0.0800 -0.8264
 5017TIP3   OH236465   1.912   6.419   4.892 -0.5193 -0.4691  0.8120
 5017TIP3    H136466   1.846   6.350   4.890 -0.6350 -0.5777  3.9289
 5017TIP3    H236467   1.861   6.501   4.895 -0.3839 -0.0814 -2.7630
 5018TIP3   OH236468   0.032   5.331  14.437  0.7086 -0.1072 -0.3215
 5018TIP3    H136469  -0.049   5.378  14.418  1.5120  1.4718  0.0134
 5018TIP3    H236470   0.006   5.239  14.439 -1.6086  0.4577  2.1653
 5019TIP3   OH236471   0.154   6.049   6.254 -0.0465 -0.5769  0.0948
 5019TIP3    H136472   0.243   6.084   6.242 -0.3548  0.0209 -0.4933
 5019TIP3    H236473   0.113   6.108   6.315  0.2937 -1.4728  1.2285
 5020TIP3   OH236474   3.881   6.623  16.788 -0.3435 -0.0808  0.5302
 5020TIP3    H136475   3.873   6.548  16.846 -0.4785 -1.3777 -1.0814
 5020TIP3    H236476   3.876   6.699  16.846 -2.4882 -1.2351  2.0290
 5021TIP3   OH236477   5.391   5.030   0.794  0.2195  0.5875 -0.3022
 5021TIP3    H136478   5.459   5.047   0.859 -1.2634 -0.7790  1.7151
 5021TIP3    H236479   5.426   4.958   0.741  0.4090 -0.0373  0.6464
 5022TIP3   OH236480   6.366   4.289  11.402  0.5976 -0.3107 -0.5715
 5022TIP3    H136481   6.407   4.259  11.320 -0.2431  0.3818 -1.2686
 5022TIP3    H236482   6.379   4.216  11.463  0.4218 -1.2315 -1.5932
 5023TIP3   OH236483   3.617   0.377   3.250  0.1174 -0.5111 -0.3005
 5023TIP3    H136484   3.543   0.410   3.300  0.8990 -0.3489  0.7872
 5023TIP3    H236485   3.689   0.374   3.313  1.2427  0.0602 -1.5121
 5024TIP3   OH236486   4.537   4.910   3.757 -0.2418 -0.0155  0.5441
 5024TIP3    H136487   4.503   4.999   3.771 -0.3230  0.2080 -0.9590
 5024TIP3    H236488   4.615   4.922   3.703  0.7611 -0.7469  1.7697
 5025TIP3   OH236489   3.415   3.248  15.119 -0.3778  0.4228 -0.0453
 5025TIP3    H136490   3.357   3.317  15.088  0.5563  2.1476  1.8107
 5025TIP3    H236491   3.360   3.192  15.174 -0.5890  1.3117  0.6663
 5026TIP3   OH236492   0.457   4.499   0.909  0.0806  0.3742 -0.0360
 5026TIP3    H136493   0.397   4.470   0.840  0.6989  2.5156 -1.6151
 5026TIP3    H236494   0.436   4.444   0.985 -0.1757 -2.5758 -2.0828
 5027TIP3   OH236495   2.030   3.298  15.080 -0.2220  0.2956  0.0333
 5027TIP3    H136496   1.945   3.342  15.075 -0.8997 -1.0691 -0.8574
 5027TIP3    H236497   2.025   3.227  15.016  1.2841 -0.3401  0.5693
 5028TIP3   OH236498   1.335   4.776  13.849  0.2381  0.2114  0.1723
 5028TIP3    H136499   1.323   4.843  13.916  0.7665 -0.5421  1.0542
 5028TIP3    H236500   1.247   4.748  13.826  0.0521  0.4790  0.5535
 5029TIP3   OH236501   1.562   1.928   0.352 -0.0645 -0.4650  0.1415
 5029TIP3    H136502   1.578   2.001   0.412 -1.5714 -0.5666  0.7189
 5029TIP3    H236503   1.527   1.968   0.273 -2.1123 -0.5848  0.9195
 5030TIP3   OH236504   5.151   1.797  10.759  0.0465 -0.1572 -0.7652
 5030TIP3    H136505   5.105   1.749  10.691  0.1449  1.5142 -2.0564
 5030TIP3    H236506   5.244   1.786  10.738  0.1282 -0.5652 -0.2262
 5031TIP3   OH236507   1.406   6.505  11.116  0.2097  0.5926 -0.0855
 5031TIP3    H136508   1.355   6.517  11.036  1.4031  0.3520 -0.9095
 5031TIP3    H236509   1.423   6.593  11.148  2.1170  0.8811 -1.6853
 5032TIP3   OH236510   1.783   5.283  14.748 -0.4276  0.2465  0.1554
 5032TIP3    H136511   1.738   5.255  14.669  1.5625 -0.7788 -0.6758
 5032TIP3    H236512   1.876   5.277  14.727  0.1737  0.0044  2.5447
 5033TIP3   OH236513   5.307   3.803  16.520 -0.3303 -0.4497  0.7083
 5033TIP3    H136514   5.383   3.804  16.462  0.5152 -1.2156  1.7550
 5033TIP3    H236515   5.232   3.812  16.461  0.5829  0.9510 -0.2967
 5034TIP3   OH236516   6.720   3.771   5.898  0.2785 -0.6432  0.5074
 5034TIP3    H136517   6.677   3.819   5.969  1.2232  0.4670  0.3565
 5034TIP3    H236518   6.652   3.713   5.864 -0.1855 -1.2170  2.3261
 5035TIP3   OH236519   2.928   1.316   4.698  0.0847 -0.0224  0.3934
 5035TIP3    H136520   2.920   1.253   4.626  0.6096  0.2192  0.1185
 5035TIP3    H236521   2.986   1.273   4.761  0.7999  0.3541  0.0064
 5036TIP3   OH236522   2.125   3.921  15.513  0.4488  0.1109  0.4653
 5036TIP3    H136523   2.128   3.978  15.590  0.5654 -0.7903  1.1532
 5036TIP3    H236524   2.151   3.835  15.546 -0.1061 -0.4340 -0.4605
 5037TIP3   OH236525   4.189   5.190  14.594 -0.3713 -0.3337  0.2134
 5037TIP3    H136526   4.272   5.177  14.640 -0.0383 -1.4976 -0.6758
 5037TIP3    H236527   4.179   5.112  14.540 -1.8648 -0.0344  0.0121
 5038TIP3   OH236528   4.543   4.445   2.160 -0.1823  0.9153  0.4327
 5038TIP3    H136529   4.521   4.360   2.199  0.1410  1.0171  0.8360
 5038TIP3    H236530   4.504   4.441   2.073 -0.6352  0.5621  0.6465
 5039TIP3   OH236531   2.490   5.075  11.996  0.4970  0.5596 -0.0877
 5039TIP3    H136532   2.404   5.098  11.961 -0.3937  2.4568  2.9913
 5039TIP3    H236533   2.482   4.983  12.023  0.6572 -0.3762 -2.8547
 5040TIP3   OH236534   2.274   3.838   3.426 -0.2061  0.8138 -0.2008
 5040TIP3    H136535   2.266   3.743   3.438 -1.0984  0.7727 -1.0150
 5040TIP3    H236536   2.241   3.875   3.508 -0.2346  0.4319 -0.0359
 5041TIP3   OH236537   3.239   0.516   4.881  1.1003  0.2424 -0.1848
 5041TIP3    H136538   3.328   0.543   4.855  1.3272 -0.3721 -0.0459
 5041TIP3    H236539   3.240   0.519   4.976  0.7921  0.7923 -0.1930
 5042TIP3   OH236540   0.066   4.194   1.695  0.3147 -0.3857 -0.3475
 5042TIP3    H136541   0.000   4.158   1.636 -0.6424 -0.9880  1.0332
 5042TIP3    H236542   0.040   4.285   1.708 -0.0984 -0.5509 -0.0106
 5043TIP3   OH236543   2.337   4.384  14.847  0.0563  0.2808 -0.8288
 5043TIP3    H136544   2.358   4.421  14.761  1.4694 -1.4851 -1.3167
 5043TIP3    H236545   2.398   4.428  14.907 -0.0838  0.6354 -0.9461
 5044TIP3   OH236546   0.935   1.760  11.455 -0.1423  0.1213  0.2845
 5044TIP3    H136547   0.867   1.764  11.522 -0.6809  1.6792 -0.2985
 5044TIP3    H236548   0.990   1.836  11.472  0.4070 -0.1290 -0.3191
 5045TIP3   OH236549   2.102   6.446   4.269  0.0166  0.2321  0.0417
 5045TIP3    H136550   2.058   6.494   4.199  1.1611  1.4210  0.0923
 5045TIP3    H236551   2.189   6.427   4.234 -0.0735 -0.9414  0.4115
 5046TIP3   OH236552   0.023   2.541  17.003 -0.7154 -0.2467 -0.3015
 5046TIP3    H136553   0.066   2.511  16.923  0.5518 -1.0554  0.6481
 5046TIP3    H236554   0.017   2.462  17.057 -2.8859 -0.0409 -0.1402
 5047TIP3   OH236555   4.485   0.245  13.592  0.0377  0.4651 -0.8589
 5047TIP3    H136556   4.473   0.305  13.518  0.1170  1.1661 -0.3099
 5047TIP3    H236557   4.404   0.253  13.642 -0.4076 -0.7067 -1.3441
 5048TIP3   OH236558   2.650   2.773  10.458  0.2251  0.2741  0.3384
 5048TIP3    H136559   2.664   2.759  10.365  0.7333  0.4917  0.3827
 5048TIP3    H236560   2.594   2.700  10.485  1.1542 -0.5246  0.1408
 5049TIP3   OH236561   4.530   2.284   0.020  0.5754  0.4752 -0.1528
 5049TIP3    H136562   4.581   2.211  -0.015 -1.5914 -1.4889  0.5599
 5049TIP3    H236563   4.570   2.302   0.105  1.6346  0.7173 -0.6795
 5050TIP3   OH236564   6.277   4.855   3.031 -0.1367  0.4946 -0.4412
 5050TIP3    H136565   6.328   4.922   2.986  0.2270  0.3295 -0.2763
 5050TIP3    H236566   6.207   4.904   3.075  1.4527  1.0728  1.6050
 5051TIP3   OH236567   2.119   2.714   5.364  0.0277 -0.0895 -0.2388
 5051TIP3    H136568   2.034   2.671   5.367  0.1608 -0.4334 -1.0939
 5051TIP3    H236569   2.171   2.660   5.304  0.7030  0.3693 -0.0771
 5052TIP3   OH236570   5.935   2.109  14.376  0.1044 -0.1293  0.2197
 5052TIP3    H136571   5.885   2.191  14.377  1.2206  0.6113 -1.2545
 5052TIP3    H236572   5.941   2.086  14.284  1.4103 -0.8687  0.4682
 5053TIP3   OH236573   0.405   3.105  12.064  0.0585  0.0874 -0.7026
 5053TIP3    H136574   0.346   3.172  12.099  0.0246  1.7613 -3.6265
 5053TIP3    H236575   0.488   3.151  12.051  0.2190 -0.5788 -2.1972
 5054TIP3   OH236576   2.745   0.959   5.466 -0.4950 -0.5963 -0.3346
 5054TIP3    H136577   2.803   0.883   5.476 -0.8065 -0.7572  0.2574
 5054TIP3    H236578   2.770   1.017   5.538  1.0473  0.7422 -1.8494
 5055TIP3   OH236579   6.475   3.764   5.586 -0.4706 -0.1867  0.0733
 5055TIP3    H136580   6.454   3.784   5.495 -0.1041 -3.1871 -0.7453
 5055TIP3    H236581   6.569   3.781   5.594  0.0755 -2.4307 -0.9300
 5056TIP3   OH236582   4.783   5.258  15.798 -0.1921 -0.2296  0.3919
 5056TIP3    H136583   4.856   5.317  15.818 -1.0677  1.1360 -0.2379
 5056TIP3    H236584   4.784   5.194  15.869  2.0791 -0.7463 -0.0057
 5057TIP3   OH236585   5.555   3.024   6.711 -0.3278 -0.8382  0.5458
 5057TIP3    H136586   5.526   3.015   6.620 -0.3295 -0.8791  0.5499
 5057TIP3    H236587   5.651   3.026   6.706 -0.3495  0.9202  0.3849
 5058TIP3   OH236588   4.139   1.049   0.899 -0.3497 -0.1779  0.5487
 5058TIP3    H136589   4.225   1.086   0.919 -0.6104  1.6244 -1.3158
 5058TIP3    H236590   4.158   0.971   0.847  0.2009  0.5435 -0.3788
 5059TIP3   OH236591   1.162   6.682   1.227 -0.4090  0.3605  0.2303
 5059TIP3    H136592   1.106   6.672   1.150 -0.7170  2.1084  0.1693
 5059TIP3    H236593   1.188   6.775   1.226 -0.8318  0.5697  2.4955
 5060TIP3   OH236594   0.429   0.124  13.089  0.3790 -0.2075  0.1029
 5060TIP3    H136595   0.512   0.149  13.131  0.4040  0.4666 -0.3391
 5060TIP3    H236596   0.418   0.187  13.018  1.0948 -2.2394 -1.9094
 5061TIP3   OH236597   4.077   6.226  15.642 -0.6058  0.4161 -0.4994
 5061TIP3    H136598   4.165   6.201  15.616 -0.2461  0.3723  0.7005
 5061TIP3    H236599   4.021   6.155  15.611 -0.3037  0.6970 -1.7217
 5062TIP3   OH236600   0.642   1.017  12.620  0.3681  0.1625  0.5489
 5062TIP3    H136601   0.631   0.957  12.694 -3.1488 -0.2645 -0.1443
 5062TIP3    H236602   0.613   1.102  12.654  3.0118  1.0179  0.8357
 5063TIP3   OH236603   1.203   2.175   2.868  0.4465 -0.3545 -0.2409
 5063TIP3    H136604   1.263   2.222   2.811 -0.7173  0.8279 -0.5501
 5063TIP3    H236605   1.151   2.121   2.808 -0.6058  0.6979 -0.3293
 5064TIP3   OH236606   5.900   6.306   2.403  0.2438 -0.0688 -0.0700
 5064TIP3    H136607   5.821   6.292   2.455 -0.3529  0.6905 -0.7449
 5064TIP3    H236608   5.954   6.229   2.420 -1.4422 -1.5489 -1.0347
 5065TIP3   OH236609   0.996   6.174   1.429 -0.5739  0.3037  0.1572
 5065TIP3    H136610   1.063   6.177   1.497 -0.3771 -0.4271 -0.0047
 5065TIP3    H236611   1.045   6.175   1.347 -0.7751  0.1066  0.0354
 5066TIP3   OH236612   4.893   2.862  12.347  0.4976  0.7409 -0.1057
 5066TIP3    H136613   4.912   2.812  12.268 -0.9927  0.4288 -0.3049
 5066TIP3    H236614   4.922   2.806  12.419  0.1871  0.2302 -0.3784
 5067TIP3   OH236615   1.981   2.728   1.669 -0.0632 -0.1448 -0.8433
 5067TIP3    H136616   1.893   2.761   1.687  1.4390  3.2058  1.2919
 5067TIP3    H236617   2.017   2.789   1.605  1.6105  0.2726  0.4433
 5068TIP3   OH236618   5.641   1.688  13.133 -0.3024  0.0235  0.7427
 5068TIP3    H136619   5.623   1.776  13.164  1.5507 -0.1845  2.6983
 5068TIP3    H236620   5.562   1.638  13.154 -1.1749  1.0840  0.0673
 5069TIP3   OH236621   5.461   0.820   0.709  0.4769 -0.1843 -0.2412
 5069TIP3    H136622   5.538   0.806   0.653 -0.4240  1.6268 -2.0660
 5069TIP3    H236623   5.488   0.887   0.771  0.6261 -0.1433 -0.3505
 5070TIP3   OH236624   0.413   5.505  14.642 -0.2934 -0.0510 -0.6514
 5070TIP3    H136625   0.338   5.450  14.662 -0.4338  0.1105 -0.7385
 5070TIP3    H236626   0.414   5.512  14.547  0.2380 -0.6265 -0.6966
 5071TIP3   OH236627   6.134   3.438   2.388  0.5566  0.2258  0.0051
 5071TIP3    H136628   6.141   3.350   2.426  0.7581  0.1286 -0.2539
 5071TIP3    H236629   6.203   3.489   2.432 -0.4112  0.6092  1.1132
 5072TIP3   OH236630   2.802   3.290   4.745 -0.0351 -0.3722  0.4791
 5072TIP3    H136631   2.894   3.315   4.753  0.1096  0.5602 -2.7043
 5072TIP3    H236632   2.762   3.320   4.827  2.2312  0.4219  1.3784
 5073TIP3   OH236633   1.049   4.280  12.646 -0.0740 -0.5057  0.2872
 5073TIP3    H136634   1.111   4.215  12.680  0.2429 -1.2887 -1.6106
 5073TIP3    H236635   0.980   4.227  12.605  0.1954  0.3202 -1.3166
 5074TIP3   OH236636   4.887   4.869   2.240  0.1216  0.6606  0.0382
 5074TIP3    H136637   4.831   4.901   2.170 -1.1387 -1.7788 -0.1942
 5074TIP3    H236638   4.871   4.775   2.242  4.2108 -0.1864  0.0368
 5075TIP3   OH236639   5.429   0.192   3.021  0.7524  0.2206  0.2907
 5075TIP3    H136640   5.485   0.118   2.995  1.2584  0.0230  1.8240
 5075TIP3    H236641   5.476   0.233   3.094  0.4850  2.0853 -0.5349
 5076TIP3   OH236642   2.252   3.469   5.297  0.3401  0.1194  0.7900
 5076TIP3    H136643   2.244   3.387   5.248 -0.3126  1.4311 -1.4364
 5076TIP3    H236644   2.310   3.448   5.369  3.3158 -1.4267 -1.8275
 5077TIP3   OH236645   0.614   6.679   0.926  0.1542  0.1439  0.5570
 5077TIP3    H136646   0.554   6.752   0.945  3.0284  3.1345 -0.9333
 5077TIP3    H236647   0.672   6.676   1.002 -0.1008 -0.8256  0.7229
 5078TIP3   OH236648   6.745   2.699   5.699 -0.5879  0.0089  0.0544
 5078TIP3    H136649   6.798   2.738   5.629  1.4385 -1.2142  0.8224
 5078TIP3    H236650   6.670   2.660   5.654 -0.0862  0.4962 -1.2569
 5079TIP3   OH236651   0.622   4.394  10.485 -0.2662 -0.4523 -0.7548
 5079TIP3    H136652   0.659   4.306  10.481 -0.8099 -0.7362  0.0936
 5079TIP3    H236653   0.671   4.439  10.553  0.3819  0.0980 -1.5658
 5080TIP3   OH236654   1.859   6.253   3.867 -0.3582  0.3946  0.1005
 5080TIP3    H136655   1.954   6.254   3.856 -0.4088 -0.4829 -0.4668
 5080TIP3    H236656   1.826   6.300   3.791 -0.4502 -0.8975 -0.6832
 5081TIP3   OH236657   2.800   0.178  12.957  0.2284 -0.0410  0.1380
 5081TIP3    H136658   2.747   0.196  13.035  0.6541  1.6903  0.0696
 5081TIP3    H236659   2.754   0.223  12.887  1.4278  0.9524 -0.0397
 5082TIP3   OH236660   0.424   2.933   4.087  0.1596  0.1828  0.0825
 5082TIP3    H136661   0.423   2.841   4.114 -0.8344  0.1799  0.0711
 5082TIP3    H236662   0.501   2.940   4.031  1.1735 -0.2496  1.3891
 5083TIP3   OH236663   5.678   4.277   0.635 -1.2255  0.2933  0.1876
 5083TIP3    H136664   5.697   4.296   0.727  0.6844  0.8395 -0.2814
 5083TIP3    H236665   5.629   4.195   0.637  1.7425 -1.5669  1.5495
 5084TIP3   OH236666   3.705   3.000   1.213  0.2816  0.3518 -0.2223
 5084TIP3    H136667   3.647   2.943   1.264 -1.2772  1.2590 -0.8941
 5084TIP3    H236668   3.646   3.050   1.157  1.7782  1.0029 -1.2829
 5085TIP3   OH236669   1.889   3.006  11.573 -0.1983 -0.3223 -0.3622
 5085TIP3    H136670   1.828   3.066  11.529 -0.4577  0.2589  0.7584
 5085TIP3    H236671   1.857   2.919  11.552  0.0277 -0.0855 -1.8028
 5086TIP3   OH236672   3.959   0.435  12.254  0.2892  0.8535  0.3216
 5086TIP3    H136673   3.922   0.521  12.272  0.4037  0.7925  0.8729
 5086TIP3    H236674   3.885   0.375  12.262  0.2937  0.8515  0.3466
 5087TIP3   OH236675   4.103   6.708  13.747  0.3304  0.0682  0.1352
 5087TIP3    H136676   4.103   6.778  13.681  0.2959 -1.8050 -1.9656
 5087TIP3    H236677   4.028   6.728  13.803 -1.0928  0.5092 -1.8200
 5088TIP3   OH236678   0.209   2.661  12.588 -0.6211  0.0912 -0.3643
 5088TIP3    H136679   0.276   2.609  12.542 -0.1518  1.1053 -0.8638
 5088TIP3    H236680   0.191   2.611  12.668 -0.6648 -1.1685 -1.1309
 5089TIP3   OH236681   5.654   2.280   4.160  0.1922 -0.0823 -0.4785
 5089TIP3    H136682   5.599   2.277   4.082  1.5675  0.0343 -1.4791
 5089TIP3    H236683   5.646   2.192   4.198 -0.1639 -0.2693 -0.9709
 5090TIP3   OH236684   4.757   4.769  12.988  0.1982 -0.2630  0.3489
 5090TIP3    H136685   4.828   4.831  13.000  0.2303 -0.5710  2.0447
 5090TIP3    H236686   4.720   4.791  12.902  1.8392  0.3806 -0.2301
 5091TIP3   OH236687   3.789   3.346   0.103 -0.1209  0.2589 -0.5965
 5091TIP3    H136688   3.733   3.416   0.070  1.6870  2.9238  1.5340
 5091TIP3    H236689   3.733   3.296   0.162 -0.6815  1.9547  0.3668
 5092TIP3   OH236690   3.810   1.717   6.629  0.5423 -0.4084  0.2853
 5092TIP3    H136691   3.720   1.718   6.661  0.0437  1.0992 -1.0133
 5092TIP3    H236692   3.862   1.689   6.704 -0.8846 -0.2046  1.4009
 5093TIP3   OH236693   1.046   5.573  17.161 -0.0489  0.1837 -0.3947
 5093TIP3    H136694   1.138   5.549  17.161 -0.0031  0.1066 -3.1324
 5093TIP3    H236695   1.030   5.605  17.250  2.7222  0.7262  0.0063
 5094TIP3   OH236696   5.017   6.521   1.580 -0.4742  0.4279  0.0547
 5094TIP3    H136697   4.995   6.526   1.487  0.5326 -1.1844 -0.3076
 5094TIP3    H236698   5.112   6.529   1.583 -0.3225 -1.1962  0.7500
 5095TIP3   OH236699   4.791   1.721   3.346 -0.3815 -0.0060  0.1051
 5095TIP3    H136700   4.818   1.686   3.430 -0.7117 -1.1418 -0.2498
 5095TIP3    H236701   4.704   1.757   3.361 -0.6449 -0.6526  0.1387
 5096TIP3   OH236702   2.224   2.085   0.643 -0.0688 -0.0784  0.5260
 5096TIP3    H136703   2.136   2.086   0.604 -0.4009  1.0379  1.2422
 5096TIP3    H236704   2.268   2.012   0.600 -1.1918 -0.3706 -0.1942
 5097TIP3   OH236705   5.284   4.837   2.260  0.4541 -1.0107  0.2783
 5097TIP3    H136706   5.358   4.781   2.284  1.0208 -0.5744 -0.4231
 5097TIP3    H236707   5.232   4.843   2.340  1.1781 -1.3224  0.7830
 5098TIP3   OH236708   2.894   6.662  13.654  0.2479  0.5024  0.3956
 5098TIP3    H136709   2.876   6.753  13.679  1.7058  1.3113 -1.2478
 5098TIP3    H236710   2.975   6.667  13.602 -0.0434 -1.6390 -0.3658
 5099TIP3   OH236711   1.699   1.812  11.893 -0.5700 -0.6094  0.1539
 5099TIP3    H136712   1.755   1.814  11.970  0.9152  0.9419 -0.9080
 5099TIP3    H236713   1.622   1.762  11.921 -0.2616  0.2164  2.7418
 5100TIP3   OH236714   6.142   0.280   0.084  0.8347  0.1123 -0.0115
 5100TIP3    H136715   6.221   0.225   0.079 -0.0943 -1.2095 -0.8686
 5100TIP3    H236716   6.144   0.332   0.003  0.7880  0.0134 -0.0768
 5101TIP3   OH236717   1.493   2.848  12.716 -0.1284 -0.0551  0.2170
 5101TIP3    H136718   1.579   2.817  12.743  0.0317 -0.1837 -0.4211
 5101TIP3    H236719   1.432   2.808  12.779  0.2628 -0.0283  0.6191
 5102TIP3   OH236720   1.611   4.901   3.115  0.0702 -0.1405 -1.2723
 5102TIP3    H136721   1.603   4.861   3.201  0.5153  1.3408 -0.5118
 5102TIP3    H236722   1.632   4.828   3.057  0.1685 -1.1043 -0.0697
 5103TIP3   OH236723   3.843   6.204  16.105 -1.0081  0.4636 -0.4129
 5103TIP3    H136724   3.917   6.175  16.051 -0.3816  0.1033  0.6167
 5103TIP3    H236725   3.860   6.297  16.121  0.5017 -0.0858  1.7145
 5104TIP3   OH236726   3.253   5.166   3.293  0.0162  0.3667 -0.0929
 5104TIP3    H136727   3.196   5.219   3.237  0.7053  2.2817  0.9355
 5104TIP3    H236728   3.202   5.154   3.374 -0.1055 -0.4952 -0.2931
 5105TIP3   OH236729   0.394   3.064  13.043  0.0724 -0.0032 -0.1872
 5105TIP3    H136730   0.368   3.143  12.995  1.8754 -0.0614 -1.3425
 5105TIP3    H236731   0.364   2.992  12.988  1.1851 -0.0771 -0.7207
 5106TIP3   OH236732   0.130   5.627  15.741 -0.0201  0.5105 -0.0143
 5106TIP3    H136733   0.130   5.532  15.741 -0.0238  0.5100 -0.1350
 5106TIP3    H236734   0.154   5.651  15.651  0.8876  0.6248  0.2495
 5107TIP3   OH236735   2.149   0.443  12.484 -0.4792  0.0110  0.1383
 5107TIP3    H136736   2.199   0.449  12.402 -0.5406 -0.1447  0.0906
 5107TIP3    H236737   2.137   0.535  12.510 -0.2114  0.0528  0.1244
 5108TIP3   OH236738   0.658   0.040   4.587  0.0065 -0.3892  0.0941
 5108TIP3    H136739   0.679   0.040   4.681  0.6755  0.9051 -0.0336
 5108TIP3    H236740   0.739   0.013   4.545  0.3166  0.8909 -0.1902
 5109TIP3   OH236741   0.163   6.553  15.315 -0.2931  0.4647  0.0290
 5109TIP3    H136742   0.206   6.518  15.237  0.7747  0.7968  0.4636
 5109TIP3    H236743   0.128   6.475  15.360 -0.2895  0.2093 -0.4014
 5110TIP3   OH236744   1.648   2.506  12.814  0.3030 -0.0642  0.5078
 5110TIP3    H136745   1.737   2.482  12.789  0.5252  0.7597  0.4878
 5110TIP3    H236746   1.657   2.550  12.898  0.1127  1.4494 -0.2337
 5111TIP3   OH236747   3.358   3.445  11.926 -0.0241  0.1943  0.1466
 5111TIP3    H136748   3.307   3.408  11.998  0.2917 -0.7613 -0.1029
 5111TIP3    H236749   3.362   3.538  11.945 -0.3266  0.0220  1.1314
 5112TIP3   OH236750   0.800   3.570   0.695  0.6235 -0.0085 -0.6666
 5112TIP3    H136751   0.711   3.535   0.696 -0.3347  2.2899 -0.4023
 5112TIP3    H236752   0.843   3.521   0.625 -0.7937 -1.2543 -0.7242
 5113TIP3   OH236753   5.691   1.969  14.430 -0.0324 -0.2422  0.2234
 5113TIP3    H136754   5.627   2.024  14.385  0.4206  1.8712  1.9945
 5113TIP3    H236755   5.766   2.026  14.444  2.2912 -2.5882 -1.6184
 5114TIP3   OH236756   5.749   3.119   1.910 -0.2633  0.8063  0.0544
 5114TIP3    H136757   5.749   3.036   1.862  0.1852  1.2317 -0.6985
 5114TIP3    H236758   5.793   3.099   1.992 -1.2860 -0.0021  0.4403
 5115TIP3   OH236759   3.576   0.525   3.567 -0.1857  0.0424  1.3150
 5115TIP3    H136760   3.621   0.441   3.557  0.1528  0.2091  1.4219
 5115TIP3    H236761   3.512   0.510   3.637  0.2719  0.0331  1.7340
 5116TIP3   OH236762   1.017   4.452   1.559 -0.0333  0.3020  0.6790
 5116TIP3    H136763   1.000   4.467   1.653 -2.8653 -1.1085  0.5198
 5116TIP3    H236764   0.993   4.534   1.517 -0.1566  0.4797  1.0900
 5117TIP3   OH236765   4.178   2.648  16.010 -0.0178 -0.1387 -0.1078
 5117TIP3    H136766   4.157   2.566  15.965  2.5420 -0.8744 -0.0974
 5117TIP3    H236767   4.174   2.625  16.103  2.3433 -0.8039 -0.1036
 5118TIP3   OH236768   0.762   1.408   1.560 -0.2740  0.0209  0.1811
 5118TIP3    H136769   0.788   1.362   1.481 -1.1347 -0.6603  0.2805
 5118TIP3    H236770   0.773   1.501   1.539 -0.3223 -0.1606 -0.6681
 5119TIP3   OH236771   5.242   3.184  12.051  0.5927 -0.3711  0.0475
 5119TIP3    H136772   5.219   3.271  12.018  0.5054  0.7650  2.8472
 5119TIP3    H236773   5.316   3.157  11.996  0.6006  1.4452 -0.9263
 5120TIP3   OH236774   0.014   3.054   1.394 -0.2961 -0.0763 -0.7793
 5120TIP3    H136775   0.031   3.063   1.488 -3.4750  4.4751 -0.3412
 5120TIP3    H236776   0.068   3.123   1.354 -0.0658 -1.0292 -2.1664
 5121TIP3   OH236777   0.116   0.676   5.756 -0.1220  0.0608 -0.0473
 5121TIP3    H136778   0.110   0.717   5.670 -1.0108  1.9097  0.8371
 5121TIP3    H236779   0.193   0.716   5.796  0.4398 -0.9825 -0.0470
 5122TIP3   OH236780   5.139   6.600  14.685 -0.1825 -0.1232 -0.0618
 5122TIP3    H136781   5.094   6.515  14.687  0.8781 -0.7401 -1.0607
 5122TIP3    H236782   5.071   6.662  14.661 -1.4954 -0.2842  2.7775
 5123TIP3   OH236783   1.235   1.603   1.941 -0.1423 -0.2812  0.0958
 5123TIP3    H136784   1.304   1.546   1.973 -0.9205 -1.5348 -0.3996
 5123TIP3    H236785   1.196   1.640   2.020 -0.5406 -1.5481  0.5220
 5124TIP3   OH236786   2.504   0.416  11.512 -0.2628 -0.7268 -0.7491
 5124TIP3    H136787   2.457   0.352  11.565 -0.9785  1.5984  1.6214
 5124TIP3    H236788   2.435   0.471  11.474  0.3713  0.6226 -0.0284
 5125TIP3   OH236789   2.936   0.151   5.954  0.8481  0.4522  0.6567
 5125TIP3    H136790   2.873   0.157   5.882  1.8081 -1.2236 -0.3947
 5125TIP3    H236791   2.882   0.140   6.032 -0.1828  0.6550 -0.0104
 5126TIP3   OH236792   3.225   1.415  14.535  0.0135 -0.2543  0.1883
 5126TIP3    H136793   3.141   1.449  14.565  0.0486  0.6632 -0.7101
 5126TIP3    H236794   3.285   1.490  14.541  0.4859 -0.5858 -0.2769
 5127TIP3   OH236795   1.525   3.231   0.821  0.5057  0.0766  0.3326
 5127TIP3    H136796   1.538   3.311   0.769  1.0204  1.0274  1.8647
 5127TIP3    H236797   1.438   3.241   0.860  1.4271  0.9997  2.2927
 5128TIP3   OH236798   1.553   1.099  12.619  0.4167 -0.0749  0.1247
 5128TIP3    H136799   1.530   1.164  12.552  0.0774 -1.5527 -1.2492
 5128TIP3    H236800   1.631   1.055  12.584 -0.3718 -1.5707  0.1890
 5129TIP3   OH236801   1.219   1.742   6.141 -0.4340 -0.5274 -0.1629
 5129TIP3    H136802   1.138   1.762   6.093 -0.9566  1.1855  1.3162
 5129TIP3    H236803   1.219   1.803   6.215  0.6574 -2.6319  1.6817
 5130TIP3   OH236804   0.633   0.348  14.797 -0.5988 -0.3019  0.0956
 5130TIP3    H136805   0.599   0.340  14.708  0.3818  0.5292 -0.3746
 5130TIP3    H236806   0.712   0.294  14.796  1.2949  2.2808 -0.5822
 5131TIP3   OH236807   5.175   6.026   2.723  0.2917 -0.0577  0.0757
 5131TIP3    H136808   5.220   5.992   2.646  1.6444 -0.5723  1.0456
 5131TIP3    H236809   5.085   6.044   2.693  0.5424 -1.0587 -1.3781
 5132TIP3   OH236810   0.072   0.012  17.005 -0.0329 -0.7959 -0.8345
 5132TIP3    H136811  -0.021  -0.007  17.000  0.4317 -3.7036 -0.2874
 5132TIP3    H236812   0.112  -0.070  17.037  2.7416  0.2102 -1.3973
 5133TIP3   OH236813   4.292   2.033  11.320 -0.1527  0.7435  0.6802
 5133TIP3    H136814   4.240   2.046  11.400  0.3813  3.0331  0.7407
 5133TIP3    H236815   4.263   2.103  11.261  1.6529  1.0537  0.0911
 5134TIP3   OH236816   5.136   3.435  12.039  0.5781  0.0364 -0.1024
 5134TIP3    H136817   5.128   3.528  12.060 -0.6108  0.1359 -0.9167
 5134TIP3    H236818   5.096   3.426  11.952 -0.6361 -1.4555  0.5572
 5135TIP3   OH236819   2.328   5.909   4.508 -0.0045 -0.0467  0.0593
 5135TIP3    H136820   2.368   5.924   4.422  0.6338 -0.6132  0.2449
 5135TIP3    H236821   2.256   5.848   4.490 -0.0229  0.0224 -0.1066
 5136TIP3   OH236822   6.568   2.338   5.744 -0.2691  0.5911  0.1991
 5136TIP3    H136823   6.601   2.340   5.654  0.0729  2.4085  0.3360
 5136TIP3    H236824   6.481   2.377   5.738 -1.7109 -2.3479  0.1711
 5137TIP3   OH236825   5.114   3.705  12.045  0.0400 -0.1054 -0.1164
 5137TIP3    H136826   5.042   3.768  12.040 -2.0941 -2.0979  2.5726
 5137TIP3    H236827   5.177   3.745  12.104 -0.0303  0.6243 -0.5271
 5138TIP3   OH236828   5.873   4.912  13.089 -0.0704  0.5151  0.1310
 5138TIP3    H136829   5.819   4.955  13.022  0.3778  2.0834  0.7200
 5138TIP3    H236830   5.814   4.903  13.165 -0.1548  0.0961  0.0189
 5139TIP3   OH236831   5.970   3.787   0.921  0.7122 -0.1455 -0.2949
 5139TIP3    H136832   5.886   3.787   0.874 -0.1747  0.3798  1.2086
 5139TIP3    H236833   5.947   3.813   1.010  2.5323  0.3107  0.0785
 5140TIP3   OH236834   3.526   0.724   6.819 -0.7763 -0.0125 -0.0626
 5140TIP3    H136835   3.456   0.773   6.776 -1.3632  0.0631  0.9596
 5140TIP3    H236836   3.494   0.634   6.824 -0.9754  0.0978  0.7564
 5141TIP3   OH236837   4.249   5.173   2.643  0.0696 -0.5288  0.0262
 5141TIP3    H136838   4.335   5.182   2.603  0.5341  0.9374  1.2418
 5141TIP3    H236839   4.239   5.079   2.659  1.9903 -0.6120  0.9726
 5142TIP3   OH236840   2.572   4.370   2.067  0.3795 -0.3308  0.1134
 5142TIP3    H136841   2.552   4.286   2.108 -1.2064  1.0143  2.3242
 5142TIP3    H236842   2.539   4.435   2.129  4.8073  2.0758  0.3424
 5143TIP3   OH236843   6.622   4.783   3.668 -0.6196  0.4221  0.0920
 5143TIP3    H136844   6.530   4.764   3.652 -0.7238  1.9960 -1.5413
 5143TIP3    H236845   6.663   4.777   3.581  0.8633 -0.3651  0.7992
 5144TIP3   OH236846   2.353   0.703   1.646  0.0022  0.0943  0.3898
 5144TIP3    H136847   2.268   0.685   1.607 -0.1361  0.3986  0.5444
 5144TIP3    H236848   2.399   0.755   1.579  0.5802 -1.2100 -0.2526
 5145TIP3   OH236849   1.675   6.023   3.533 -0.0186 -0.0689  0.2836
 5145TIP3    H136850   1.771   6.032   3.528 -0.1505  0.8867 -2.1599
 5145TIP3    H236851   1.645   6.110   3.559 -0.2776  0.1952 -0.8443
 5146TIP3   OH236852   3.739   3.660   6.089  0.1227 -0.0535 -0.1899
 5146TIP3    H136853   3.817   3.630   6.135 -0.1575 -2.2507 -1.0068
 5146TIP3    H236854   3.770   3.729   6.031  0.8681  1.2119  1.6151
 5147TIP3   OH236855   1.534   4.195   5.067 -0.5123 -0.1378 -0.0917
 5147TIP3    H136856   1.513   4.263   5.002 -2.2665 -0.5065  0.0518
 5147TIP3    H236857   1.606   4.233   5.118 -1.7209  1.8338  0.2626
 5148TIP3   OH236858   0.722   0.837  13.402  0.7766  0.0010  0.2248
 5148TIP3    H136859   0.727   0.744  13.425  2.4379 -0.6572 -2.3849
 5148TIP3    H236860   0.807   0.857  13.362  0.8161  2.9319  1.4866
 5149TIP3   OH236861   3.220   2.278  10.745  0.2968 -0.8832 -0.0976
 5149TIP3    H136862   3.165   2.356  10.756 -1.2916 -1.6625 -1.9384
 5149TIP3    H236863   3.185   2.215  10.808  0.0285 -0.8799 -0.2394
 5150TIP3   OH236864   3.486   4.619   3.901 -0.0664  0.0961 -0.1438
 5150TIP3    H136865   3.489   4.524   3.892  0.6795 -0.0121  0.9763
 5150TIP3    H236866   3.393   4.641   3.899 -0.3817 -0.8959  1.5431
 5151TIP3   OH236867   1.444   6.306   0.592  0.1883  0.2422  0.1156
 5151TIP3    H136868   1.449   6.216   0.624 -1.8248  0.4304  1.1236
 5151TIP3    H236869   1.427   6.358   0.670  1.2528  1.5153 -0.4680
 5152TIP3   OH236870   4.767   2.777   2.847 -0.2469  0.0763  0.3207
 5152TIP3    H136871   4.681   2.736   2.851 -1.1799  2.0152  2.0225
 5152TIP3    H236872   4.807   2.755   2.931  0.0004  1.0434  0.4615
 5153TIP3   OH236873   0.214   1.112  13.262 -0.0500  0.3152 -0.3055
 5153TIP3    H136874   0.171   1.052  13.201  0.5470  0.4420 -0.8627
 5153TIP3    H236875   0.291   1.063  13.293  0.4207  0.7648 -0.7382
 5154TIP3   OH236876   5.079   1.332  15.181  0.2955 -0.3527 -0.4290
 5154TIP3    H136877   4.998   1.381  15.169 -0.5128 -1.6151 -0.3382
 5154TIP3    H236878   5.055   1.241  15.162  1.4535 -0.8938  0.5321
 5155TIP3   OH236879   3.555   1.909   0.445 -0.0398  0.1228  0.1275
 5155TIP3    H136880   3.642   1.890   0.411 -0.0195 -1.3518  0.9149
 5155TIP3    H236881   3.506   1.944   0.370  0.4438 -1.5453 -1.0054
 5156TIP3   OH236882   5.107   6.106  12.589  0.0336 -0.2674 -0.1441
 5156TIP3    H136883   5.103   6.184  12.645 -1.6397 -0.1986 -0.2978
 5156TIP3    H236884   5.179   6.124  12.528  0.3163  0.7207  0.4585
 5157TIP3   OH236885   5.274   1.739  16.285  0.7534 -0.0240 -0.3299
 5157TIP3    H136886   5.335   1.800  16.243 -0.0662  0.0575 -1.4463
 5157TIP3    H236887   5.297   1.742  16.378  0.5738  2.1629 -0.3156
 5158TIP3   OH236888   2.243   3.482  14.370  0.1033  0.2692 -0.0378
 5158TIP3    H136889   2.284   3.395  14.378  0.4065  0.2669 -1.3474
 5158TIP3    H236890   2.151   3.463  14.354 -0.0400  0.2216  0.8229
 5159TIP3   OH236891   2.842   1.315   2.013  0.1649  0.4739  0.2143
 5159TIP3    H136892   2.861   1.403   2.047  1.0726  0.1414  0.6198
 5159TIP3    H236893   2.767   1.327   1.955  1.0199  1.7365 -0.6884
 5160TIP3   OH236894   2.064   4.711  13.197 -0.7494  0.0969  0.2257
 5160TIP3    H136895   2.147   4.670  13.174 -0.8465 -1.4997  2.4629
 5160TIP3    H236896   2.063   4.712  13.292 -2.2260  2.4096  0.2750
 5161TIP3   OH236897   2.455   0.293   2.527 -0.4361  0.4173  0.0573
 5161TIP3    H136898   2.493   0.351   2.461  2.1969  0.5550  1.5807
 5161TIP3    H236899   2.494   0.207   2.508  0.0586  0.3810  1.1687
 5162TIP3   OH236900   3.241   2.137   4.712  0.5927  0.0639  0.8164
 5162TIP3    H136901   3.246   2.213   4.654  2.5264 -0.5262  0.1134
 5162TIP3    H236902   3.260   2.062   4.656  0.6239 -0.7405  1.8589
 5163TIP3   OH236903   6.596   1.554   4.385  0.7192  0.3720  0.7251
 5163TIP3    H136904   6.627   1.604   4.461  0.5982 -0.0157  1.0346
 5163TIP3    H236905   6.557   1.619   4.328 -1.0583  0.4357  1.9283
 5164TIP3   OH236906   5.980   3.859  15.660 -0.2237 -0.1762  0.6304
 5164TIP3    H136907   6.036   3.916  15.608  1.4284 -4.1127 -2.4338
 5164TIP3    H236908   5.901   3.848  15.606  0.8663 -3.1300 -0.5486
 5165TIP3   OH236909   1.491   6.448  17.023  0.0651  0.0110 -0.2982
 5165TIP3    H136910   1.443   6.470  17.103  2.0972 -4.0045  2.3779
 5165TIP3    H236911   1.440   6.378  16.983  0.8064 -0.3938 -0.5460
 5166TIP3   OH236912   6.235   5.803   0.498  0.8688 -0.6192  0.0171
 5166TIP3    H136913   6.216   5.804   0.592 -0.1012 -0.8482 -0.1680
 5166TIP3    H236914   6.217   5.892   0.469 -0.6241 -0.9815 -0.2727
 5167TIP3   OH236915   0.678   5.951  12.085  0.4368  0.1616  0.0726
 5167TIP3    H136916   0.616   5.942  12.158  1.6670  1.8059  1.4175
 5167TIP3    H236917   0.623   5.953  12.007 -1.2347  1.4888  1.2037
 5168TIP3   OH236918   2.497   3.379  11.398  0.1359 -0.9110  0.2716
 5168TIP3    H136919   2.456   3.400  11.482  1.3407  0.0769  0.6391
 5168TIP3    H236920   2.445   3.306  11.364 -2.5335  0.8968  0.2134
 5169TIP3   OH236921   2.464   1.534  16.058 -0.0615  0.0004 -0.0017
 5169TIP3    H136922   2.558   1.526  16.072 -0.1810 -2.3650 -0.1011
 5169TIP3    H236923   2.431   1.572  16.139  0.6621 -2.0956  1.3594
 5170TIP3   OH236924   3.745   2.489   4.072 -0.4118 -0.6639 -0.4880
 5170TIP3    H136925   3.793   2.491   3.989 -0.2841  0.1178 -0.4043
 5170TIP3    H236926   3.749   2.579   4.104 -0.5498 -0.9347  0.3182
 5171TIP3   OH236927   6.441   1.154  15.822 -0.7712  0.2509 -0.8096
 5171TIP3    H136928   6.347   1.144  15.808 -1.5062  1.1601  2.5363
 5171TIP3    H236929   6.455   1.249  15.820 -0.0318  0.1506 -0.6859
 5172TIP3   OH236930   5.935   4.969   4.205 -0.5474 -0.1924 -0.4265
 5172TIP3    H136931   5.971   5.057   4.220 -0.8921 -0.1367  0.1067
 5172TIP3    H236932   6.004   4.923   4.158 -0.1127  0.1720 -0.1560
 5173TIP3   OH236933   2.847   1.146  12.504  0.6055  0.4644 -0.1873
 5173TIP3    H136934   2.890   1.094  12.436  1.5149  0.7071  0.1815
 5173TIP3    H236935   2.883   1.113  12.586  1.8451  2.1675  0.0274
 5174TIP3   OH236936   6.403   3.488  13.203 -0.1144 -0.0426  0.5783
 5174TIP3    H136937   6.462   3.515  13.133 -0.0738  0.4682  0.7990
 5174TIP3    H236938   6.454   3.427  13.256 -0.7621 -1.9793 -0.9078
 5175TIP3   OH236939   1.915   5.004  15.200 -0.5351  0.2316 -0.2182
 5175TIP3    H136940   1.957   5.089  15.210  1.8773 -0.8204 -0.6753
 5175TIP3    H236941   1.970   4.944  15.251  0.6571 -1.8402 -3.5961
 5176TIP3   OH236942   2.047   1.065  15.632 -0.3095  0.7518 -0.2693
 5176TIP3    H136943   2.106   1.131  15.668  0.9055 -0.2274 -0.3795
 5176TIP3    H236944   2.025   1.009  15.706  0.1045  0.2544 -0.5118
 5177TIP3   OH236945   6.712   0.103   6.176  0.0054  0.2127  0.5459
 5177TIP3    H136946   6.681   0.129   6.263  0.5956 -0.2398  0.9068
 5177TIP3    H236947   6.764   0.177   6.145  1.1773 -0.2491  1.3084
 5178TIP3   OH236948   3.247   6.472  11.976 -0.3348 -0.1609 -0.0681
 5178TIP3    H136949   3.198   6.551  11.999  0.6314 -0.2862  2.7595
 5178TIP3    H236950   3.187   6.400  11.998  0.1376 -0.2595  0.9397
 5179TIP3   OH236951   3.180   2.246   1.033 -0.2485  0.0289  0.1482
 5179TIP3    H136952   3.146   2.230   1.121  1.2252  0.1479  0.7764
 5179TIP3    H236953   3.272   2.217   1.037  0.8004  2.9464 -0.4103
 5180TIP3   OH236954   3.732   2.184   1.803  0.1733 -0.6798 -0.0857
 5180TIP3    H136955   3.638   2.200   1.791  0.3662  0.2718 -0.4475
 5180TIP3    H236956   3.760   2.251   1.865  0.0051 -3.0021  2.7262
 5181TIP3   OH236957   1.300   2.043  12.073 -0.0379  0.0772 -0.5704
 5181TIP3    H136958   1.244   1.973  12.039 -0.4745 -0.5703  1.3819
 5181TIP3    H236959   1.244   2.093  12.133  1.0092  0.4313  0.1496
 5182TIP3   OH236960   4.622   2.983  16.432 -0.0147  0.8067 -0.2553
 5182TIP3    H136961   4.578   2.898  16.433  0.3760  0.6068 -0.0913
 5182TIP3    H236962   4.652   2.996  16.522  2.5585 -0.2667 -0.8929
 5183TIP3   OH236963   2.916   1.463  11.020  0.1091 -0.1909 -0.0856
 5183TIP3    H136964   2.931   1.545  10.974  0.8645 -0.7089 -0.8051
 5183TIP3    H236965   2.824   1.441  11.001 -0.4559  1.0480  1.0827
 5184TIP3   OH236966   4.699   2.410  14.054 -0.5309  0.2420 -0.5293
 5184TIP3    H136967   4.687   2.465  14.132  2.0860  0.4658 -0.1971
 5184TIP3    H236968   4.667   2.464  13.982 -1.3564  0.7332  0.1841
 5185TIP3   OH236969   2.218   4.062   3.016 -0.1274 -1.2273  0.4082
 5185TIP3    H136970   2.218   4.071   3.111 -1.1470 -2.0247  0.5070
 5185TIP3    H236971   2.310   4.051   2.992  0.1818 -0.5417  1.2387
 5186TIP3   OH236972   3.481   3.912   5.326 -0.2308  0.0457  0.1092
 5186TIP3    H136973   3.396   3.867   5.330 -0.6387  0.6686 -1.0007
 5186TIP3    H236974   3.519   3.900   5.413 -0.9928 -1.1405  0.3021
 5187TIP3   OH236975   0.920   5.480  11.754  0.4421 -0.5971  0.2966
 5187TIP3    H136976   0.997   5.478  11.810  0.9449 -0.3506 -0.3744
 5187TIP3    H236977   0.846   5.473  11.815  1.0078 -3.4595  0.7798
 5188TIP3   OH236978   2.328   2.244   4.726 -0.1245  0.2147 -0.1055
 5188TIP3    H136979   2.417   2.260   4.694 -0.0465 -0.1934 -0.0999
 5188TIP3    H236980   2.272   2.286   4.660  0.0527 -0.1716 -0.5134
 5189TIP3   OH236981   4.416   2.494  14.645  0.2461 -0.2649  0.0271
 5189TIP3    H136982   4.447   2.489  14.736 -0.5352 -2.0198  0.2213
 5189TIP3    H236983   4.321   2.486  14.651 -0.0529  1.8748 -0.8152
 5190TIP3   OH236984   2.305   4.703  10.377 -0.0562  0.0780  0.4651
 5190TIP3    H136985   2.292   4.705  10.472 -0.2272  0.1952  0.4391
 5190TIP3    H236986   2.252   4.629  10.347  0.8469 -0.6394  0.5893
 5191TIP3   OH236987   0.974   2.975   1.197  0.4001  0.0071  0.6386
 5191TIP3    H136988   0.957   3.037   1.127 -1.9596 -0.5515  0.6413
 5191TIP3    H236989   0.926   3.010   1.272 -3.2082 -2.9064 -0.0101
 5192TIP3   OH236990   0.919   3.140   2.016 -0.4503  1.0202  1.3034
 5192TIP3    H136991   0.883   3.112   1.932  2.1945 -0.2079  0.4549
 5192TIP3    H236992   0.862   3.100   2.081 -1.4903  0.4587  0.0972
 5193TIP3   OH236993   3.466   4.677   0.070  0.1838  0.6856 -0.6930
 5193TIP3    H136994   3.553   4.638   0.065 -0.1905 -0.6910  1.6675
 5193TIP3    H236995   3.412   4.621   0.014  0.1034 -0.9847  0.9407
 5194TIP3   OH236996   2.076   2.059   4.903  0.3842  0.0434  0.2522
 5194TIP3    H136997   2.088   2.106   4.985 -0.5369 -0.4360  0.6772
 5194TIP3    H236998   2.053   2.126   4.839 -0.6272  0.2286  0.7889
 5195TIP3   OH236999   3.669   0.660  11.115 -0.0310  0.3452 -0.1114
 5195TIP3    H137000   3.728   0.588  11.139 -1.9710 -1.7294 -1.1938
 5195TIP3    H237001   3.612   0.671  11.192 -1.5352 -1.2761 -0.9359
 5196TIP3   OH237002   1.178   2.470  16.546  0.2207 -0.5037  0.0303
 5196TIP3    H137003   1.177   2.566  16.540  0.5546 -0.3033  2.1537
 5196TIP3    H237004   1.092   2.447  16.582 -0.3194 -1.1406 -1.6004
 5197TIP3   OH237005   2.767   5.567   3.399 -0.0895 -0.1007 -0.2007
 5197TIP3    H137006   2.705   5.629   3.359 -0.7621 -0.5673  0.0864
 5197TIP3    H237007   2.833   5.623   3.441 -0.8090  0.4429  0.2430
 5198TIP3   OH237008   0.009   4.543  14.543 -0.5166 -0.0666 -0.1835
 5198TIP3    H137009  -0.062   4.602  14.520  0.3878  0.6044 -1.3585
 5198TIP3    H237010   0.058   4.589  14.611 -1.1235 -0.4878  0.5566
 5199TIP3   OH237011   3.790   4.725   6.621  0.0613  0.1201 -0.1767
 5199TIP3    H137012   3.695   4.734   6.628  0.2551  1.0449  3.3122
 5199TIP3    H237013   3.812   4.651   6.678  1.4811  0.4236 -0.2781
 5200TIP3   OH237014   5.402   4.527  15.834 -0.4437 -0.4602  0.3702
 5200TIP3    H137015   5.399   4.597  15.770  1.0909 -1.6343 -1.0801
 5200TIP3    H237016   5.433   4.568  15.914  1.9819  0.2743 -0.8759
 5201TIP3   OH237017   0.202   6.204   5.464  0.0993 -0.0837 -0.0348
 5201TIP3    H137018   0.107   6.194   5.476  0.0438  1.1619  0.8039
 5201TIP3    H237019   0.239   6.186   5.550  0.3293  2.2329  0.4211
 5202TIP3   OH237020   3.940   2.296  13.550  0.4124 -0.0581 -0.4815
 5202TIP3    H137021   3.845   2.306  13.560  0.5399  0.8058  0.0152
 5202TIP3    H237022   3.952   2.205  13.524 -0.6722  0.1940 -2.0115
 5203TIP3   OH237023   5.869   3.955   5.767  0.5225  0.0666 -0.2941
 5203TIP3    H137024   5.933   4.001   5.822 -0.1562 -0.1111  0.6839
 5203TIP3    H237025   5.819   3.902   5.829 -0.9014  0.5912 -0.9453
 5204TIP3   OH237026   5.052   2.712  11.337 -0.5087  0.7738  0.5524
 5204TIP3    H137027   5.047   2.781  11.403  1.5499  1.0540  0.4750
 5204TIP3    H237028   5.126   2.736  11.281 -0.3761 -0.9569 -0.0981
 5205TIP3   OH237029   4.665   3.094   5.924 -0.5480 -0.2574 -0.2191
 5205TIP3    H137030   4.600   3.051   5.869  0.1601 -0.6928 -0.7262
 5205TIP3    H237031   4.613   3.149   5.983 -1.3754 -0.6179 -0.5901
 5206TIP3   OH237032   3.230   0.764   0.676  0.0164  0.8714 -0.6309
 5206TIP3    H137033   3.143   0.799   0.693 -0.3623  0.5828 -1.9014
 5206TIP3    H237034   3.289   0.836   0.695 -0.4310  0.8679  0.8879
 5207TIP3   OH237035   0.926   6.066   4.168 -0.7037 -0.3529  0.2560
 5207TIP3    H137036   0.912   6.150   4.213  0.5471 -0.2884  0.5756
 5207TIP3    H237037   0.908   6.085   4.076 -0.7972  0.1741  0.3784
 5208TIP3   OH237038   3.150   0.932   0.945  0.1146 -0.0405 -0.3498
 5208TIP3    H137039   3.163   0.861   1.008  0.6873  1.9660  1.9283
 5208TIP3    H237040   3.237   0.947   0.908  1.0159  2.1423  2.3196
 5209TIP3   OH237041   4.415   3.221   3.698 -0.0688 -0.3864  0.6573
 5209TIP3    H137042   4.384   3.188   3.614  0.6708 -0.0790  0.2481
 5209TIP3    H237043   4.501   3.181   3.710 -0.8560 -1.7535  2.0911
 5210TIP3   OH237044   2.187   0.806   4.740 -0.3272 -0.4858  1.1117
 5210TIP3    H137045   2.105   0.807   4.690  0.4118  3.6429 -0.4836
 5210TIP3    H237046   2.252   0.771   4.679 -0.1105  0.8989  0.5119
 5211TIP3   OH237047   4.021   5.658   5.866 -0.3684 -0.5277 -0.0829
 5211TIP3    H137048   4.007   5.570   5.829 -0.4905  0.1808 -1.8082
 5211TIP3    H237049   4.063   5.642   5.951 -2.0125 -2.3119  0.4618
 5212TIP3   OH237050   5.693   5.348  13.713 -0.9838 -0.1281  0.2923
 5212TIP3    H137051   5.673   5.332  13.621  0.1138  0.1293 -0.0068
 5212TIP3    H237052   5.760   5.416  13.711 -0.8033 -0.2666  1.2755
 5213TIP3   OH237053   6.153   3.988   3.758  0.0228 -0.0472 -0.4357
 5213TIP3    H137054   6.228   4.040   3.788 -0.7327  1.4231 -0.9803
 5213TIP3    H237055   6.127   3.936   3.834  0.1506  1.1923  0.4905
 5214TIP3   OH237056   3.130   6.092   6.517 -0.4040 -0.0419  0.0845
 5214TIP3    H137057   3.116   6.058   6.429 -1.8547 -1.9386  0.9839
 5214TIP3    H237058   3.061   6.157   6.529 -0.1865  0.2394 -0.1906
 5215TIP3   OH237059   4.435   3.199   3.149  0.0142  0.1830  0.3681
 5215TIP3    H137060   4.491   3.144   3.204 -0.0434 -1.3984 -1.0463
 5215TIP3    H237061   4.423   3.280   3.198  0.4969 -0.8976  2.3515
 5216TIP3   OH237062   1.602   6.530   3.428  1.1628 -0.0565  1.0395
 5216TIP3    H137063   1.520   6.547   3.382  1.9957  0.9581 -0.1249
 5216TIP3    H237064   1.582   6.457   3.487  0.1407 -1.6370 -1.1650
 5217TIP3   OH237065   1.854   3.328   3.500  0.1338 -0.3352 -0.4459
 5217TIP3    H137066   1.903   3.410   3.502 -2.4809  1.3849 -1.7244
 5217TIP3    H237067   1.825   3.315   3.591 -1.3106  1.4410 -0.6095
 5218TIP3   OH237068   2.463   1.264   5.632  0.4368 -0.4576  0.1909
 5218TIP3    H137069   2.504   1.267   5.718  0.2336  1.0411  0.2625
 5218TIP3    H237070   2.374   1.233   5.648  0.3479 -0.0209  0.5431
 5219TIP3   OH237071   0.530   1.813   1.421 -0.6758  0.1985  0.7011
 5219TIP3    H137072   0.467   1.880   1.444  0.9284  3.6254 -3.4484
 5219TIP3    H237073   0.610   1.837   1.467 -0.1217  1.2303 -0.7260
 5220TIP3   OH237074   5.128   2.329   4.489 -0.2361  0.0920  0.4789
 5220TIP3    H137075   5.187   2.359   4.558 -0.1283  0.2690  0.3101
 5220TIP3    H237076   5.179   2.338   4.409 -0.0276 -0.9905  0.4762
 5221TIP3   OH237077   1.007   5.471  14.515  0.0358 -0.0411 -0.1659
 5221TIP3    H137078   0.945   5.512  14.456  0.0416  2.4092  1.3880
 5221TIP3    H237079   1.011   5.530  14.591  2.1227 -1.5789  1.0345
 5222TIP3   OH237080   1.222   4.968  16.833 -0.3515 -0.1164 -0.7460
 5222TIP3    H137081   1.309   4.932  16.852 -0.9711 -1.5163 -0.4641
 5222TIP3    H237082   1.195   5.010  16.914  0.5062  1.3252 -1.1695
 5223TIP3   OH237083   5.614   5.027  11.345  0.3465 -0.4075  0.0530
 5223TIP3    H137084   5.695   5.016  11.395  0.4574  0.3142  0.0394
 5223TIP3    H237085   5.586   4.937  11.325  0.7081 -0.6851  0.7482
 5224TIP3   OH237086   1.961   6.170   4.280  0.5128 -0.3601 -0.0961
 5224TIP3    H137087   1.949   6.110   4.207 -0.7707  0.8916 -0.9609
 5224TIP3    H237088   1.956   6.257   4.241  3.3224  0.3861  0.9610
 5225TIP3   OH237089   6.161   5.834  14.543  0.2657 -0.1167  0.5463
 5225TIP3    H137090   6.198   5.920  14.560 -1.7467  0.5742  1.7619
 5225TIP3    H237091   6.181   5.783  14.621  1.4214 -0.7890 -0.1547
 5226TIP3   OH237092   1.468   4.038   3.244 -0.1692 -0.0381 -0.2311
 5226TIP3    H137093   1.489   4.074   3.158 -0.6282  0.1604 -0.2657
 5226TIP3    H237094   1.548   3.995   3.273  0.3594  0.9248 -0.2306
 5227TIP3   OH237095   0.368   5.927  14.877 -0.0689  0.6193  0.1158
 5227TIP3    H137096   0.276   5.905  14.862 -0.3643  0.8660  1.4372
 5227TIP3    H237097   0.417   5.857  14.834 -0.9102 -0.3751  0.7374
 5228TIP3   OH237098   2.399   4.837   4.370  0.1417 -0.4267 -0.3105
 5228TIP3    H137099   2.359   4.756   4.339  1.6107 -0.9709 -0.8673
 5228TIP3    H237100   2.332   4.904   4.358 -0.8520 -1.4355 -0.4849
 5229TIP3   OH237101   4.942   5.710   2.692  0.1092  0.0258  0.3270
 5229TIP3    H137102   4.979   5.704   2.604 -0.0810 -0.3898  0.2758
 5229TIP3    H237103   4.991   5.646   2.743  0.7423  0.7938  0.7153
 5230TIP3   OH237104   1.114   0.541  16.898  0.1554  0.0653  0.1045
 5230TIP3    H137105   1.045   0.607  16.910 -0.2405 -0.2683 -0.2707
 5230TIP3    H237106   1.079   0.483  16.829  1.6566  1.0254 -1.5470
 5231TIP3   OH237107   5.818   4.657   2.841 -0.1224 -0.3582 -0.0802
 5231TIP3    H137108   5.770   4.574   2.845 -1.0485  0.1870  0.3714
 5231TIP3    H237109   5.869   4.650   2.760 -1.2778 -0.7918 -0.8108
 5232TIP3   OH237110   4.661   1.103   3.112 -0.0624  0.1373 -0.1575
 5232TIP3    H137111   4.678   1.039   3.181 -0.0512 -0.3820 -0.6379
 5232TIP3    H237112   4.748   1.136   3.088 -0.0023 -0.2105 -0.4228
 5233TIP3   OH237113   5.667   4.747  16.863  0.5450  0.2792  0.1863
 5233TIP3    H137114   5.679   4.841  16.854 -1.9955  0.7229  0.6013
 5233TIP3    H237115   5.727   4.721  16.932  2.9350  1.1166 -1.4530
 5234TIP3   OH237116   0.392   2.188   5.886  0.0342  0.3674  0.3268
 5234TIP3    H137117   0.479   2.215   5.914 -0.7997  1.4026  2.2007
 5234TIP3    H237118   0.396   2.092   5.883  0.9736  0.3416  1.4274
 5235TIP3   OH237119   0.000   0.464   5.229  0.7236  0.2295  0.1040
 5235TIP3    H137120   0.019   0.395   5.293 -1.5655  0.1731  0.7923
 5235TIP3    H237121  -0.020   0.541   5.282 -1.2703  0.1674 -0.4859
 5236TIP3   OH237122   2.327   4.583   0.833  0.5904 -0.0431 -0.2482
 5236TIP3    H137123   2.326   4.664   0.883  1.4854 -1.1684  1.6844
 5236TIP3    H237124   2.245   4.539   0.857  0.6645 -0.2451 -0.3597
 5237TIP3   OH237125   1.248   2.596  13.822 -0.5629 -0.1409  0.5853
 5237TIP3    H137126   1.275   2.508  13.796  0.6843  0.1542  0.8069
 5237TIP3    H237127   1.218   2.586  13.913 -0.7604 -0.3886  0.4943
 5238TIP3   OH237128   3.047   1.168   1.033 -0.0152  0.6242  0.4416
 5238TIP3    H137129   3.076   1.083   0.999  0.0690  1.4615 -1.7556
 5238TIP3    H237130   3.096   1.232   0.982 -1.2827  2.0077  0.8919
 5239TIP3   OH237131   4.711   6.241  11.207 -0.2683 -0.6401 -0.6333
 5239TIP3    H137132   4.780   6.282  11.154  0.7977  0.0440  1.1744
 5239TIP3    H237133   4.652   6.312  11.230 -0.9261 -0.9999 -1.1923
 5240TIP3   OH237134   0.749   2.206  15.619  0.1967 -0.0135 -0.2685
 5240TIP3    H137135   0.796   2.288  15.607 -1.3968  0.9885  0.0203
 5240TIP3    H237136   0.774   2.177  15.706 -1.1030  1.4819  0.6453
 5241TIP3   OH237137   6.281   4.664   0.471 -0.2256 -0.3244  0.5845
 5241TIP3    H137138   6.242   4.697   0.552 -1.4320 -1.2556  0.4133
 5241TIP3    H237139   6.224   4.592   0.444  0.0073  0.1145 -1.2257
 5242TIP3   OH237140   4.845   1.642  14.358  0.3001  0.4132  0.3769
 5242TIP3    H137141   4.841   1.730  14.395  2.4275  0.0795  1.5837
 5242TIP3    H237142   4.787   1.590  14.414 -1.2629  1.0922 -0.5765
 5243TIP3   OH237143   5.535   4.322   0.369  0.0956  0.9683 -0.0440
 5243TIP3    H137144   5.464   4.306   0.431  1.1298 -0.0233  0.9294
 5243TIP3    H237145   5.603   4.365   0.421  0.0100  2.4623 -1.0918
 5244TIP3   OH237146   4.306   4.141  16.616 -0.4541  0.1082 -0.5026
 5244TIP3    H137147   4.225   4.100  16.646 -0.1958 -0.0857 -0.0524
 5244TIP3    H237148   4.356   4.069  16.577  0.5924 -0.3375  1.5168
 5245TIP3   OH237149   1.457   3.240   1.646  0.4485 -0.4897  0.3028
 5245TIP3    H137150   1.492   3.216   1.561 -0.9582  1.4809 -0.9110
 5245TIP3    H237151   1.385   3.178   1.661 -0.1807 -0.0074 -0.6149
 5246TIP3   OH237152   2.153   6.091  14.374 -0.1615  0.5377 -0.1888
 5246TIP3    H137153   2.174   6.185  14.373 -0.5311  0.6102 -1.0681
 5246TIP3    H237154   2.062   6.086  14.347 -0.6433  0.0294  1.3752
 5247TIP3   OH237155   1.396   2.612  12.160 -0.2428  0.1191  0.0279
 5247TIP3    H137156   1.426   2.544  12.220 -1.1068  0.2669  0.6521
 5247TIP3    H237157   1.426   2.583  12.074  2.1008  0.5232  0.6524
 5248TIP3   OH237158   0.453   2.522   2.404 -0.4037  0.3715  0.6113
 5248TIP3    H137159   0.363   2.514   2.434 -0.3978 -0.2855  0.4774
 5248TIP3    H237160   0.459   2.461   2.330 -0.3492  1.7684 -0.5746
 5249TIP3   OH237161   6.661   1.238   4.798 -0.3225 -0.3463 -0.0990
 5249TIP3    H137162   6.712   1.282   4.865 -1.4031  1.9532 -0.7049
 5249TIP3    H237163   6.712   1.249   4.718 -0.7361  0.0857 -0.3084
 5250TIP3   OH237164   2.491   1.943  13.609  0.4998 -0.1260  0.0559
 5250TIP3    H137165   2.574   1.911  13.645 -0.0021 -1.2303  0.2776
 5250TIP3    H237166   2.424   1.899  13.662 -0.2547 -1.0933 -1.6363
 5251TIP3   OH237167   2.200   4.215  14.009 -0.4746  0.0521 -0.4899
 5251TIP3    H137168   2.183   4.223  14.103 -1.2828 -2.9024 -0.2622
 5251TIP3    H237169   2.120   4.177  13.974  0.0007  0.6459 -2.3016
 5252TIP3   OH237170   3.137   5.954  11.696 -0.2025 -0.7415  0.3979
 5252TIP3    H137171   3.139   5.900  11.616 -1.8624 -1.1004  0.5663
 5252TIP3    H237172   3.190   5.905  11.759  0.4027 -0.8847 -0.1983
 5253TIP3   OH237173   1.616   0.039   5.170 -0.0668 -0.5001 -0.2434
 5253TIP3    H137174   1.704   0.074   5.186 -0.6504 -0.2804  3.3624
 5253TIP3    H237175   1.558   0.115   5.178 -0.7419 -0.9309 -0.8630
 5254TIP3   OH237176   4.071   2.125   2.646  0.1137  0.1243 -0.2010
 5254TIP3    H137177   4.027   2.051   2.604  1.3959 -0.0055 -1.3668
 5254TIP3    H237178   4.112   2.173   2.574  0.8004  0.9594  0.7267
 5255TIP3   OH237179   2.606   4.522  15.626  0.1184  0.7462 -0.0678
 5255TIP3    H137180   2.572   4.499  15.712  1.1298  0.2735  0.2124
 5255TIP3    H237181   2.541   4.488  15.564 -0.3913  0.7073  0.4830
 5256TIP3   OH237182   4.156   4.034  11.941  0.0903  0.4516  0.8034
 5256TIP3    H137183   4.189   3.947  11.921 -0.2982  0.6388 -0.7977
 5256TIP3    H237184   4.141   4.033  12.035  1.7552 -0.6174  1.0960
 5257TIP3   OH237185   1.681   2.081  12.116  0.3581  0.2675  0.1159
 5257TIP3    H137186   1.606   2.109  12.065 -2.9115 -0.2846  4.1429
 5257TIP3    H237187   1.739   2.157  12.119 -1.4394  1.7180 -0.7513
 5258TIP3   OH237188   3.363   3.461  14.347 -0.1382 -0.7157 -0.6374
 5258TIP3    H137189   3.325   3.424  14.267 -0.6877 -1.0629 -0.2276
 5258TIP3    H237190   3.444   3.411  14.360  0.9007  0.5211 -1.9156
 5259TIP3   OH237191   6.508   6.052  11.928  0.2462  0.3226  0.2124
 5259TIP3    H137192   6.420   6.034  11.963 -0.4846  0.8421 -1.2496
 5259TIP3    H237193   6.559   6.078  12.004 -1.2417  1.3052  0.9329
 5260TIP3   OH237194   1.126   3.422   4.799  0.5573 -0.0367 -0.0468
 5260TIP3    H137195   1.195   3.370   4.758  0.6849  1.2241 -1.5387
 5260TIP3    H237196   1.165   3.508   4.814  0.6602 -0.5342  3.2952
 5261TIP3   OH237197   2.674   3.154  15.525  0.1510 -0.3318  0.2064
 5261TIP3    H137198   2.653   3.061  15.522  1.9115 -0.7453 -0.4867
 5261TIP3    H237199   2.591   3.197  15.546 -0.5758 -2.0825  1.0872
 5262TIP3   OH237200   5.955   4.952  14.398 -0.1760 -0.1137  0.5272
 5262TIP3    H137201   5.923   4.862  14.411 -0.6809 -0.0962 -0.5137
 5262TIP3    H237202   6.037   4.955  14.446  0.1528 -1.3337  0.0780
 5263TIP3   OH237203   4.246   1.728  15.550  0.1364  0.3499  0.0701
 5263TIP3    H137204   4.164   1.682  15.566 -0.5123  0.8215 -1.6933
 5263TIP3    H237205   4.226   1.790  15.480  1.0673  3.1197  2.0739
 5264TIP3   OH237206   0.374   1.119  15.703  0.3763  0.4713 -0.5833
 5264TIP3    H137207   0.442   1.100  15.766  0.1647 -0.1803 -0.5429
 5264TIP3    H237208   0.334   1.201  15.734 -1.3761 -1.0745  1.5776
 5265TIP3   OH237209   1.768   0.679   2.366  0.2415 -0.0954  0.1319
 5265TIP3    H137210   1.793   0.595   2.329 -1.1165 -1.6929  2.5331
 5265TIP3    H237211   1.672   0.681   2.359  0.2569  1.2923  0.0514
 5266TIP3   OH237212   5.995   6.542  14.732  0.4072  0.6223  0.0099
 5266TIP3    H137213   5.907   6.508  14.715  1.1246 -0.1642 -2.5682
 5266TIP3    H237214   6.018   6.506  14.818 -2.1953  1.9169  1.4057
 5267TIP3   OH237215   3.129   3.598   6.000  0.0309  0.3054  0.0310
 5267TIP3    H137216   3.066   3.609   6.072 -0.0297  0.9347 -0.1192
 5267TIP3    H237217   3.150   3.687   5.972  1.1777  0.1093  0.2346
 5268TIP3   OH237218   5.780   3.671   2.483  0.1894  0.0289  0.1001
 5268TIP3    H137219   5.744   3.648   2.569  1.7306 -0.4080  0.6625
 5268TIP3    H237220   5.874   3.681   2.498  0.3319  1.1274 -1.3124
 5269TIP3   OH237221   0.016   1.492   1.160 -0.5660  0.4585 -0.6310
 5269TIP3    H137222  -0.058   1.475   1.102  1.3312 -0.8884 -2.8488
 5269TIP3    H237223   0.089   1.511   1.101  1.0500  0.9987  1.4135
 5270TIP3   OH237224   6.153   1.937  16.817 -0.0782 -0.0338  0.0935
 5270TIP3    H137225   6.176   2.027  16.794 -0.1307 -0.2474 -0.8519
 5270TIP3    H237226   6.236   1.894  16.837  0.0449 -0.0093 -0.3555
 5271TIP3   OH237227   3.716   1.383   5.996 -0.0012  0.6254  0.3912
 5271TIP3    H137228   3.710   1.424   5.910 -1.0074 -0.3797 -0.0486
 5271TIP3    H237229   3.744   1.453   6.054  0.7618  1.3084 -0.7607
 5272TIP3   OH237230   0.100   5.597   4.030 -0.1834  0.2023  0.0629
 5272TIP3    H137231   0.074   5.629   3.944  0.1119  0.3503  0.0257
 5272TIP3    H237232   0.066   5.662   4.092 -3.0785 -1.4064  0.3483
 5273TIP3   OH237233   2.587   2.973   3.791 -0.5171  0.3230  0.2250
 5273TIP3    H137234   2.628   2.921   3.721  1.1139  1.3355  0.3899
 5273TIP3    H237235   2.622   2.936   3.872  0.3589  1.4168  0.3556
 5274TIP3   OH237236   6.155   2.827   5.008 -0.3690  0.1391 -0.5257
 5274TIP3    H137237   6.124   2.887   4.940 -2.0306 -0.9410 -0.7959
 5274TIP3    H237238   6.226   2.778   4.966 -0.2887  0.5950 -0.9347
 5275TIP3   OH237239   3.544   3.390   3.526  0.3613  0.1231  0.3167
 5275TIP3    H137240   3.464   3.347   3.496  0.0090 -0.0777  1.4779
 5275TIP3    H237241   3.517   3.438   3.605  1.6732 -1.1304  1.5822
 5276TIP3   OH237242   2.435   2.605  13.834 -0.0917 -0.3792  0.2844
 5276TIP3    H137243   2.457   2.646  13.750 -1.4664 -2.2131 -1.0599
 5276TIP3    H237244   2.514   2.558  13.858 -0.0694 -0.8507 -0.6464
 5277TIP3   OH237245   0.361   2.877   5.470 -0.3312 -0.2993 -1.3113
 5277TIP3    H137246   0.324   2.790   5.482 -2.0422  0.5680  0.3332
 5277TIP3    H237247   0.345   2.899   5.379  0.2170 -1.7081 -1.7712
 5278TIP3   OH237248   4.902   6.009   4.173 -0.0975 -0.1679 -0.1992
 5278TIP3    H137249   4.957   5.949   4.224  0.8177 -0.5838 -1.6408
 5278TIP3    H237250   4.845   5.951   4.122 -1.0824  0.2500  0.3826
 5279TIP3   OH237251   4.732   1.173   0.084 -0.1132  0.0269 -0.3113
 5279TIP3    H137252   4.695   1.163   0.172 -1.0552 -0.4138 -0.7443
 5279TIP3    H237253   4.690   1.104   0.033  1.3619 -0.5239 -0.8166
 5280TIP3   OH237254   2.503   2.627   5.368 -0.0056 -0.2565  0.3615
 5280TIP3    H137255   2.540   2.715   5.369  0.0815 -0.2914  0.2927
 5280TIP3    H237256   2.471   2.615   5.279  0.6424 -0.5626  0.1596
 5281TIP3   OH237257   3.222   3.086  14.022 -0.2575 -0.1732 -0.2899
 5281TIP3    H137258   3.243   3.012  13.965  0.2228 -0.0489 -0.2728
 5281TIP3    H237259   3.139   3.119  13.987  0.5256  0.5297 -1.5489
 5282TIP3   OH237260   5.217   4.684  11.528 -0.2510 -0.3117 -0.0069
 5282TIP3    H137261   5.181   4.684  11.617 -2.8213  0.1470 -0.9524
 5282TIP3    H237262   5.151   4.639  11.476  2.1462 -2.4386 -1.3998
 5283TIP3   OH237263   5.866   6.593  12.854  0.1205 -0.3083  0.2709
 5283TIP3    H137264   5.771   6.586  12.841  0.2139  0.0464 -0.6873
 5283TIP3    H237265   5.887   6.684  12.835  0.9544 -0.8695 -1.8516
 5284TIP3   OH237266   5.981   2.743  12.343 -0.0886 -0.4756 -0.1367
 5284TIP3    H137267   5.906   2.738  12.284 -0.5281 -0.0451  0.3759
 5284TIP3    H237268   6.003   2.836  12.346  1.3909 -0.7330 -1.4161
 5285TIP3   OH237269   0.118   3.192  11.154  0.1018 -0.3205 -0.0293
 5285TIP3    H137270   0.180   3.232  11.093 -1.2829 -0.2234 -1.4331
 5285TIP3    H237271   0.077   3.122  11.105  0.6192 -1.8271  1.5812
 5286TIP3   OH237272   2.094   3.230  12.068  0.0528 -0.2048 -0.1787
 5286TIP3    H137273   2.176   3.252  12.024  0.2391 -0.2951  0.1215
 5286TIP3    H237274   2.089   3.135  12.065 -0.3264 -0.1701 -0.7077
 5287TIP3   OH237275   6.302   6.021   0.015 -0.0470 -0.8218  0.1777
 5287TIP3    H137276   6.288   6.034  -0.078  3.4252 -0.2135 -0.3920
 5287TIP3    H237277   6.354   5.940   0.021  1.8941  0.4140  1.2759
 5288TIP3   OH237278   6.426   5.381  16.422 -0.2963  0.1521 -0.3930
 5288TIP3    H137279   6.365   5.452  16.441  0.4982  0.7602 -0.0650
 5288TIP3    H237280   6.503   5.425  16.387 -0.3128 -0.6601 -1.5174
 5289TIP3   OH237281   2.372   5.592  15.396 -0.5071  0.4129 -0.1418
 5289TIP3    H137282   2.314   5.597  15.320 -1.3223  2.0531  0.5392
 5289TIP3    H237283   2.321   5.630  15.468  0.5649 -0.2924  1.0416
 5290TIP3   OH237284   1.247   1.912   3.037 -0.8630 -0.0276  0.1317
 5290TIP3    H137285   1.286   1.875   2.958 -1.8848 -1.9149  0.4477
 5290TIP3    H237286   1.182   1.974   3.004  0.6008  1.2843 -0.4218
 5291TIP3   OH237287   2.341   4.950   3.162 -0.3851  0.2333 -0.5761
 5291TIP3    H137288   2.392   4.907   3.231 -1.6499 -1.0536 -0.3875
 5291TIP3    H237289   2.404   5.007   3.118  0.7115  0.3026  0.9617
 5292TIP3   OH237290   4.495   5.083   1.594  0.0316  0.5607  0.0174
 5292TIP3    H137291   4.554   5.067   1.668  0.4084 -1.2745 -0.6084
 5292TIP3    H237292   4.475   5.176   1.598 -0.8847  0.3462  3.1098
 5293TIP3   OH237293   3.952   4.555   5.999 -0.2902 -0.3571  0.5092
 5293TIP3    H137294   3.885   4.575   5.934  0.9317 -0.5052 -0.8484
 5293TIP3    H237295   3.903   4.535   6.079 -1.8480 -0.5031 -0.4415
 5294TIP3   OH237296   5.666   1.192  11.945 -0.0448  0.1756 -0.2870
 5294TIP3    H137297   5.744   1.244  11.925 -2.4846  3.7987 -1.2871
 5294TIP3    H237298   5.664   1.125  11.877  1.4932  0.8506 -1.0399
 5295TIP3   OH237299   3.021   3.642  15.008 -0.2137 -0.0087 -0.5098
 5295TIP3    H137300   3.027   3.729  15.046  0.2817  0.2544 -1.1665
 5295TIP3    H237301   3.007   3.658  14.915  2.2364 -0.5718 -1.0461
 5296TIP3   OH237302   2.537   2.929  13.178  0.4362 -0.5322 -0.2514
 5296TIP3    H137303   2.558   3.013  13.220  1.1567 -0.9294  0.2032
 5296TIP3    H237304   2.471   2.890  13.234 -0.0833 -0.1681 -0.5977
 5297TIP3   OH237305   2.937   5.321  11.611 -0.1156 -0.0945  0.3349
 5297TIP3    H137306   3.023   5.342  11.646 -0.4630  0.8016  0.6731
 5297TIP3    H237307   2.941   5.347  11.519  0.4450 -1.4478 -0.0500
 5298TIP3   OH237308   4.039   4.959   4.165 -0.3786  1.0188 -0.1358
 5298TIP3    H137309   3.984   4.948   4.242  0.0059  1.8820  0.2741
 5298TIP3    H237310   4.013   5.044   4.129 -0.1841  0.8634 -0.6600
 5299TIP3   OH237311   4.777   3.199  12.426 -0.2331  0.4911 -0.5152
 5299TIP3    H137312   4.854   3.162  12.468  0.4556  0.0609 -2.0725
 5299TIP3    H237313   4.803   3.287  12.400 -0.8455  0.9692  0.4529
 5300TIP3   OH237314   3.534   2.404  16.653 -0.0414  0.6077  0.1426
 5300TIP3    H137315   3.569   2.377  16.738  0.6964 -3.1419 -1.1645
 5300TIP3    H237316   3.453   2.354  16.643 -0.1928  1.0895 -1.3203
 5301TIP3   OH237317   0.870   5.879  11.406  0.4832  0.1577 -0.1909
 5301TIP3    H137318   0.938   5.831  11.357  1.0717 -0.5747  1.2994
 5301TIP3    H237319   0.914   5.956  11.439  0.7114 -0.4940  1.0749
 5302TIP3   OH237320   1.507   6.468  11.623  0.0525  0.4357 -0.8885
 5302TIP3    H137321   1.470   6.462  11.712  1.1916  0.3961 -0.3986
 5302TIP3    H237322   1.474   6.552  11.590 -2.2732 -0.5827 -1.3591
 5303TIP3   OH237323   0.611   4.894   1.175 -0.1943  0.0415 -0.2591
 5303TIP3    H137324   0.618   4.967   1.236 -0.1286  0.9542 -1.3419
 5303TIP3    H237325   0.519   4.868   1.180 -0.0914 -0.2151  0.5663
 5304TIP3   OH237326   4.724   2.926  10.901  0.1698  0.0934 -0.0373
 5304TIP3    H137327   4.705   2.833  10.905 -0.2191  0.2004  0.9325
 5304TIP3    H237328   4.638   2.969  10.905  0.3353  0.5015 -0.5810
 5305TIP3   OH237329   0.308   4.992   1.093 -0.0909 -0.7596 -0.0485
 5305TIP3    H137330   0.338   4.913   1.048  0.6437 -0.3586 -0.2810
 5305TIP3    H237331   0.316   5.061   1.027 -0.0113 -0.3579  0.3774
 5306TIP3   OH237332   6.385   6.759  16.188 -0.2009 -0.3272  0.0307
 5306TIP3    H137333   6.419   6.791  16.272 -1.9575 -0.8699  1.0236
 5306TIP3    H237334   6.455   6.704  16.153 -0.1204 -1.7207  2.1445
 5307TIP3   OH237335   5.427   1.082   4.080 -0.1728  0.6398  0.2219
 5307TIP3    H137336   5.351   1.140   4.073  0.1170  1.0399  0.3611
 5307TIP3    H237337   5.498   1.139   4.110  0.4697  0.5245 -0.9801
 5308TIP3   OH237338   5.975   2.188  13.726  0.0237  0.1134  0.5774
 5308TIP3    H137339   6.039   2.129  13.766  0.6502  1.9335  2.4407
 5308TIP3    H237340   5.901   2.132  13.704  0.4228 -1.3120  2.5902
 5309TIP3   OH237341   1.974   0.525   3.494 -0.2148 -0.2071  0.4795
 5309TIP3    H137342   2.034   0.500   3.564  3.1114  1.7280 -1.4074
 5309TIP3    H237343   2.012   0.486   3.415 -1.4571  1.0655 -0.8125
 5310TIP3   OH237344   3.245   3.397   5.605  0.1426 -0.0558  0.1289
 5310TIP3    H137345   3.277   3.469   5.660 -1.9668  0.4276  0.8107
 5310TIP3    H237346   3.151   3.413   5.598 -0.4373 -2.8872  0.5227
 5311TIP3   OH237347   0.747   1.899  14.660  0.6207  0.9696 -0.0893
 5311TIP3    H137348   0.729   1.876  14.751 -1.0960 -1.3399 -0.9227
 5311TIP3    H237349   0.679   1.963  14.638 -0.3186 -0.0804 -0.3206
 5312TIP3   OH237350   0.063   1.906   0.956  0.5132  0.0036  0.2181
 5312TIP3    H137351   0.091   1.829   0.906  0.0956 -1.2560  1.8401
 5312TIP3    H237352  -0.026   1.886   0.984 -0.2693  1.8647 -0.7740
 5313TIP3   OH237353   1.539   5.405  11.101  0.0217  0.6314 -0.3917
 5313TIP3    H137354   1.580   5.459  11.034  1.7977  1.8332  1.5429
 5313TIP3    H237355   1.521   5.322  11.058 -0.2478  1.8382 -2.7158
 5314TIP3   OH237356   1.213   2.036  16.435 -0.3040 -0.2654  0.3729
 5314TIP3    H137357   1.243   2.127  16.437 -0.3766 -0.2083 -0.6113
 5314TIP3    H237358   1.122   2.040  16.467  0.6412 -0.4407  3.3394
 5315TIP3   OH237359   2.296   0.463   3.497  0.6256 -0.6496 -0.3309
 5315TIP3    H137360   2.294   0.414   3.415  0.7760 -1.9169  0.3833
 5315TIP3    H237361   2.234   0.416   3.554  0.7450  0.0237  0.3675
 5316TIP3   OH237362   0.438   1.674  11.139  0.2790  0.5601 -0.4034
 5316TIP3    H137363   0.439   1.723  11.056  0.1024 -1.4386 -1.6417
 5316TIP3    H237364   0.394   1.592  11.118 -0.3195  0.2405  1.8502
 5317TIP3   OH237365   0.405   1.796  15.172  0.0009  0.1757  0.0506
 5317TIP3    H137366   0.479   1.735  15.180  0.2237  0.1868 -1.5315
 5317TIP3    H237367   0.340   1.748  15.120 -0.3218  0.8477 -0.1767
 5318TIP3   OH237368   5.789   3.147   5.179  0.3954 -0.6406 -0.0082
 5318TIP3    H137369   5.877   3.173   5.154 -0.3856  0.0296 -2.3466
 5318TIP3    H237370   5.753   3.105   5.101 -1.5313 -0.3924  0.6870
 5319TIP3   OH237371   4.700   4.404  13.556  0.4441  0.2044 -0.6390
 5319TIP3    H137372   4.769   4.470  13.567  0.1798  0.5557 -1.0543
 5319TIP3    H237373   4.634   4.427  13.621  0.3045  0.4189 -0.8524
 5320TIP3   OH237374   0.746   6.272  12.445  0.1715  0.1557 -0.5178
 5320TIP3    H137375   0.679   6.332  12.412  0.5717  0.9219  0.0494
 5320TIP3    H237376   0.802   6.326  12.500  1.1068 -0.5331 -0.7667
 5321TIP3   OH237377   1.455   5.906   5.095  0.1568 -0.9292  0.5712
 5321TIP3    H137378   1.504   5.901   5.013  0.1287  0.0464  0.4816
 5321TIP3    H237379   1.466   5.820   5.136 -1.7254 -2.2923 -1.5244
 5322TIP3   OH237380   4.965   3.160   2.885  0.4887  0.1759  0.3350
 5322TIP3    H137381   5.026   3.145   2.956  2.0777  0.1149 -0.9876
 5322TIP3    H237382   5.013   3.136   2.806 -1.1943  0.2702 -0.7814
 5323TIP3   OH237383   0.892   4.459  13.793  0.2835  0.1570  0.7549
 5323TIP3    H137384   0.913   4.410  13.873  0.0267  0.0512  0.7590
 5323TIP3    H237385   0.891   4.393  13.724 -2.1480 -0.2359  1.0873
 5324TIP3   OH237386   6.262   3.257  15.560  0.5114 -0.5432 -0.0334
 5324TIP3    H137387   6.268   3.325  15.493  0.8140 -0.5794 -0.0426
 5324TIP3    H237388   6.340   3.269  15.614 -0.0518 -0.1051  0.7040
 5325TIP3   OH237389   3.985   6.567   4.275  0.5617  0.1500  0.0960
 5325TIP3    H137390   4.009   6.497   4.214  1.0332  2.2732 -2.3384
 5325TIP3    H237391   4.067   6.614   4.291 -0.2328  1.9705 -0.8566
 5326TIP3   OH237392   2.187   1.434   5.903 -0.1794 -0.0685 -0.3213
 5326TIP3    H137393   2.280   1.435   5.927  0.1143 -1.4250 -1.2593
 5326TIP3    H237394   2.186   1.399   5.814 -1.6802 -1.5772  0.2278
 5327TIP3   OH237395   1.345   3.812  15.848  0.4109 -0.1902 -0.5256
 5327TIP3    H137396   1.370   3.739  15.904  0.6793 -1.7305 -2.5368
 5327TIP3    H237397   1.252   3.797  15.828 -0.1843  1.3197  0.8189
 5328TIP3   OH237398   2.603   1.051  14.003  0.0982 -0.2703  0.0663
 5328TIP3    H137399   2.599   1.127  13.944  1.1688  0.2601  0.6492
 5328TIP3    H237400   2.646   1.084  14.081 -0.4659 -1.2061  0.7922
 5329TIP3   OH237401   0.346   2.501  13.246 -0.7273 -0.3700  0.0694
 5329TIP3    H137402   0.413   2.541  13.301  0.8556 -0.4382 -1.6951
 5329TIP3    H237403   0.268   2.497  13.301 -0.1728  2.5141  1.2574
 5330TIP3   OH237404   6.518   0.441  15.741  0.2118  0.7377  0.9363
 5330TIP3    H137405   6.542   0.383  15.814  1.0439 -0.6486 -0.3912
 5330TIP3    H237406   6.584   0.510  15.743  1.5714 -0.4841  0.2063
 5331TIP3   OH237407   5.982   0.225  13.489  0.0277  0.3464  0.1404
 5331TIP3    H137408   5.997   0.157  13.423 -0.2766  0.7139 -0.3116
 5331TIP3    H237409   6.068   0.264  13.502  0.0216  0.5175 -0.3126
 5332TIP3   OH237410   3.509   2.083   0.663 -0.0918 -0.1028 -0.0437
 5332TIP3    H137411   3.530   2.016   0.599  1.4832  0.6949 -0.4223
 5332TIP3    H237412   3.493   2.034   0.744  4.0193 -0.9459  0.4997
 5333TIP3   OH237413   3.520   5.651   4.021 -0.1136 -0.2897  0.7411
 5333TIP3    H137414   3.555   5.571   3.982 -0.4795 -0.8398  1.5130
 5333TIP3    H237415   3.489   5.624   4.107 -0.8674  0.5440  0.7461
 5334TIP3   OH237416   5.567   5.465  17.001  0.0892  0.1692  0.2371
 5334TIP3    H137417   5.488   5.413  17.016  0.3786 -0.2480  0.3458
 5334TIP3    H237418   5.548   5.549  17.042  0.1618 -0.3404  1.3724
 5335TIP3   OH237419   5.363   2.241   2.407 -0.0630  0.1528  0.2231
 5335TIP3    H137420   5.359   2.287   2.324 -0.5574  1.1547  0.7911
 5335TIP3    H237421   5.297   2.283   2.462  0.8250  0.0600  1.4028
 5336TIP3   OH237422   0.574   1.987  10.801  0.1553 -0.0689  0.0891
 5336TIP3    H137423   0.501   1.955  10.853 -0.0847  0.3116 -0.0134
 5336TIP3    H237424   0.578   1.928  10.726 -0.6338  0.4618 -0.3823
 5337TIP3   OH237425   1.157   1.598  17.257  0.2284 -0.4734  0.4214
 5337TIP3    H137426   1.204   1.594  17.341  2.0394 -1.0280 -0.5533
 5337TIP3    H237427   1.119   1.511  17.248 -1.3341  0.0790  1.3687
 5338TIP3   OH237428   0.207   1.748  14.796  0.0938 -0.2055  0.2509
 5338TIP3    H137429   0.189   1.762  14.889 -1.6118 -0.5218  0.0076
 5338TIP3    H237430   0.139   1.798  14.750  0.2577 -0.8950 -0.7941
 5339TIP3   OH237431   5.955   6.392   2.075 -0.4203 -0.6051  0.4927
 5339TIP3    H137432   5.924   6.321   2.019 -0.3967  1.8329 -2.8605
 5339TIP3    H237433   6.048   6.372   2.090 -0.2922 -1.0665 -0.8126
 5340TIP3   OH237434   2.177   5.732  15.522  0.2273 -0.0155 -0.1036
 5340TIP3    H137435   2.127   5.752  15.443 -1.8012  1.5917  1.4851
 5340TIP3    H237436   2.147   5.644  15.548  1.5038 -0.9110 -1.4641
 5341TIP3   OH237437   1.963   6.602   0.612 -0.3783  0.7767 -0.2157
 5341TIP3    H137438   2.027   6.546   0.568  1.8249  1.9785  1.2594
 5341TIP3    H237439   1.902   6.541   0.653  0.7111 -0.4912 -0.4045
 5342TIP3   OH237440   3.558   5.747  13.044  0.2534  0.0103  0.9165
 5342TIP3    H137441   3.569   5.777  12.953  0.4252  0.9631  1.2349
 5342TIP3    H237442   3.529   5.656  13.036  0.6200 -0.0350 -0.0861
 5343TIP3   OH237443   4.241   0.365  16.279 -0.1235  0.1138  0.7935
 5343TIP3    H137444   4.273   0.315  16.354 -0.4059  0.1013  0.9067
 5343TIP3    H237445   4.146   0.366  16.290 -0.1254  0.6200  0.7594
 5344TIP3   OH237446   3.461   4.352   6.026  0.1570 -0.2004  0.1233
 5344TIP3    H137447   3.466   4.412   5.952 -1.1366 -0.3906 -0.1353
 5344TIP3    H237448   3.404   4.395   6.089  0.0049 -0.7139  0.3452
 5345TIP3   OH237449   3.056   0.881   3.589 -0.0541  0.7090 -0.5574
 5345TIP3    H137450   2.965   0.868   3.614  0.2438 -1.2306 -0.3599
 5345TIP3    H237451   3.059   0.971   3.556 -1.6436  1.4328  1.0876
 5346TIP3   OH237452   6.421   1.191  11.684 -0.6466 -0.0367 -0.0654
 5346TIP3    H137453   6.388   1.262  11.630  2.0958  2.2385  1.0054
 5346TIP3    H237454   6.417   1.114  11.627 -2.3449  1.2254 -1.7820
 5347TIP3   OH237455   2.797   5.200  12.911 -0.0824  0.5483  0.7139
 5347TIP3    H137456   2.767   5.143  12.983  1.3079  0.5602  1.3428
 5347TIP3    H237457   2.764   5.286  12.934 -2.0653  0.0757 -0.1585
 5348TIP3   OH237458   2.586   1.215   4.679 -0.4832 -0.4906 -0.0694
 5348TIP3    H137459   2.549   1.203   4.766 -0.5588  0.6375  0.0716
 5348TIP3    H237460   2.679   1.195   4.689 -0.0621  1.6017  0.7840
 5349TIP3   OH237461   1.950   0.785  15.241  0.6059 -0.7991 -0.3902
 5349TIP3    H137462   1.902   0.749  15.167  0.9228 -1.8089 -0.1213
 5349TIP3    H237463   1.931   0.726  15.313  2.0491 -1.0960 -0.2182
 5350TIP3   OH237464   5.038   4.056   5.938 -0.1056  0.6184  0.2814
 5350TIP3    H137465   5.054   4.017   6.024  0.0181 -4.0312 -1.5895
 5350TIP3    H237466   5.116   4.109   5.921  1.2362 -0.7659  1.8192
 5351TIP3   OH237467   0.290   1.803  13.903  0.0924  0.4298  0.1746
 5351TIP3    H137468   0.223   1.865  13.875  1.0628  1.6028  0.3997
 5351TIP3    H237469   0.271   1.723  13.854 -1.1079  0.9287 -0.2007
 5352TIP3   OH237470   0.092   1.034   3.194  0.0539 -0.1672 -0.3084
 5352TIP3    H137471   0.125   1.082   3.118  0.4824  1.8583  1.0799
 5352TIP3    H237472   0.165   1.033   3.256  0.1012 -2.7862 -0.2808
 5353TIP3   OH237473   3.076   2.830  15.892  0.2959 -0.0124  0.1911
 5353TIP3    H137474   3.000   2.773  15.880 -0.3551  0.6256  1.1669
 5353TIP3    H237475   3.094   2.864  15.804  1.0130 -2.0623 -0.5122
 5354TIP3   OH237476   2.557   6.267  17.113  0.1055 -0.1479 -0.5877
 5354TIP3    H137477   2.530   6.311  17.194  0.9979 -0.7656  0.0652
 5354TIP3    H237478   2.475   6.251  17.066 -0.2828  1.8807 -0.6978
 5355TIP3   OH237479   5.281   2.531  12.243  0.4171  0.2797  0.1331
 5355TIP3    H137480   5.213   2.514  12.178  0.8345  0.5085 -0.3717
 5355TIP3    H237481   5.363   2.532  12.192  1.0033 -1.6753  0.9665
 5356TIP3   OH237482   6.352   1.920   1.603  0.0379 -0.1581 -0.0218
 5356TIP3    H137483   6.437   1.909   1.645  0.6393  0.9168 -0.8961
 5356TIP3    H237484   6.373   1.953   1.515 -1.2966  0.5892 -0.0823
 5357TIP3   OH237485   0.362   6.535   3.856 -0.1865  0.3984 -0.2284
 5357TIP3    H137486   0.321   6.621   3.849 -0.7939  0.1359  0.0602
 5357TIP3    H237487   0.456   6.553   3.854 -0.2940  1.1601  0.8581
 5358TIP3   OH237488   5.592   1.999   2.181 -0.0653 -0.0167 -0.8481
 5358TIP3    H137489   5.634   1.914   2.165  2.6956  0.9875  0.4145
 5358TIP3    H237490   5.540   1.986   2.260  1.1822 -0.3277 -0.0474
 5359TIP3   OH237491   5.435   5.799  14.453  0.1244  0.1140 -0.1337
 5359TIP3    H137492   5.508   5.838  14.501  1.1499  1.1346 -2.3811
 5359TIP3    H237493   5.417   5.860  14.381 -1.8898 -0.9068 -0.5840
 5360TIP3   OH237494   1.836   2.349  15.590 -0.4168  0.8096  0.1148
 5360TIP3    H137495   1.762   2.410  15.592 -1.7078 -0.6984 -0.0451
 5360TIP3    H237496   1.842   2.322  15.498  0.5976  1.2057  0.0548
 5361TIP3   OH237497   6.512   6.016   2.859 -0.2018  0.2332  0.0022
 5361TIP3    H137498   6.464   5.935   2.846 -1.5386  0.9043  0.6284
 5361TIP3    H237499   6.538   6.043   2.770 -0.1163 -0.6501 -0.2444
 5362TIP3   OH237500   2.694   2.579   2.798 -0.6183  0.0720 -0.2283
 5362TIP3    H137501   2.778   2.541   2.769  0.6779 -0.0342  3.2098
 5362TIP3    H237502   2.639   2.503   2.816 -1.3462  0.1355 -1.9886
 5363TIP3   OH237503   1.086   5.508  11.957  0.6926  0.3859  0.0077
 5363TIP3    H137504   1.114   5.591  11.995  0.0335  0.3417  0.6216
 5363TIP3    H237505   1.128   5.441  12.012 -0.4792  0.3210  0.8676
 5364TIP3   OH237506   2.801   1.248   3.733  0.7779 -0.4357  0.1090
 5364TIP3    H137507   2.770   1.297   3.657  0.1244 -0.7475  0.1682
 5364TIP3    H237508   2.759   1.291   3.808  0.7934 -0.6176  0.2233
 5365TIP3   OH237509   0.846   6.449  11.534 -0.2832  0.0123 -0.3243
 5365TIP3    H137510   0.889   6.484  11.455 -0.5157  0.9804 -0.0338
 5365TIP3    H237511   0.794   6.375  11.502  1.0861 -0.7837 -0.7836
 5366TIP3   OH237512   5.628   3.121   4.470  0.1051  0.2100  0.2425
 5366TIP3    H137513   5.584   3.041   4.442 -1.2473  0.8352  0.4996
 5366TIP3    H237514   5.584   3.145   4.552 -0.1251  1.6771 -0.2805
 5367TIP3   OH237515   4.513   5.085   2.745 -0.5452  0.2981  0.4363
 5367TIP3    H137516   4.590   5.118   2.700 -1.4990  1.5223 -0.3612
 5367TIP3    H237517   4.501   4.996   2.712 -0.0400  0.4521 -0.1663
 5368TIP3   OH237518   0.436   5.378   1.984 -0.1609  0.6471  0.5212
 5368TIP3    H137519   0.351   5.336   1.974  0.6495 -1.8378  2.6833
 5368TIP3    H237520   0.444   5.437   1.909 -2.6122 -1.0817 -1.2375
 5369TIP3   OH237521   1.572   2.494  15.154  0.2726  0.3366  0.9097
 5369TIP3    H137522   1.539   2.404  15.148  1.6552 -0.1633  0.2957
 5369TIP3    H237523   1.539   2.526  15.238 -0.7782 -0.5099  0.8370
 5370TIP3   OH237524   4.844   6.099   0.862  0.6741 -0.9256 -0.1213
 5370TIP3    H137525   4.813   6.187   0.885  0.0416 -0.9747 -0.7591
 5370TIP3    H237526   4.831   6.047   0.942  1.9094 -0.2312  0.5599
 5371TIP3   OH237527   3.688   6.526  14.371 -0.4847  0.4665  0.1297
 5371TIP3    H137528   3.695   6.537  14.466  0.9414  0.7663  0.0237
 5371TIP3    H237529   3.767   6.568  14.337  0.6420 -2.2562 -0.9546
 5372TIP3   OH237530   2.248   5.149   3.730 -0.2349  0.0405 -0.0861
 5372TIP3    H137531   2.270   5.172   3.820 -0.6701 -0.4717  0.1622
 5372TIP3    H237532   2.299   5.209   3.676  1.8624 -1.1933  0.4412
 5373TIP3   OH237533   5.931   0.007  12.573 -0.1860  0.4570  0.3184
 5373TIP3    H137534   5.979   0.079  12.533  2.5036 -0.4358  1.6700
 5373TIP3    H237535   5.990  -0.026  12.641 -1.6335 -2.4723  0.3172
 5374TIP3   OH237536   5.659   1.992   4.205 -0.2546 -0.1271 -0.0104
 5374TIP3    H137537   5.732   1.934   4.183 -0.2674 -0.8801  1.7801
 5374TIP3    H237538   5.605   1.941   4.266 -2.0674  0.5684 -0.9571
 5375TIP3   OH237539   4.770   0.570  15.261  0.6909  0.5803  0.4370
 5375TIP3    H137540   4.720   0.574  15.343 -0.6449 -1.5260 -0.2109
 5375TIP3    H237541   4.760   0.657  15.223 -0.9733  0.7538  1.1981
 5376TIP3   OH237542   1.424   2.746   2.089 -0.1696 -0.1059  0.5724
 5376TIP3    H137543   1.342   2.760   2.136  0.3886 -0.9381  1.8456
 5376TIP3    H237544   1.483   2.813   2.124  0.3409 -0.9280  1.2975
 5377TIP3   OH237545   1.053   1.093   4.533 -0.7630 -0.2778 -0.3351
 5377TIP3    H137546   1.098   1.123   4.612  1.1120 -0.2462 -1.3457
 5377TIP3    H237547   1.029   1.002   4.551 -0.2183 -0.3116  0.2295
 5378TIP3   OH237548   5.711   4.527   1.901 -0.7372  0.4495  0.4476
 5378TIP3    H137549   5.768   4.461   1.941 -0.5753  0.4533  0.2233
 5378TIP3    H237550   5.771   4.588   1.858 -0.8410  1.1703  1.2894
 5379TIP3   OH237551   2.588   0.989   5.799  0.0012  0.8043  0.5134
 5379TIP3    H137552   2.597   0.901   5.762 -0.8384  0.7910  0.3259
 5379TIP3    H237553   2.601   0.977   5.893 -0.1116  0.4759  0.4879
 5380TIP3   OH237554   6.445   2.371  15.456  0.0220 -0.0109  0.2859
 5380TIP3    H137555   6.480   2.376  15.545 -2.4589  1.0598  1.2917
 5380TIP3    H237556   6.364   2.422  15.459 -0.0642  0.1949 -2.6545
 5381TIP3   OH237557   6.664   3.241  14.259 -0.3855  0.1379  0.1642
 5381TIP3    H137558   6.621   3.315  14.218 -0.6276  0.2938  0.6878
 5381TIP3    H237559   6.697   3.275  14.342 -3.5353 -1.0980  2.1254
 5382TIP3   OH237560   3.824   4.541  15.070 -0.0914 -0.4103 -0.1687
 5382TIP3    H137561   3.730   4.555  15.066 -0.3982 -2.3936 -0.5118
 5382TIP3    H237562   3.858   4.588  14.994 -1.0294 -1.1919 -1.0969
 5383TIP3   OH237563   3.098   3.816  13.665  0.6368  0.4504  0.4415
 5383TIP3    H137564   3.095   3.885  13.731 -0.1312 -2.4285  3.6993
 5383TIP3    H237565   3.006   3.794  13.649  0.6872  2.1874 -3.0550
 5384TIP3   OH237566   3.039   0.337   0.020 -0.2132  0.4063 -0.4056
 5384TIP3    H137567   3.122   0.348   0.067 -0.0336  0.0156 -0.6205
 5384TIP3    H237568   3.062   0.283  -0.056 -0.0920  2.6586 -2.0662
 5385TIP3   OH237569   4.105   3.189  17.078 -0.6342 -0.0042  0.4288
 5385TIP3    H137570   4.072   3.276  17.099  0.0832  0.1514  0.9717
 5385TIP3    H237571   4.072   3.171  16.990 -0.8211  0.8053  0.3247
 5386TIP3   OH237572   4.075   0.889  11.289  0.1647 -0.1793 -0.0651
 5386TIP3    H137573   4.083   0.947  11.213 -1.0395 -0.6000 -0.5387
 5386TIP3    H237574   3.982   0.893  11.313  0.2784 -1.0567  0.5844
 5387TIP3   OH237575   0.906   0.236   1.297 -0.5432 -0.1200  0.1467
 5387TIP3    H137576   0.981   0.278   1.341 -0.8570 -0.2049  0.7726
 5387TIP3    H237577   0.861   0.189   1.367  0.1476 -2.0396 -0.6392
 5388TIP3   OH237578   0.661   5.937   3.187 -0.7191 -0.1673 -0.2674
 5388TIP3    H137579   0.645   6.032   3.188 -0.5866 -0.1481  0.9471
 5388TIP3    H237580   0.744   5.928   3.139 -1.0065  0.2698 -0.8745
 5389TIP3   OH237581   3.869   6.345   4.618 -0.4046  0.2609 -0.1457
 5389TIP3    H137582   3.959   6.370   4.636 -0.2608 -0.1377 -0.3072
 5389TIP3    H237583   3.837   6.411   4.556 -0.1181  0.2116 -0.3468
 5390TIP3   OH237584   6.384   4.366   5.510  0.6114 -0.1406  0.2672
 5390TIP3    H137585   6.337   4.404   5.585  1.0462 -0.5939  0.7774
 5390TIP3    H237586   6.464   4.330   5.548  1.2237  0.3273 -0.5452
 5391TIP3   OH237587   1.712   4.518   3.983 -0.2368 -0.3655  0.3994
 5391TIP3    H137588   1.662   4.599   3.974  0.8582  0.2553 -0.2895
 5391TIP3    H237589   1.684   4.464   3.909  2.4814  1.3269 -2.0745
 5392TIP3   OH237590   3.608   2.489  13.379  0.3518  0.0921  0.0800
 5392TIP3    H137591   3.626   2.560  13.440 -1.7829 -0.6534  1.7158
 5392TIP3    H237592   3.682   2.429  13.389  0.9971  0.9350  0.4558
 5393TIP3   OH237593   4.525   6.754   4.828  0.0536 -0.2906  0.0294
 5393TIP3    H137594   4.583   6.824   4.858 -1.2910  0.6930  0.4235
 5393TIP3    H237595   4.541   6.748   4.734 -1.5488  2.2783 -0.4944
 5394TIP3   OH237596   6.117   4.652  14.632 -0.2489 -0.4535 -0.1874
 5394TIP3    H137597   6.101   4.746  14.634 -0.0816 -0.4014  2.0803
 5394TIP3    H237598   6.066   4.618  14.706  0.6479 -1.9573 -0.2110
 5395TIP3   OH237599   2.155   3.008   5.287 -0.5775  0.3279  0.4895
 5395TIP3    H137600   2.090   3.064   5.329 -1.5239  0.4173 -1.0093
 5395TIP3    H237601   2.115   2.922   5.285  0.3491 -0.1579  1.6364
 5396TIP3   OH237602   6.672   6.627  13.290 -0.0054 -0.2058  0.1004
 5396TIP3    H137603   6.641   6.668  13.210 -0.6289 -1.8117 -0.5146
 5396TIP3    H237604   6.697   6.538  13.264  1.3905 -0.2120  1.3631
 5397TIP3   OH237605   1.844   0.271   1.680 -0.0769 -0.1950  0.3258
 5397TIP3    H137606   1.869   0.186   1.717 -1.7598 -1.0369 -0.3513
 5397TIP3    H237607   1.751   0.261   1.659 -0.0330  1.4564 -0.7972
 5398TIP3   OH237608   1.163   3.303  17.214 -0.2772  0.1379  0.1135
 5398TIP3    H137609   1.109   3.366  17.166  0.1656  1.5234  1.3649
 5398TIP3    H237610   1.178   3.232  17.151 -0.2727  1.5476 -1.5585
 5399TIP3   OH237611   0.993   4.538  15.478 -0.4349  0.1176 -0.0662
 5399TIP3    H137612   1.073   4.494  15.506 -0.7320 -0.0885  0.4701
 5399TIP3    H237613   0.931   4.523  15.549 -0.9931  0.1651 -0.5328
 5400TIP3   OH237614   5.793   4.630   3.720 -0.2323 -0.0044 -0.2639
 5400TIP3    H137615   5.776   4.720   3.747 -1.1795  0.1630 -1.3415
 5400TIP3    H237616   5.873   4.635   3.667  1.7710 -0.3668  2.4993
 5401TIP3   OH237617   4.171   2.821  14.529  0.3275  0.1073 -0.8226
 5401TIP3    H137618   4.211   2.900  14.565 -1.9381  1.1672 -0.4599
 5401TIP3    H237619   4.102   2.854  14.471 -0.9342 -1.5963 -0.3484
 5402TIP3   OH237620   6.649   4.015   2.896  0.8449  0.7251  0.8055
 5402TIP3    H137621   6.708   3.973   2.957  0.0408 -0.0058  1.1024
 5402TIP3    H237622   6.657   4.109   2.914  3.4058  0.8402 -0.5381
 5403TIP3   OH237623   5.225   5.710  16.255  0.9400  0.1270 -0.4632
 5403TIP3    H137624   5.319   5.721  16.239  1.4582 -1.3234  1.2414
 5403TIP3    H237625   5.212   5.745  16.344  0.0053 -0.3501 -0.3999
 5404TIP3   OH237626   0.691   1.919   4.817 -0.2206 -0.3059 -0.0663
 5404TIP3    H137627   0.599   1.899   4.798 -0.0989  0.0023 -1.0599
 5404TIP3    H237628   0.716   1.855   4.883 -1.6579  0.7533  1.6039
 5405TIP3   OH237629   5.171   3.048  12.967  0.1625 -0.7399  0.2280
 5405TIP3    H137630   5.135   2.973  12.918  2.4215 -1.5993 -0.2258
 5405TIP3    H237631   5.236   3.010  13.025  1.1675  0.8424  0.2009
 5406TIP3   OH237632   5.725   4.490  11.936 -0.2418 -0.3317 -0.0720
 5406TIP3    H137633   5.806   4.535  11.912 -0.6635  0.5642  0.1273
 5406TIP3    H237634   5.741   4.455  12.023 -0.4722  0.8924  0.4758
 5407TIP3   OH237635   5.222   2.195  17.069  0.4020 -1.1134 -0.1102
 5407TIP3    H137636   5.287   2.147  17.018  0.4976  0.8267 -1.9665
 5407TIP3    H237637   5.139   2.178  17.024 -0.0603 -1.8389  0.9662
 5408TIP3   OH237638   1.288   5.019  14.729 -0.2519 -0.5617 -0.1665
 5408TIP3    H137639   1.241   5.102  14.736  1.1304  0.2405 -0.1703
 5408TIP3    H237640   1.367   5.032  14.780 -0.2470 -2.0578  0.2314
 5409TIP3   OH237641   3.923   5.593   0.368 -0.3015  0.1063 -0.3807
 5409TIP3    H137642   3.870   5.574   0.445 -0.6045 -0.7866 -0.7929
 5409TIP3    H237643   3.994   5.648   0.401  0.0645 -0.9748  0.7073
 5410TIP3   OH237644   1.874   3.684   0.064 -0.0400 -0.4005 -0.1563
 5410TIP3    H137645   1.796   3.640   0.031 -0.2156  0.3486 -0.7712
 5410TIP3    H237646   1.842   3.764   0.104  0.4340  0.0475 -0.6601
 5411TIP3   OH237647   1.462   4.856   0.828 -0.0372  0.1565 -0.0390
 5411TIP3    H137648   1.402   4.904   0.771 -0.3310  0.4485  0.5055
 5411TIP3    H237649   1.408   4.828   0.902  0.7071  1.3478  0.9948
 5412TIP3   OH237650   0.460   1.551   0.951 -0.1719 -0.1083 -0.3537
 5412TIP3    H137651   0.530   1.498   0.913 -0.5598 -1.2614  0.4964
 5412TIP3    H237652   0.478   1.639   0.920  0.8014 -0.6317 -1.3715
 5413TIP3   OH237653   2.581   0.682   5.746 -0.3528 -0.2881 -0.2426
 5413TIP3    H137654   2.506   0.648   5.697 -0.2080  0.1225 -0.7569
 5413TIP3    H237655   2.655   0.630   5.716 -0.2304  0.0893 -0.6178
 5414TIP3   OH237656   3.064   6.132   6.198 -0.2985 -0.2094 -0.9183
 5414TIP3    H137657   3.070   6.216   6.243 -1.3387 -0.6282  0.0381
 5414TIP3    H237658   3.154   6.099   6.197 -0.1253  0.2029  0.0747
 5415TIP3   OH237659   3.489   2.382   4.024  0.6213  0.5524  0.2257
 5415TIP3    H137660   3.423   2.439   4.064 -0.1096 -1.8966  2.7579
 5415TIP3    H237661   3.571   2.407   4.065  0.6685  1.0989 -0.1837
 5416TIP3   OH237662   1.418   5.246   0.921 -0.3279  0.3980 -0.0192
 5416TIP3    H137663   1.437   5.170   0.977 -0.1445  1.4099  1.3515
 5416TIP3    H237664   1.503   5.286   0.905 -0.6510  1.8270  1.5511
 5417TIP3   OH237665   0.015   1.762  16.026 -0.1759  0.4725 -0.1682
 5417TIP3    H137666   0.104   1.788  16.050 -0.7095  2.6035 -0.3580
 5417TIP3    H237667   0.012   1.772  15.931 -1.0753  2.0735 -0.0058
 5418TIP3   OH237668   1.116   0.955  11.212 -0.5326  0.3807 -0.2290
 5418TIP3    H137669   1.172   0.907  11.151 -0.0139 -1.1639  1.3804
 5418TIP3    H237670   1.027   0.927  11.190 -0.5308  1.1786 -1.3667
 5419TIP3   OH237671   2.445   3.458   4.369 -0.5596 -0.0388  0.1529
 5419TIP3    H137672   2.438   3.369   4.334 -0.5159  0.0803 -0.1640
 5419TIP3    H237673   2.527   3.459   4.418 -0.2343  0.0150 -0.3948
 5420TIP3   OH237674   6.471   4.126  13.961  0.6213 -0.4182  1.2217
 5420TIP3    H137675   6.408   4.088  13.899  0.4848 -1.1101  1.7627
 5420TIP3    H237676   6.477   4.218  13.936  2.0257 -1.0441 -1.0439
 5421TIP3   OH237677   6.282   1.616   4.507  0.0411  0.2437 -0.4827
 5421TIP3    H137678   6.328   1.560   4.569  1.6248  0.5365 -1.3284
 5421TIP3    H237679   6.348   1.682   4.481 -1.5571  2.1498  0.0429
 5422TIP3   OH237680   0.003   0.152  15.736 -0.2774 -0.2405 -0.1847
 5422TIP3    H137681  -0.068   0.089  15.751  1.1981 -1.6181  1.2995
 5422TIP3    H237682   0.074   0.100  15.698  0.7323  0.6643  0.4129
 5423TIP3   OH237683   0.910   2.584   1.032 -0.3883  0.2309 -0.1204
 5423TIP3    H137684   0.817   2.563   1.043  0.0556 -4.2560 -2.4110
 5423TIP3    H237685   0.928   2.568   0.939  2.6482  1.1871  0.1842
 5424TIP3   OH237686   2.305   3.129  11.345  0.3554  0.1899 -0.2349
 5424TIP3    H137687   2.295   3.116  11.439 -1.2992 -0.3930 -0.4534
 5424TIP3    H237688   2.377   3.071  11.321 -0.0162 -0.6014  0.4967
 5425TIP3   OH237689   2.408   2.052   3.510  0.1096 -0.3553 -0.4890
 5425TIP3    H137690   2.466   1.979   3.530 -0.7578 -1.2712 -1.2243
 5425TIP3    H237691   2.364   2.027   3.429 -0.5683  0.7664 -0.4965
 5426TIP3   OH237692   3.539   6.129  12.540 -0.3028 -1.1082  0.7337
 5426TIP3    H137693   3.506   6.048  12.580  1.0304 -0.4729  3.3454
 5426TIP3    H237694   3.491   6.199  12.585  0.0680 -0.3850  0.0287
 5427TIP3   OH237695   6.563   4.595   0.958  0.4793  0.0665  0.2826
 5427TIP3    H137696   6.562   4.523   1.021 -0.4999 -0.1366  0.0480
 5427TIP3    H237697   6.472   4.605   0.932  0.5797  1.4946  0.4173
 5428TIP3   OH237698   0.909   3.548  12.516 -0.0511  0.0071  0.0067
 5428TIP3    H137699   0.904   3.488  12.590 -1.3489 -0.2309 -0.2581
 5428TIP3    H237700   0.916   3.635  12.556 -1.0375 -0.0942  0.4299
 5429TIP3   OH237701   4.331   3.432  14.331  0.4805  0.2499 -0.6487
 5429TIP3    H137702   4.299   3.346  14.305 -0.0949 -0.9775  3.3824
 5429TIP3    H237703   4.412   3.414  14.379  0.0594  1.8265  0.7698
 5430TIP3   OH237704   0.901   2.287  12.923 -0.0530  0.4716  0.3921
 5430TIP3    H137705   0.962   2.218  12.898 -1.5707  0.1888 -3.1686
 5430TIP3    H237706   0.955   2.366  12.930  1.1629 -0.3699  0.6753
 5431TIP3   OH237707   2.895   0.302  15.269  0.9651 -0.6301  0.3476
 5431TIP3    H137708   2.976   0.343  15.237  0.3401 -1.1075 -2.0030
 5431TIP3    H237709   2.917   0.209  15.276  1.1045 -0.5271  1.4280
 5432TIP3   OH237710   4.194   4.404   5.361  0.6237 -0.7568 -0.3672
 5432TIP3    H137711   4.139   4.328   5.345 -0.0101  0.0101 -2.1431
 5432TIP3    H237712   4.134   4.471   5.395  0.8517 -0.5464 -0.3710
 5433TIP3   OH237713   4.062   5.905  13.783 -0.6369  0.4605  0.2312
 5433TIP3    H137714   4.026   5.987  13.816  0.1701  0.4158  1.3143
 5433TIP3    H237715   4.156   5.922  13.774 -0.3357 -0.5436  1.2162
 5434TIP3   OH237716   0.760   5.002   2.304 -0.3099 -0.0858 -1.1316
 5434TIP3    H137717   0.850   4.978   2.323 -0.6264 -0.3901  0.1193
 5434TIP3    H237718   0.726   4.931   2.249  0.2490  0.1015 -1.7172
 5435TIP3   OH237719   3.542   5.513   0.712 -0.2227 -0.6757  0.4287
 5435TIP3    H137720   3.519   5.435   0.762 -0.8715 -0.3727  0.6171
 5435TIP3    H237721   3.459   5.544   0.676 -0.3025  1.0486  1.9988
 5436TIP3   OH237722   1.310   2.009   4.536  0.6438 -0.3532  0.4600
 5436TIP3    H137723   1.269   2.046   4.615  1.2476 -1.1651  1.1736
 5436TIP3    H237724   1.385   1.960   4.569  0.7711 -0.8989 -0.6110
 5437TIP3   OH237725   6.453   1.055   5.727  0.1175  0.3078 -0.8084
 5437TIP3    H137726   6.539   1.097   5.729  0.3629 -0.1206  2.3912
 5437TIP3    H237727   6.463   0.976   5.780 -1.7911 -0.8469 -2.0153
 5438TIP3   OH237728   4.366   3.499   4.490 -0.1523 -0.1490  0.3288
 5438TIP3    H137729   4.440   3.550   4.524 -0.1115 -0.1253  0.2030
 5438TIP3    H237730   4.363   3.421   4.545 -0.4512  0.1706  0.7724
 5439TIP3   OH237731   0.027   4.547  12.821  0.0280 -0.4268  0.5496
 5439TIP3    H137732   0.059   4.618  12.765  1.0333 -1.6939 -0.5121
 5439TIP3    H237733  -0.060   4.577  12.849  0.2857  1.0716 -0.1360
 5440TIP3   OH237734   4.593   3.922  11.396  0.0624 -0.0090  0.3238
 5440TIP3    H137735   4.508   3.966  11.405 -0.1121 -0.6310  2.2492
 5440TIP3    H237736   4.572   3.838  11.354 -0.0401  0.4453 -0.5574
 5441TIP3   OH237737   0.181   0.683  17.268  0.3300  0.0300 -0.4888
 5441TIP3    H137738   0.171   0.609  17.329  2.1806 -0.5698 -0.8551
 5441TIP3    H237739   0.185   0.642  17.182  0.2080  0.6680 -0.7981
 5442TIP3   OH237740   4.096   6.003  12.397 -0.9034  0.0341 -0.1874
 5442TIP3    H137741   4.174   6.052  12.371 -2.0660  1.7683 -0.5937
 5442TIP3    H237742   4.082   5.941  12.326 -0.1890  0.0659 -0.3652
 5443TIP3   OH237743   1.429   6.263   1.304 -0.2432 -0.7547 -0.7615
 5443TIP3    H137744   1.510   6.245   1.256  0.5030  0.9349 -0.1932
 5443TIP3    H237745   1.450   6.245   1.396 -0.4545 -0.1340 -0.5852
 5444TIP3   OH237746   6.220   5.265  16.612 -0.2577  0.5359 -0.0780
 5444TIP3    H137747   6.124   5.257  16.614 -0.1916 -0.2820  1.6846
 5444TIP3    H237748   6.236   5.344  16.560 -2.0055  1.9927  1.4365
 5445TIP3   OH237749   4.662   2.095  14.823 -0.3350  0.1138  0.7918
 5445TIP3    H137750   4.579   2.136  14.799 -0.5184 -0.3563  0.6021
 5445TIP3    H237751   4.697   2.150  14.893 -0.0262  1.2390 -0.2074
 5446TIP3   OH237752   1.897   0.034   3.830  0.1589 -0.1090 -0.7602
 5446TIP3    H137753   1.986   0.054   3.859 -0.3025  1.2519 -0.1981
 5446TIP3    H237754   1.897   0.052   3.736 -0.1561  2.4865 -0.3351
 5447TIP3   OH237755   1.535   4.797   6.307 -0.0228  0.5426  0.1481
 5447TIP3    H137756   1.605   4.754   6.356 -0.5888  1.8885  2.2467
 5447TIP3    H237757   1.503   4.866   6.365 -1.4522  1.5635 -1.7293
 5448TIP3   OH237758   0.197   1.168   2.300  0.2817  0.0920 -0.3317
 5448TIP3    H137759   0.282   1.184   2.341 -0.2194  0.8456  0.4301
 5448TIP3    H237760   0.162   1.092   2.346  0.1191  0.3786  0.0195
 5449TIP3   OH237761   1.688   0.282  14.289  0.0129 -0.4352 -0.1538
 5449TIP3    H137762   1.745   0.229  14.346  0.7966  0.4531 -0.0799
 5449TIP3    H237763   1.607   0.293  14.339  0.6154  0.1564  0.7328
 5450TIP3   OH237764   5.107   6.677  15.821  0.3795  0.5047 -0.3770
 5450TIP3    H137765   5.126   6.701  15.731  1.0146  1.8658  0.0948
 5450TIP3    H237766   5.156   6.740  15.874 -1.4465  0.9327  0.9085
 5451TIP3   OH237767   0.508   0.437   1.612  0.7787 -0.2629  0.3576
 5451TIP3    H137768   0.500   0.435   1.707  0.2843  2.4308  0.4573
 5451TIP3    H237769   0.418   0.443   1.580  0.9655 -0.5998 -0.2630
 5452TIP3   OH237770   2.799   3.704  14.149 -0.2270  0.3084 -0.1283
 5452TIP3    H137771   2.810   3.792  14.114 -1.3685  0.3175 -0.4792
 5452TIP3    H237772   2.806   3.714  14.243  0.1064  0.6962 -0.1909
 5453TIP3   OH237773   5.858   0.204  15.924  0.1296  0.6120  0.0047
 5453TIP3    H137774   5.909   0.257  15.984  1.5213  1.1288 -1.5659
 5453TIP3    H237775   5.879   0.113  15.948 -1.7617  0.6733  2.2724
 5454TIP3   OH237776   1.446   5.085  15.319 -0.1260  0.0434  0.3657
 5454TIP3    H137777   1.506   5.010  15.324  0.3735  0.4789  1.1639
 5454TIP3    H237778   1.378   5.065  15.383  0.6086  0.7691  1.4060
 5455TIP3   OH237779   1.739   2.015   3.636 -0.6459  0.5779  0.3902
 5455TIP3    H137780   1.647   1.995   3.623 -0.5312 -0.3377  0.8829
 5455TIP3    H237781   1.747   2.033   3.730 -0.0701 -0.9560  0.6791
 5456TIP3   OH237782   4.308   4.407  13.408  0.4696  0.3219 -0.8087
 5456TIP3    H137783   4.280   4.442  13.492  1.0731  0.2950 -0.5855
 5456TIP3    H237784   4.241   4.343  13.384  0.5323 -0.0172 -0.1108
 5457TIP3   OH237785   1.669   1.560  11.254  0.2908  0.3911 -0.1774
 5457TIP3    H137786   1.763   1.552  11.242  0.1084  0.1626 -1.6341
 5457TIP3    H237787   1.646   1.642  11.209 -0.0222  1.1861  1.3801
 5458TIP3   OH237788   3.931   2.754  15.416  0.9030 -0.2723 -0.1163
 5458TIP3    H137789   3.890   2.668  15.402  2.5377 -0.7632 -2.7129
 5458TIP3    H237790   3.880   2.814  15.362  0.1964  0.2745  1.1355
 5459TIP3   OH237791   6.615   5.079   5.835  0.1764  0.3213 -0.1467
 5459TIP3    H137792   6.657   4.993   5.828  0.6776  0.6511 -1.3993
 5459TIP3    H237793   6.537   5.064   5.889 -0.2711 -1.1180 -1.1433
 5460TIP3   OH237794   4.609   2.466  12.331  0.5429 -0.7287 -0.7511
 5460TIP3    H137795   4.571   2.553  12.342 -1.2402 -1.5812  0.2263
 5460TIP3    H237796   4.571   2.433  12.250  1.5366 -0.4702 -1.3401
 5461TIP3   OH237797   6.635   6.447   3.344  0.3825  0.0694 -0.1154
 5461TIP3    H137798   6.600   6.376   3.290 -0.0086  0.6784 -0.6824
 5461TIP3    H237799   6.638   6.523   3.286  1.5038  0.3467  0.2728
 5462TIP3   OH237800   5.787   6.322  11.872 -0.4864 -0.4006  0.0369
 5462TIP3    H137801   5.769   6.342  11.780 -0.8439  0.7821  0.3509
 5462TIP3    H237802   5.784   6.226  11.876  0.1476 -0.5048 -1.3005
 5463TIP3   OH237803   5.703   1.706  16.638  0.1027 -0.3159  0.3072
 5463TIP3    H137804   5.748   1.770  16.693  1.1763 -0.8062  0.0312
 5463TIP3    H237805   5.774   1.655  16.598 -0.6996 -0.9416 -0.3519
 5464TIP3   OH237806   0.861   5.989  10.997 -0.4196 -0.0873 -0.0213
 5464TIP3    H137807   0.770   5.987  11.024 -0.9918 -1.8587 -1.8250
 5464TIP3    H237808   0.893   5.900  11.012  0.3681 -0.0490 -1.3332
 5465TIP3   OH237809   3.784   5.705  15.180  0.0277 -1.1530 -0.4568
 5465TIP3    H137810   3.794   5.665  15.093  1.5975 -0.2720 -0.7161
 5465TIP3    H237811   3.830   5.644  15.239  1.2731 -0.4595 -0.6636
 5466TIP3   OH237812   4.848   1.848  16.622  0.4657 -0.2497  0.1622
 5466TIP3    H137813   4.919   1.803  16.576  0.7229  2.0198 -1.8778
 5466TIP3    H237814   4.768   1.808  16.589  0.7199 -0.4596 -0.1970
 5467TIP3   OH237815   4.861   4.293  11.340 -0.3468 -0.4869 -0.1908
 5467TIP3    H137816   4.838   4.210  11.297 -0.8687 -0.1501 -0.5845
 5467TIP3    H237817   4.903   4.344  11.271 -2.2387  0.5121 -0.6873
 5468TIP3   OH237818   1.529   5.394   3.200  0.1728  0.1541 -0.3653
 5468TIP3    H137819   1.532   5.422   3.292  1.2606  0.2946 -0.4348
 5468TIP3    H237820   1.539   5.299   3.204  2.4980  0.3462 -0.4278
 5469TIP3   OH237821   1.579   5.437   0.276 -0.0883  0.3538  0.2160
 5469TIP3    H137822   1.601   5.403   0.363  0.2024 -0.9926 -0.3575
 5469TIP3    H237823   1.565   5.531   0.290 -0.0599  0.1626  1.7121
 5470TIP3   OH237824   6.543   5.652   4.410 -0.3576  0.0337 -0.3927
 5470TIP3    H137825   6.448   5.639   4.400 -0.6803  1.9577 -0.2719
 5470TIP3    H237826   6.560   5.735   4.365  0.8011  1.0663  1.8061
 5471TIP3   OH237827   5.825   5.076  16.198 -0.4256  0.3750  0.6077
 5471TIP3    H137828   5.751   5.019  16.177 -1.3344  1.6216  0.3283
 5471TIP3    H237829   5.855   5.046  16.284 -1.6467  0.2475  0.9980
 5472TIP3   OH237830   3.111   0.541  13.972  0.1851 -0.3026  0.5058
 5472TIP3    H137831   3.108   0.608  13.904 -2.7322 -0.0824  0.7338
 5472TIP3    H237832   3.142   0.587  14.050  0.6953  0.1328  0.0552
 5473TIP3   OH237833   2.575   4.996  16.010 -0.3050  0.3252  0.1808
 5473TIP3    H137834   2.531   5.032  15.934 -2.0701  0.7957  1.3678
 5473TIP3    H237835   2.527   4.915  16.030 -0.5269  0.7204  1.3629
 5474TIP3   OH237836   0.503   1.336   4.357 -0.1713  0.0519  0.7124
 5474TIP3    H137837   0.419   1.298   4.382 -1.5628  2.0165 -0.7253
 5474TIP3    H237838   0.557   1.261   4.334 -2.3623 -1.1895 -0.7620
 5475TIP3   OH237839   2.700   3.484  12.203 -0.4483 -0.0672  0.3137
 5475TIP3    H137840   2.756   3.559  12.225 -0.3742 -0.2721  0.8523
 5475TIP3    H237841   2.620   3.498  12.254 -0.8951  0.2264 -0.4586
 5476TIP3   OH237842   0.280   3.486  13.226 -0.0425 -0.3398 -0.4258
 5476TIP3    H137843   0.211   3.465  13.162 -2.0443 -1.1207  1.8346
 5476TIP3    H237844   0.353   3.428  13.202 -0.0784  0.5190 -2.8971
 5477TIP3   OH237845   3.628   4.349  12.364 -0.3272  0.1590  0.2290
 5477TIP3    H137846   3.720   4.348  12.388  0.3052  3.7528 -1.4300
 5477TIP3    H237847   3.585   4.396  12.436 -0.7068 -0.4665  0.4251
 5478TIP3   OH237848   3.846   3.554   1.138 -0.1082  0.4037 -0.5441
 5478TIP3    H137849   3.904   3.615   1.093 -0.6290  0.8801 -0.5882
 5478TIP3    H237850   3.761   3.598   1.138 -0.1290  0.3953  0.8820
 5479TIP3   OH237851   1.884   6.230   2.436  0.7072 -0.3316  0.3397
 5479TIP3    H137852   1.834   6.275   2.367 -0.1524  1.3292  1.9568
 5479TIP3    H237853   1.912   6.148   2.395 -0.6572  0.1042 -1.6478
 5480TIP3   OH237854   5.354   2.039   2.961 -0.5518  0.4859  0.4670
 5480TIP3    H137855   5.297   2.068   3.031  0.0378 -0.5906  1.4274
 5480TIP3    H237856   5.353   1.943   2.967  0.4271  0.4119 -0.2418
 5481TIP3   OH237857   1.998   4.872   1.729 -0.2844 -0.2725 -0.0809
 5481TIP3    H137858   2.034   4.943   1.676 -1.0739  0.3856  0.2377
 5481TIP3    H237859   2.057   4.798   1.713  0.2612  0.2993 -0.8159
 5482TIP3   OH237860   3.714   5.371  14.508 -0.6155  0.1059 -0.2583
 5482TIP3    H137861   3.739   5.330  14.591  0.6168  0.0144 -0.6495
 5482TIP3    H237862   3.621   5.388  14.517 -1.3064 -3.0252 -0.1657
 5483TIP3   OH237863   2.771   6.021  13.398 -0.2379  0.4411  0.6012
 5483TIP3    H137864   2.825   6.100  13.405 -0.8793  0.8891  0.5825
 5483TIP3    H237865   2.688   6.045  13.439 -1.3127  0.5873 -1.5080
 5484TIP3   OH237866   6.585   1.806   0.224 -0.0276 -0.8452 -0.3793
 5484TIP3    H137867   6.559   1.885   0.272 -1.4778 -0.6617 -1.3822
 5484TIP3    H237868   6.540   1.814   0.139  2.5213 -1.0934 -1.8640
 5485TIP3   OH237869   1.755   2.825  12.817 -0.2068  0.4433  0.4886
 5485TIP3    H137870   1.788   2.848  12.904  1.4392  0.0876 -0.0064
 5485TIP3    H237871   1.823   2.854  12.757 -1.1255  0.2998 -0.6612
 5486TIP3   OH237872   6.753   1.437  15.308 -0.3824  0.5996 -0.5898
 5486TIP3    H137873   6.826   1.401  15.359  0.2089  0.0368 -1.7922
 5486TIP3    H237874   6.675   1.400  15.348  0.1396 -0.8838 -0.8825
 5487TIP3   OH237875   5.822   4.971   4.669  0.0431  0.2776 -0.1779
 5487TIP3    H137876   5.852   4.930   4.587 -0.6944  2.1956 -1.4827
 5487TIP3    H237877   5.897   5.021   4.699  0.0704  0.1825 -0.0856
 5488TIP3   OH237878   4.165   1.778  15.924  0.3956 -0.1947 -0.2093
 5488TIP3    H137879   4.084   1.757  15.970  0.1793  1.0373 -0.0050
 5488TIP3    H237880   4.188   1.866  15.953  1.7326 -0.4546 -0.3858
 5489TIP3   OH237881   0.395   4.930   0.336  0.3144 -0.3041  0.1257
 5489TIP3    H137882   0.346   4.994   0.284  0.0943 -0.0332  0.6584
 5489TIP3    H237883   0.487   4.948   0.316  0.2118 -0.6617 -0.7025
 5490TIP3   OH237884   5.437   0.925   5.019  0.0983 -0.8508  0.1922
 5490TIP3    H137885   5.482   0.889   4.942 -0.0818 -2.3487  0.7723
 5490TIP3    H237886   5.464   1.017   5.020 -1.1175 -0.3600 -2.5718
 5491TIP3   OH237887   5.734   4.304  16.138 -0.1892 -0.1495 -0.0490
 5491TIP3    H137888   5.638   4.305  16.145 -0.1991  0.9454 -0.1574
 5491TIP3    H237889   5.760   4.220  16.175 -0.9642  0.8171  2.9087
 5492TIP3   OH237890   6.220   5.121   1.172 -0.4150 -0.5989 -0.0352
 5492TIP3    H137891   6.131   5.086   1.176 -0.5317 -0.4782 -1.2238
 5492TIP3    H237892   6.262   5.072   1.102 -0.2325  0.8288 -0.9804
 5493TIP3   OH237893   4.333   4.680  12.587 -0.4278  0.1576 -0.0666
 5493TIP3    H137894   4.343   4.619  12.515  0.7861  0.1118  0.1284
 5493TIP3    H237895   4.260   4.644  12.638 -0.6531 -0.3426 -0.7203
 5494TIP3   OH237896   6.050   5.097  12.234 -0.2350 -0.0127  0.2644
 5494TIP3    H137897   6.086   5.077  12.147  1.3328  1.0565  0.6317
 5494TIP3    H237898   5.965   5.137  12.215  0.7574  1.6823 -0.9097
 5495TIP3   OH237899   3.890   1.458   3.654 -0.1212  0.0154 -0.6956
 5495TIP3    H137900   3.825   1.488   3.591  0.3604  1.9994 -0.3337
 5495TIP3    H237901   3.949   1.533   3.665  1.6669 -1.3756 -0.2822
 5496TIP3   OH237902   2.605   4.197  11.515 -0.5793  0.4375  0.3290
 5496TIP3    H137903   2.695   4.164  11.507 -0.5233  0.7574 -0.4720
 5496TIP3    H237904   2.561   4.165  11.437 -1.0230  0.7170  0.4630
 5497TIP3   OH237905   5.124   0.166   3.173 -0.4381  0.1582  0.4592
 5497TIP3    H137906   5.152   0.077   3.154  0.8615  0.8075 -0.8622
 5497TIP3    H237907   5.090   0.199   3.090 -0.4829  1.0394  0.8155
 5498TIP3   OH237908   4.124   1.254   4.645 -0.0191 -0.0600 -0.0108
 5498TIP3    H137909   4.080   1.214   4.569 -0.5859  0.7793 -0.1411
 5498TIP3    H237910   4.077   1.336   4.659  1.8691  1.1682 -0.4987
 5499TIP3   OH237911   4.704   5.429  12.573  0.4338 -0.2989  0.1011
 5499TIP3    H137912   4.726   5.387  12.490 -1.7092 -2.1161  0.3627
 5499TIP3    H237913   4.749   5.376  12.639  1.4073  0.6086  0.1890
 5500TIP3   OH237914   4.809   3.403   5.219 -0.5376 -0.5534 -0.0631
 5500TIP3    H137915   4.778   3.492   5.236 -1.6908 -0.8646 -0.4774
 5500TIP3    H237916   4.855   3.409   5.136 -2.8779 -0.8162 -1.4557
 5501TIP3   OH237917   6.138   0.191  12.455  0.1402  0.1152  0.0742
 5501TIP3    H137918   6.188   0.215  12.377  1.0924  1.4222  1.0436
 5501TIP3    H237919   6.199   0.141  12.509 -1.2552 -3.0629 -1.0524
 5502TIP3   OH237920   0.423   2.776   1.155 -0.0614  0.9076  0.6037
 5502TIP3    H137921   0.409   2.752   1.247 -2.6977  0.0754  0.0812
 5502TIP3    H237922   0.369   2.854   1.142  1.0365  1.5802 -0.0243
 5503TIP3   OH237923   1.512   4.683   5.512  0.5384  0.1668  0.2544
 5503TIP3    H137924   1.500   4.643   5.598 -0.6843  0.8200  0.4141
 5503TIP3    H237925   1.572   4.755   5.526  1.7810 -0.8272  0.1976
 5504TIP3   OH237926   1.754   6.439   5.698 -0.4815 -0.6841 -0.2474
 5504TIP3    H137927   1.682   6.376   5.694 -1.8362  0.7498  0.6355
 5504TIP3    H237928   1.787   6.432   5.788  1.0433 -1.8884 -0.8626
 5505TIP3   OH237929   6.359   1.733  12.577 -0.0029 -0.4684  0.0494
 5505TIP3    H137930   6.361   1.791  12.500 -1.6615 -0.7089 -0.2189
 5505TIP3    H237931   6.267   1.710  12.586  0.5484 -2.7176  0.4237
 5506TIP3   OH237932   6.540   0.011  11.071  0.5401 -0.1160 -0.6059
 5506TIP3    H137933   6.534  -0.085  11.072 -1.1656 -0.0615 -1.2974
 5506TIP3    H237934   6.488   0.039  11.146  2.0173  0.2743  0.3105
 5507TIP3   OH237935   6.690   1.365   5.649 -0.3883  0.7878 -0.4424
 5507TIP3    H137936   6.643   1.284   5.668 -0.1323  0.8609  0.5283
 5507TIP3    H237937   6.683   1.375   5.553 -0.3434 -0.4161 -0.5769
 5508TIP3   OH237938   3.772   1.951   5.640  0.6644 -0.2401  0.1685
 5508TIP3    H137939   3.744   2.038   5.668 -1.0840 -0.6292 -0.2644
 5508TIP3    H237940   3.751   1.948   5.546  0.6199 -1.1609  0.1942
 5509TIP3   OH237941   5.744   0.507   1.885 -0.2773 -0.3057  0.0052
 5509TIP3    H137942   5.827   0.473   1.919  1.5704  1.7962 -2.0528
 5509TIP3    H237943   5.732   0.463   1.801  0.1016  1.1499 -0.8479
 5510TIP3   OH237944   6.028   3.682  14.679  0.2800  0.2359 -0.1721
 5510TIP3    H137945   5.982   3.750  14.728 -0.2132 -0.1194 -0.1388
 5510TIP3    H237946   5.979   3.674  14.597  2.0963  2.0824 -1.5680
 5511TIP3   OH237947   1.716   5.563   5.363 -0.3272  0.4140  0.0286
 5511TIP3    H137948   1.647   5.509   5.399  0.1214  0.3860  0.8722
 5511TIP3    H237949   1.681   5.594   5.279 -1.1629  0.0190  0.2205
 5512TIP3   OH237950   4.639   1.716   1.585  0.3398  0.3361  0.0981
 5512TIP3    H137951   4.667   1.730   1.494 -1.4384 -0.9796 -0.6997
 5512TIP3    H237952   4.623   1.622   1.591 -1.5312  0.6702  1.1551
 5513TIP3   OH237953   5.549   1.668   0.030  0.3617  0.5523  0.3079
 5513TIP3    H137954   5.513   1.658   0.118  0.2332  0.4363  0.2427
 5513TIP3    H237955   5.643   1.677   0.044  0.6030 -1.5788  0.3361
 5514TIP3   OH237956   3.155   0.918   4.186 -0.0707 -0.2067 -0.2954
 5514TIP3    H137957   3.229   0.934   4.244 -0.2719  2.2823 -0.6074
 5514TIP3    H237958   3.186   0.849   4.127  1.9973  0.6529 -0.3330
 5515TIP3   OH237959   0.897   0.057  11.247 -0.4367 -0.1992  0.0300
 5515TIP3    H137960   0.952  -0.018  11.271 -1.4236 -1.6202 -1.8359
 5515TIP3    H237961   0.812   0.018  11.226 -1.3777  1.6284  0.2090
 5516TIP3   OH237962   0.930   0.805  12.880 -0.4646 -0.5692 -0.5399
 5516TIP3    H137963   0.978   0.882  12.913 -0.2993 -0.4913 -0.9593
 5516TIP3    H237964   0.922   0.748  12.956 -0.5567 -0.1530 -0.2292
 5517TIP3   OH237965   6.710   6.394   1.039  0.3596 -0.1106  0.1876
 5517TIP3    H137966   6.683   6.469   0.987  1.6238  1.8527  2.2220
 5517TIP3    H237967   6.631   6.340   1.046 -0.2883  0.3802 -2.2412
 5518TIP3   OH237968   1.425   4.320  13.946  0.2873 -0.2100  0.0550
 5518TIP3    H137969   1.364   4.250  13.923 -0.9950  1.4678 -2.0794
 5518TIP3    H237970   1.476   4.334  13.866  0.8635  0.9431  0.6102
 5519TIP3   OH237971   1.797   5.060  14.179 -0.0462 -0.1558 -0.3849
 5519TIP3    H137972   1.706   5.063  14.208  0.0714  2.7145  0.0382
 5519TIP3    H237973   1.797   5.104  14.094  0.6178 -2.5462 -1.7155
 5520TIP3   OH237974   6.254   3.827  12.551  0.2383  0.0183  0.7027
 5520TIP3    H137975   6.307   3.752  12.577 -2.7077 -0.9296  4.8887
 5520TIP3    H237976   6.292   3.901  12.599  0.0502  0.1346  0.6743
 5521TIP3   OH237977   2.597   1.786   1.747  0.0601  0.0750  0.1343
 5521TIP3    H137978   2.558   1.704   1.714  0.4804 -0.0244 -0.1281
 5521TIP3    H237979   2.548   1.805   1.826 -0.4174 -0.1337 -0.1039
 5522TIP3   OH237980   6.735   5.734   1.683 -0.3304  0.6268 -0.1378
 5522TIP3    H137981   6.787   5.697   1.754  0.5980 -1.0996 -1.6206
 5522TIP3    H237982   6.653   5.686   1.685 -0.5215  0.9580  0.0871
 5523TIP3   OH237983   4.425   5.887   2.095 -0.7864 -0.4178 -0.0418
 5523TIP3    H137984   4.331   5.900   2.103 -0.6267  0.9787 -0.1536
 5523TIP3    H237985   4.442   5.889   2.001 -0.4226  1.4343  0.0134
 5524TIP3   OH237986   3.288   5.705  16.461 -0.0083 -0.0523 -0.4219
 5524TIP3    H137987   3.265   5.663  16.379 -0.5835  0.9272 -0.7734
 5524TIP3    H237988   3.288   5.633  16.525 -0.0703 -0.7302 -1.1611
 5525TIP3   OH237989   6.706   3.122   0.342  0.2662  0.3667  0.3016
 5525TIP3    H137990   6.787   3.081   0.371 -0.6581 -1.0111  1.0925
 5525TIP3    H237991   6.653   3.128   0.422 -1.2965 -0.9838 -0.5497
 5526TIP3   OH237992   3.020   1.274  13.034  0.1528  0.0093  0.0598
 5526TIP3    H137993   3.075   1.252  13.109  0.4668  1.3035  0.2393
 5526TIP3    H237994   3.034   1.368  13.020 -0.0460 -0.1532 -1.5009
 5527TIP3   OH237995   6.331   2.322   4.097 -0.3706  0.3345  0.2299
 5527TIP3    H137996   6.414   2.294   4.136 -0.8093  1.2598  1.8745
 5527TIP3    H237997   6.264   2.280   4.151 -1.0051  2.5622  1.2747
 5528TIP3   OH237998   4.784   5.566  11.153 -0.2892  0.5437  0.1110
 5528TIP3    H137999   4.847   5.535  11.088  0.7309  0.6664  1.0133
 5528TIP3    H238000   4.763   5.489  11.205  0.3649  0.8223  0.8124
 5529TIP3   OH238001   3.325   5.562  12.161  0.3170 -0.1717 -0.4093
 5529TIP3    H138002   3.314   5.627  12.231  0.7086  0.0806 -0.5802
 5529TIP3    H238003   3.414   5.576  12.129  0.5722 -1.1098 -0.1325
 5530TIP3   OH238004   5.853   2.201  15.681 -0.3615  0.5434 -0.8373
 5530TIP3    H138005   5.876   2.113  15.712 -0.6695 -0.4312 -3.2083
 5530TIP3    H238006   5.928   2.229  15.629 -0.0303  1.9724  0.3402
 5531TIP3   OH238007   6.413   5.037  11.878 -0.0986  0.0151  0.8058
 5531TIP3    H138008   6.324   5.029  11.911 -0.8763 -1.3718 -1.3944
 5531TIP3    H238009   6.468   4.998  11.946 -1.5293 -2.1751  0.7838
 5532TIP3   OH238010   1.596   2.290  16.664  0.6184  0.2473 -0.2227
 5532TIP3    H138011   1.553   2.236  16.730  0.9356 -1.5277 -1.3994
 5532TIP3    H238012   1.686   2.298  16.694  0.5960  0.0294 -0.0963
 5533TIP3   OH238013   0.883   5.127  13.785 -0.5877  0.2237  0.3496
 5533TIP3    H138014   0.815   5.189  13.810 -0.5130  0.3581  0.2193
 5533TIP3    H238015   0.897   5.073  13.863  0.1106  1.0551  0.8165
 5534TIP3   OH238016   6.737   6.255  14.196  0.0352 -0.7830 -0.0858
 5534TIP3    H138017   6.713   6.322  14.131  0.9961 -0.4855 -0.1509
 5534TIP3    H238018   6.783   6.188  14.146 -0.4858 -1.2511  0.0624
 5535TIP3   OH238019   5.618   6.588  14.120  0.1237 -0.5447  0.1863
 5535TIP3    H138020   5.529   6.621  14.120 -0.1321 -1.1981 -0.4964
 5535TIP3    H238021   5.657   6.621  14.201 -1.2183 -1.5466  1.2762
 5536TIP3   OH238022   4.538   4.634   3.701  0.0037 -0.5932  0.0986
 5536TIP3    H138023   4.544   4.699   3.771  0.8878 -1.9560  1.3502
 5536TIP3    H238024   4.628   4.601   3.691 -0.0513 -0.3166 -1.8356
 5537TIP3   OH238025   3.350   4.460   2.550 -0.2437 -0.5361 -0.1192
 5537TIP3    H138026   3.311   4.524   2.610 -0.2151  0.2224 -0.8948
 5537TIP3    H238027   3.407   4.407   2.606  0.7230  0.9328  0.3485
 5538TIP3   OH238028   0.835   1.755  17.010  0.1507  0.5062  0.1884
 5538TIP3    H138029   0.752   1.803  17.014 -0.8287 -1.0560 -0.3681
 5538TIP3    H238030   0.844   1.716  17.096  1.2740  2.1184  0.8588
 5539TIP3   OH238031   2.320   2.896  15.570  0.3150  0.0761  0.2238
 5539TIP3    H138032   2.226   2.880  15.561  0.4489 -0.6802  0.1281
 5539TIP3    H238033   2.337   2.891  15.664  0.2632  0.2144  0.2411
 5540TIP3   OH238034   4.759   0.796  17.302 -0.1502 -0.4419 -0.2298
 5540TIP3    H138035   4.801   0.715  17.272 -0.5353 -1.0237  0.7746
 5540TIP3    H238036   4.690   0.813  17.238 -0.5463 -1.3149 -0.0344
 5541TIP3   OH238037   0.245   5.658   5.570 -0.1752 -0.2682 -0.0058
 5541TIP3    H138038   0.261   5.621   5.657 -0.4324  0.8000  0.5242
 5541TIP3    H238039   0.151   5.680   5.570 -0.4624 -1.4113 -1.0276
 5542TIP3   OH238040   1.192   2.979   3.598  0.1592 -0.0286 -0.2873
 5542TIP3    H138041   1.244   3.030   3.536 -0.2553 -0.2117 -0.7979
 5542TIP3    H238042   1.204   2.888   3.571 -1.1522 -0.0082 -0.9962
 5543TIP3   OH238043   0.610   2.771  11.891  0.2893  0.8123 -0.1508
 5543TIP3    H138044   0.631   2.813  11.808 -0.4156  2.4943  0.4811
 5543TIP3    H238045   0.516   2.755  11.886  0.6437 -1.4427 -0.6679
 5544TIP3   OH238046   1.193   5.248  13.388  0.1159  0.3602 -0.9319
 5544TIP3    H138047   1.135   5.174  13.404  0.2289  0.3964 -0.3413
 5544TIP3    H238048   1.274   5.226  13.434  0.1652  0.8294 -0.7923
 5545TIP3   OH238049   4.059   5.554  16.920  0.0010 -0.3352  0.0050
 5545TIP3    H138050   4.017   5.472  16.947 -1.1686  0.4971  0.8186
 5545TIP3    H238051   4.013   5.621  16.969  1.4763  0.7577 -0.0365
 5546TIP3   OH238052   5.491   1.058   3.238  0.0948 -0.3104 -0.3435
 5546TIP3    H138053   5.427   1.008   3.187  2.4222 -2.3828 -1.4270
 5546TIP3    H238054   5.551   1.094   3.173  0.5733  0.8096  0.6857
 5547TIP3   OH238055   3.999   2.435  12.063 -0.4926 -0.5896  0.1319
 5547TIP3    H138056   4.001   2.356  12.010 -2.3149 -0.9232  0.4848
 5547TIP3    H238057   3.985   2.403  12.153  0.1827  0.0735  0.4821
 5548TIP3   OH238058   0.708   5.977   5.559  0.4627  0.0468 -0.3715
 5548TIP3    H138059   0.645   6.036   5.517  2.4192  1.5905 -1.2885
 5548TIP3    H238060   0.713   6.007   5.650 -0.1965 -0.2073 -0.2381
 5549TIP3   OH238061   0.565   2.882  13.464  0.0049  0.0450 -0.3749
 5549TIP3    H138062   0.596   2.944  13.398  1.1201  0.3838  0.4344
 5549TIP3    H238063   0.550   2.936  13.542  0.6387 -0.6411  0.2330
 5550TIP3   OH238064   1.347   3.227  11.112  0.0226 -0.3440 -0.3492
 5550TIP3    H138065   1.389   3.141  11.105  1.5606  0.1100  1.9767
 5550TIP3    H238066   1.388   3.279  11.043  3.3272  0.0072  1.6708
 5551TIP3   OH238067   0.613   1.537  12.075 -0.4426  0.2116  0.1844
 5551TIP3    H138068   0.681   1.478  12.107 -0.3611  0.4292  0.4097
 5551TIP3    H238069   0.576   1.577  12.154  1.5159  2.7372 -0.0634
 5552TIP3   OH238070   1.102   2.361  11.462 -0.5902  0.2343 -0.2989
 5552TIP3    H138071   1.055   2.292  11.415 -0.8822  1.1160 -1.3442
 5552TIP3    H238072   1.045   2.438  11.454 -1.2044  0.1887  2.4832
 5553TIP3   OH238073   4.964   4.549   3.165 -0.3972 -0.1111 -0.3256
 5553TIP3    H138074   4.967   4.456   3.145 -0.5015  0.1549 -1.6881
 5553TIP3    H238075   4.977   4.554   3.260  0.2166 -1.4620 -0.3192
 5554TIP3   OH238076   4.530   2.956  15.332 -0.2282 -0.0732 -0.0254
 5554TIP3    H138077   4.582   2.905  15.394 -1.8803 -2.0932 -0.1738
 5554TIP3    H238078   4.455   2.987  15.384 -0.7684 -0.3708 -0.6085
 5555TIP3   OH238079   4.167   2.624  11.927  0.3096 -0.4238 -0.1884
 5555TIP3    H138080   4.183   2.692  11.993 -0.1000 -0.5048 -0.0018
 5555TIP3    H238081   4.127   2.552  11.975  0.5990 -0.7388 -0.4155
 5556TIP3   OH238082   5.639   3.490   1.889 -0.4976  0.4116  0.3082
 5556TIP3    H138083   5.681   3.574   1.909  1.0340  0.2068 -1.7546
 5556TIP3    H238084   5.560   3.513   1.840 -0.0970  0.6459 -0.2280
 5557TIP3   OH238085   3.380   0.005   3.792 -0.0618  0.4432  0.0250
 5557TIP3    H138086   3.417   0.074   3.737  2.0667 -0.5175  0.1301
 5557TIP3    H238087   3.374  -0.071   3.734 -1.6315  0.4731  0.1141
 5558TIP3   OH238088   5.586   0.264   2.246 -0.8322  0.1798 -0.2751
 5558TIP3    H138089   5.593   0.341   2.190  0.2611  1.0798  1.0315
 5558TIP3    H238090   5.630   0.195   2.196 -1.9355  0.3345 -1.5142
 5559TIP3   OH238091   5.111   5.283  15.396 -0.3106  0.0082 -0.1529
 5559TIP3    H138092   5.201   5.310  15.415  0.1048 -1.3054 -0.1298
 5559TIP3    H238093   5.082   5.345  15.328  1.3175 -0.7115 -1.6038
 5560TIP3   OH238094   5.043   1.106  13.136 -0.0886  0.5036 -0.5000
 5560TIP3    H138095   5.071   1.027  13.089  0.8641 -1.4719  3.0308
 5560TIP3    H238096   5.124   1.150  13.159 -0.4487  0.7727  0.2771
 5561TIP3   OH238097   3.408   0.622   2.538  0.1237 -0.2122 -0.2740
 5561TIP3    H138098   3.435   0.707   2.505  1.6769 -1.3517 -2.0778
 5561TIP3    H238099   3.483   0.589   2.587 -0.5722 -0.4442  0.6775
 5562TIP3   OH238100   0.795   0.677   2.084  0.1875  0.3315  0.8420
 5562TIP3    H138101   0.887   0.653   2.087  0.5462  1.6617  1.2298
 5562TIP3    H238102   0.791   0.747   2.018 -0.8807 -1.0217 -0.6024
 5563TIP3   OH238103   3.993   1.623  15.647 -0.1514 -0.1986 -0.2747
 5563TIP3    H138104   4.021   1.609  15.737 -0.5683 -2.7122 -0.4585
 5563TIP3    H238105   3.901   1.647  15.654 -0.2948 -0.8109 -0.0431
 5564TIP3   OH238106   3.818   4.182  12.063  0.0036 -0.0816 -0.1595
 5564TIP3    H138107   3.724   4.171  12.075  0.2400  0.1914  2.5628
 5564TIP3    H238108   3.834   4.154  11.973 -2.8831  1.3282 -1.2579
 5565TIP3   OH238109   3.516   6.633  17.177 -0.7742 -0.0990 -0.9438
 5565TIP3    H138110   3.429   6.593  17.183  0.4152 -2.6836  0.6197
 5565TIP3    H238111   3.560   6.585  17.107  0.2600 -0.7366  0.1044
 5566TIP3   OH238112   3.012   1.241  15.032  0.2997 -0.7642  0.7975
 5566TIP3    H138113   2.953   1.198  15.094  0.0491 -1.3327  0.1776
 5566TIP3    H238114   2.999   1.194  14.950 -0.6762  1.0498 -0.1539
 5567TIP3   OH238115   6.034   0.050  16.639  0.5184 -0.0429 -0.0926
 5567TIP3    H138116   5.973   0.098  16.695  1.1507 -1.1541  1.6127
 5567TIP3    H238117   6.069   0.117  16.580  0.8000  1.4756  1.6940
 5568TIP3   OH238118   0.126   6.264   0.879  0.0973  0.2543  0.0882
 5568TIP3    H138119   0.093   6.327   0.943 -0.9204 -0.6080  0.4238
 5568TIP3    H238120   0.062   6.268   0.807  1.6195  1.7786 -1.2810
 5569TIP3   OH238121   3.381   4.413  12.768  0.4228  0.0612 -0.3067
 5569TIP3    H138122   3.312   4.389  12.707 -0.5481  1.1497  0.3337
 5569TIP3    H238123   3.449   4.346  12.755 -0.5706 -0.8015 -1.2122
 5570TIP3   OH238124   1.910   5.932  15.715 -0.2572  0.2366 -0.1190
 5570TIP3    H138125   1.932   5.979  15.634 -1.9467 -0.6897 -1.1658
 5570TIP3    H238126   1.876   6.001  15.773 -0.0570  0.7446 -0.5888
 5571TIP3   OH238127   3.866   0.873  15.845  0.5679  0.4619  0.0347
 5571TIP3    H138128   3.948   0.870  15.796 -0.2337 -0.1430 -1.3099
 5571TIP3    H238129   3.830   0.784  15.837 -2.5848  1.7980 -3.6365
 5572TIP3   OH238130   1.911   6.420   5.963 -0.2591 -0.8135  0.3777
 5572TIP3    H138131   1.982   6.483   5.955 -0.8879 -0.2657 -1.8097
 5572TIP3    H238132   1.942   6.344   5.914 -0.5244 -1.2011  0.8139
 5573TIP3   OH238133   0.483   0.814  17.203 -0.4240  0.0340  0.3341
 5573TIP3    H138134   0.395   0.780  17.217 -1.8784  2.7699 -1.1614
 5573TIP3    H238135   0.509   0.849  17.288 -2.0017  1.5529  0.2756
 5574TIP3   OH238136   3.604   6.652  11.630 -0.5910  0.3323 -0.4721
 5574TIP3    H138137   3.545   6.578  11.613  0.4580 -0.5502 -0.3867
 5574TIP3    H238138   3.554   6.729  11.604 -1.3597 -0.4846 -1.4950
 5575TIP3   OH238139   5.392   5.548  15.547 -0.1522 -0.4867 -0.7621
 5575TIP3    H138140   5.433   5.462  15.555  0.3109 -0.1185  1.5794
 5575TIP3    H238141   5.360   5.568  15.636 -0.8694  1.4475 -1.3985
 5576TIP3   OH238142   2.424   4.825  17.316 -0.3114  0.8179  0.2245
 5576TIP3    H138143   2.404   4.749  17.262  2.3935 -0.1918  0.4633
 5576TIP3    H238144   2.413   4.794  17.406 -1.3947  1.4329  0.3205
 5577TIP3   OH238145   2.386   0.836  11.219  0.0038  0.2288 -0.0313
 5577TIP3    H138146   2.481   0.845  11.221  0.0639 -0.4710  0.7830
 5577TIP3    H238147   2.368   0.785  11.141  0.5161 -1.8135  1.1248
 5578TIP3   OH238148   4.661   2.106   2.230 -0.5554 -0.1329  0.0918
 5578TIP3    H138149   4.681   2.192   2.193 -1.2117 -0.3562 -0.8012
 5578TIP3    H238150   4.721   2.046   2.186  0.0064 -0.1216  0.8236
 5579TIP3   OH238151   5.398   4.158  13.915 -0.1189 -0.4638 -0.1434
 5579TIP3    H138152   5.316   4.164  13.964  0.1036  1.7174  0.0456
 5579TIP3    H238153   5.408   4.243  13.873  2.2800 -0.5035  0.1993
 5580TIP3   OH238154   4.481   4.946   2.255  0.2663  0.2810  0.2275
 5580TIP3    H138155   4.395   4.985   2.272 -0.1402  0.3132 -1.6546
 5580TIP3    H238156   4.463   4.853   2.242  0.4944  0.3088 -0.2949
 5581TIP3   OH238157   3.230   0.751  12.777  0.1001  0.4931  0.0226
 5581TIP3    H138158   3.241   0.697  12.855 -1.6693 -1.0675 -0.7461
 5581TIP3    H238159   3.226   0.841  12.811 -2.1423 -0.2397  1.9405
 5582TIP3   OH238160   0.326   2.710  16.113  0.5730  0.3032 -0.0421
 5582TIP3    H138161   0.397   2.662  16.071  0.2921 -0.3504  0.2112
 5582TIP3    H238162   0.303   2.778  16.051  3.1481  2.2338  0.9057
 5583TIP3   OH238163   3.874   3.951  12.417  0.2337 -0.1183 -0.2004
 5583TIP3    H138164   3.783   3.979  12.427  0.1366 -0.2984 -0.5551
 5583TIP3    H238165   3.882   3.874  12.474  0.3612  0.3117  0.3761
 5584TIP3   OH238166   4.705   3.280  13.455 -0.7081 -0.4066 -0.3208
 5584TIP3    H138167   4.709   3.375  13.450  1.7290 -0.3444  0.9264
 5584TIP3    H238168   4.709   3.261  13.549  1.4420 -1.7075 -0.5938
 5585TIP3   OH238169   0.305   3.997   3.636  0.1625 -1.0229 -0.0390
 5585TIP3    H138170   0.385   3.963   3.596  0.8616 -3.2361  2.9110
 5585TIP3    H238171   0.234   3.956   3.586  0.7278  0.8692 -2.6019
 5586TIP3   OH238172   3.152   4.270   0.676 -0.1216 -0.3782 -0.4886
 5586TIP3    H138173   3.187   4.314   0.753 -2.2049  0.0751  0.2570
 5586TIP3    H238174   3.185   4.321   0.602 -0.4367  0.9563  0.2488
 5587TIP3   OH238175   1.269   1.576  12.317 -0.0483 -0.2958  0.1557
 5587TIP3    H138176   1.181   1.569  12.355 -0.4133  0.4136 -0.5387
 5587TIP3    H238177   1.255   1.578  12.223  0.4570  2.5669  0.0477
 5588TIP3   OH238178   5.325   1.186  15.147  0.0157 -0.2940 -0.7292
 5588TIP3    H138179   5.276   1.261  15.181  0.4725 -0.8408  1.2653
 5588TIP3    H238180   5.403   1.181  15.202  0.6838 -1.4290 -1.7151
 5589TIP3   OH238181   5.736   6.597  14.431 -0.0106  0.3106 -0.3848
 5589TIP3    H138182   5.771   6.522  14.478 -0.6106  0.0930 -0.2799
 5589TIP3    H238183   5.785   6.672  14.465 -0.6122  0.1937  0.7868
 5590TIP3   OH238184   1.085   5.568   0.086  0.0498  0.0329 -0.6568
 5590TIP3    H138185   1.150   5.517   0.134 -0.0381  1.6878  1.3381
 5590TIP3    H238186   1.009   5.570   0.143 -1.5308 -1.1552 -2.5931
 5591TIP3   OH238187   1.672   3.616  13.638  0.4222  0.3172 -0.8804
 5591TIP3    H138188   1.733   3.556  13.596  0.9199  0.1032  0.1146
 5591TIP3    H238189   1.724   3.661  13.704 -0.2397  0.9391 -0.7714
 5592TIP3   OH238190   1.757   4.790  16.902  0.1938 -0.2077 -0.2907
 5592TIP3    H138191   1.794   4.869  16.863 -0.1480 -0.5683 -1.3877
 5592TIP3    H238192   1.666   4.814  16.921  0.7084  0.4001  1.5945
 5593TIP3   OH238193   4.644   1.325  11.557 -0.0817  0.4178  0.1309
 5593TIP3    H138194   4.739   1.336  11.553 -0.1606  1.4388  0.7526
 5593TIP3    H238195   4.628   1.240  11.516  1.0829  0.3019 -0.1162
 5594TIP3   OH238196   6.115   2.516   4.483 -1.0054  0.1069  0.2405
 5594TIP3    H138197   6.119   2.444   4.546 -1.7335 -0.1083  0.0473
 5594TIP3    H238198   6.095   2.474   4.399 -0.3911  0.4289 -0.0800
 5595TIP3   OH238199   5.097   3.073  12.552 -0.6666 -0.1869  0.0885
 5595TIP3    H138200   5.137   3.021  12.483 -0.0237  1.1486 -0.5735
 5595TIP3    H238201   5.167   3.088  12.615 -0.8937 -0.2357  0.3568
 5596TIP3   OH238202   2.201   1.604  15.374 -0.2685  0.4468  0.4467
 5596TIP3    H138203   2.270   1.647  15.425 -1.0307  1.4829  0.6276
 5596TIP3    H238204   2.249   1.546  15.314  0.7170  0.5196  1.1281
 5597TIP3   OH238205   3.434   6.683   2.975  0.2819 -0.4593 -0.3181
 5597TIP3    H138206   3.525   6.713   2.972  0.1811 -0.1200 -0.0509
 5597TIP3    H238207   3.407   6.698   3.066 -0.5722  1.0649 -0.7808
 5598TIP3   OH238208   3.381   0.974   2.240  0.4885  0.2229  0.3906
 5598TIP3    H138209   3.459   1.024   2.265  0.6255  0.5235 -0.5957
 5598TIP3    H238210   3.380   0.977   2.145  0.6961 -1.9446  0.2686
 5599TIP3   OH238211   3.427   5.515  13.005  0.0732 -0.0804 -0.9687
 5599TIP3    H138212   3.408   5.427  12.971 -2.7037  0.2042 -0.3908
 5599TIP3    H238213   3.390   5.514  13.094  3.2760  0.5638  0.4838
 5600TIP3   OH238214   6.584   2.322   0.827  0.3558  0.1517  0.4066
 5600TIP3    H138215   6.576   2.328   0.922 -0.8681  0.6470  0.2973
 5600TIP3    H238216   6.546   2.237   0.805 -1.1367  0.8330  0.2213
 5601TIP3   OH238217   4.803   4.983   0.407  0.2078  0.7328  0.6873
 5601TIP3    H138218   4.717   4.941   0.417  0.8640 -1.4571 -1.7807
 5601TIP3    H238219   4.846   4.969   0.492 -0.7989 -0.7793  1.0027
 5602TIP3   OH238220   4.547   4.857  11.567 -0.1544  0.0588  0.0181
 5602TIP3    H138221   4.460   4.896  11.558  0.0788  0.2940 -1.5155
 5602TIP3    H238222   4.605   4.917  11.520  0.9244  0.1504  1.4206
 5603TIP3   OH238223   0.937   6.634  15.859 -0.0912 -0.0483 -0.0802
 5603TIP3    H138224   0.929   6.624  15.764  1.5954  2.2422 -0.5638
 5603TIP3    H238225   1.032   6.634  15.875 -0.3475 -1.3595  1.7657
 5604TIP3   OH238226   4.479   5.465  14.938  0.1996  0.1451  0.1125
 5604TIP3    H138227   4.534   5.397  14.979  0.7998  0.5146 -0.0690
 5604TIP3    H238228   4.496   5.455  14.844  0.6744  0.8711  0.1174
 5605TIP3   OH238229   4.501   6.134   5.342 -0.7438  0.1691 -0.1629
 5605TIP3    H138230   4.507   6.053   5.291 -0.2745  0.2267 -0.2027
 5605TIP3    H238231   4.407   6.145   5.358 -0.7359 -0.8796  0.6531
 5606TIP3   OH238232   4.894   2.844  11.516  0.3235  0.4162 -0.0839
 5606TIP3    H138233   4.811   2.800  11.532  0.2514  0.7904  0.6139
 5606TIP3    H238234   4.935   2.850  11.602  0.9983  0.3799 -0.3989
 5607TIP3   OH238235   4.919   0.303   5.860 -0.3328  0.5150 -0.1399
 5607TIP3    H138236   4.944   0.346   5.941 -1.0553 -0.1606  0.4557
 5607TIP3    H238237   5.000   0.265   5.827 -0.1165  0.4068  0.5031
 5608TIP3   OH238238   5.873   4.637  11.245  0.5127  0.4454 -0.1356
 5608TIP3    H138239   5.903   4.576  11.178 -0.0203  0.3157 -0.2629
 5608TIP3    H238240   5.929   4.714  11.235 -1.2715  1.5597 -2.5724
 5609TIP3   OH238241   4.354   0.228  14.059 -0.5651 -0.0872 -0.1541
 5609TIP3    H138242   4.280   0.230  13.999 -1.0732  0.2916  0.4794
 5609TIP3    H238243   4.382   0.137  14.060 -0.7878 -0.1664 -0.6662
 5610TIP3   OH238244   6.144   0.673   0.935 -0.0867 -0.1442  0.2197
 5610TIP3    H138245   6.182   0.688   1.022 -0.5041  1.8900  0.0922
 5610TIP3    H238246   6.189   0.735   0.878 -0.2735 -1.0113 -0.9095
 5611TIP3   OH238247   0.094   3.961   1.906  0.1715 -0.3008  0.1797
 5611TIP3    H138248   0.080   4.038   1.851  1.5260  0.6443  1.0855
 5611TIP3    H238249   0.110   3.890   1.843 -0.2565  0.3221 -0.6608
 5612TIP3   OH238250   0.191   0.955  12.099 -0.6031 -0.5559  0.4536
 5612TIP3    H138251   0.244   0.983  12.025 -1.7116 -1.5167 -0.7407
 5612TIP3    H238252   0.101   0.953  12.065 -0.9034 -2.8953  1.2265
 5613TIP3   OH238253   4.999   2.173  12.333  0.5485  0.3929 -0.2773
 5613TIP3    H138254   4.949   2.253  12.315  0.8493  0.3865 -1.1814
 5613TIP3    H238255   5.091   2.200  12.328  0.6498  0.2096  0.4728
 5614TIP3   OH238256   4.813   3.482  13.010  0.5263  0.1550  0.4532
 5614TIP3    H138257   4.772   3.500  13.095  0.1005 -0.2047  0.3307
 5614TIP3    H238258   4.855   3.397  13.023  3.8596  1.8044  1.5205
 5615TIP3   OH238259   3.888   6.665  15.722  0.0027  0.2403  0.2919
 5615TIP3    H138260   3.839   6.584  15.737 -2.0341  1.5844  1.5315
 5615TIP3    H238261   3.980   6.640  15.731 -0.3539 -2.3871 -1.9670
 5616TIP3   OH238262   2.281   5.076  15.333  0.2070 -0.2082 -0.2428
 5616TIP3    H138263   2.271   4.981  15.324  0.0362 -0.0903 -1.4094
 5616TIP3    H238264   2.323   5.103  15.252  2.7153  0.3887  1.1254
 5617TIP3   OH238265   1.248   3.502  13.469  0.4730 -0.2762 -0.3740
 5617TIP3    H138266   1.302   3.552  13.531  0.9143  0.1865 -1.1200
 5617TIP3    H238267   1.167   3.551  13.463 -0.2703 -1.2369  1.1323
 5618TIP3   OH238268   1.434   3.375   5.460  0.4620  0.0268 -0.4075
 5618TIP3    H138269   1.463   3.425   5.383  1.6578 -0.7760 -0.5268
 5618TIP3    H238270   1.414   3.288   5.425 -1.5686  0.3686 -0.2049
 5619TIP3   OH238271   3.730   0.849  13.997  0.2348  0.0703  0.0744
 5619TIP3    H138272   3.644   0.834  14.037  0.9452  1.0148  2.1154
 5619TIP3    H238273   3.710   0.875  13.907 -1.5941 -0.0764  0.3875
 5620TIP3   OH238274   6.168   6.266   0.749  0.1468  0.3944  0.0246
 5620TIP3    H138275   6.075   6.241   0.750  0.1737  0.3170  0.5736
 5620TIP3    H238276   6.210   6.202   0.806  0.8445 -0.7400 -1.6648
 5621TIP3   OH238277   2.462   2.958   4.190 -0.0041  0.1934 -0.3448
 5621TIP3    H138278   2.480   3.052   4.194  0.9470 -0.0008  0.3565
 5621TIP3    H238279   2.535   2.918   4.236 -2.5872 -0.6364  3.5524
 5622TIP3   OH238280   0.812   4.888   0.800  0.1429  0.5738  0.5105
 5622TIP3    H138281   0.788   4.979   0.815 -4.2578 -0.4070  0.7039
 5622TIP3    H238282   0.802   4.846   0.886  2.3164 -0.1690  0.4750
 5623TIP3   OH238283   3.140   5.192  15.557  0.6098 -0.9485 -0.0102
 5623TIP3    H138284   3.186   5.120  15.601  1.1138 -0.0107  1.0435
 5623TIP3    H238285   3.049   5.162  15.552  1.3153 -2.9835 -2.4742
 5624TIP3   OH238286   4.658   4.974   5.868 -0.5940 -0.5227  0.2300
 5624TIP3    H138287   4.710   5.026   5.806  0.6564 -1.7834  0.1785
 5624TIP3    H238288   4.603   5.039   5.912  0.8994  0.8734  0.1601
 5625TIP3   OH238289   2.584   1.637   4.364 -0.5155 -0.1784  0.0109
 5625TIP3    H138290   2.535   1.669   4.440 -0.7572 -0.2204 -0.1267
 5625TIP3    H238291   2.568   1.701   4.296  0.6992  0.5169  0.3468
 5626TIP3   OH238292   6.066   5.766  15.417  0.1590  0.6283 -0.3362
 5626TIP3    H138293   6.021   5.756  15.501 -1.3262 -0.6822 -1.2477
 5626TIP3    H238294   6.155   5.733  15.434 -0.2009  0.1413  0.6639
 5627TIP3   OH238295   4.389   2.260  12.761  0.1149 -0.4805 -0.1326
 5627TIP3    H138296   4.425   2.217  12.683 -0.1957 -2.0549  0.5672
 5627TIP3    H238297   4.399   2.196  12.831 -1.1980  0.2456  0.7554
 5628TIP3   OH238298   1.541   0.773  16.935  0.5432 -0.3610 -0.1820
 5628TIP3    H138299   1.636   0.786  16.933  0.6336 -0.8806  0.3671
 5628TIP3    H238300   1.530   0.686  16.975 -0.2070  0.2611  1.0337
 5629TIP3   OH238301   4.621   2.376   0.915  0.0608  0.1160 -0.2734
 5629TIP3    H138302   4.690   2.310   0.925  0.0450 -0.0757 -1.2906
 5629TIP3    H238303   4.563   2.362   0.990  0.9782  0.1121  0.4559
 5630TIP3   OH238304   0.535   0.973   4.511  0.0540  0.5627 -0.3271
 5630TIP3    H138305   0.557   1.010   4.596 -0.8081 -2.3870  1.3099
 5630TIP3    H238306   0.557   0.881   4.518 -1.8669 -0.1861 -2.6021
 5631TIP3   OH238307   6.277   4.997  16.532  0.2904  0.8358 -0.3341
 5631TIP3    H138308   6.218   5.058  16.488 -0.1407  1.3800  0.9483
 5631TIP3    H238309   6.362   5.041  16.529  0.5006  0.3888 -1.5224
 5632TIP3   OH238310   1.580   1.298  14.576 -0.0976  0.5445  0.4795
 5632TIP3    H138311   1.564   1.270  14.486 -0.1655 -0.6643  0.8459
 5632TIP3    H238312   1.641   1.233  14.611 -0.8616  0.4044  1.6116
 5633TIP3   OH238313   4.906   0.900  15.356 -0.2694  0.0321  0.1536
 5633TIP3    H138314   4.873   0.918  15.444 -1.5651  0.6480 -0.4239
 5633TIP3    H238315   4.988   0.852  15.370 -1.5171 -1.8060  1.6759
 5634TIP3   OH238316   3.620   5.224   4.814 -0.0396  0.5285  0.2133
 5634TIP3    H138317   3.587   5.199   4.900  2.3923  3.2134  2.1306
 5634TIP3    H238318   3.548   5.273   4.774 -0.4107  1.3930  1.8449
 5635TIP3   OH238319   2.494   3.525  12.382 -0.1376 -0.0160 -0.6737
 5635TIP3    H138320   2.438   3.448  12.394  3.2908 -2.9380 -1.5992
 5635TIP3    H238321   2.513   3.555  12.471 -0.6273 -0.9851 -0.2254
 5636TIP3   OH238322   2.746   3.206   1.167  0.3777 -0.4950  0.6268
 5636TIP3    H138323   2.718   3.244   1.084 -3.0665 -0.0449  1.8270
 5636TIP3    H238324   2.768   3.282   1.221 -1.0269 -0.4830  1.2346
 5637TIP3   OH238325   0.873   3.786  12.645 -0.4624 -0.5912 -0.5375
 5637TIP3    H138326   0.912   3.874  12.638 -0.5235 -0.5232 -0.0418
 5637TIP3    H238327   0.840   3.782  12.735  0.8177 -1.6523 -0.0809
 5638TIP3   OH238328   3.898   5.065   0.011  0.1133  0.1758  0.6452
 5638TIP3    H138329   3.812   5.025   0.020 -0.3367  1.3480  1.9830
 5638TIP3    H238330   3.922   5.051  -0.081 -0.4291 -2.2288  0.8076
 5639TIP3   OH238331   6.532   4.633  16.041 -0.2547  0.5019 -0.0916
 5639TIP3    H138332   6.448   4.587  16.035 -0.2410  0.5705 -0.9365
 5639TIP3    H238333   6.590   4.570  16.083 -0.4391  0.0265 -0.5329
 5640TIP3   OH238334   4.232   6.671  16.340 -0.2367 -0.2489  0.0503
 5640TIP3    H138335   4.290   6.715  16.278 -3.0126  0.9111 -1.9393
 5640TIP3    H238336   4.252   6.711  16.424  2.4010 -0.5722 -0.3353
 5641TIP3   OH238337   0.471   1.663  15.555  0.1025  0.6137  0.0115
 5641TIP3    H138338   0.470   1.567  15.561  3.0492  0.5465  0.9793
 5641TIP3    H238339   0.485   1.681  15.462 -0.1059  0.0990 -0.1234
 5642TIP3   OH238340   3.987   3.579   0.039 -0.0658  0.0390  0.1298
 5642TIP3    H138341   3.957   3.545   0.124 -1.1362  2.7843  0.9728
 5642TIP3    H238342   4.070   3.621   0.057  0.4958 -0.7447 -0.5567
 5643TIP3   OH238343   1.585   5.766  17.104  0.1819  0.2633 -0.4459
 5643TIP3    H138344   1.680   5.767  17.105  0.2211 -0.8031 -0.9057
 5643TIP3    H238345   1.562   5.673  17.115 -0.8138  0.5905  0.3632
 5644TIP3   OH238346   0.828   3.670   0.344 -0.3215  0.0447 -0.2012
 5644TIP3    H138347   0.856   3.597   0.400  0.7310  1.2300  0.8736
 5644TIP3    H238348   0.824   3.633   0.256  1.7452 -0.9294  0.0645
 5645TIP3   OH238349   2.022   6.138  14.994 -0.5631 -0.6475  0.1861
 5645TIP3    H138350   2.051   6.200  14.926 -0.3967 -0.4573  0.4301
 5645TIP3    H238351   1.942   6.177  15.029  0.1331  0.0072  1.1076
 5646TIP3   OH238352   0.557   4.276  13.326 -0.0136 -0.4399 -0.8583
 5646TIP3    H138353   0.540   4.323  13.408 -0.7173 -1.1711 -0.5663
 5646TIP3    H238354   0.635   4.222  13.346  1.6710  1.5707 -1.6301
 5647TIP3   OH238355   0.899   3.015  15.879  0.1901 -0.1971 -0.2570
 5647TIP3    H138356   0.918   3.011  15.786  0.3684  2.5640 -0.4142
 5647TIP3    H238357   0.971   3.065  15.916  0.5962 -1.9837  1.5687
 5648TIP3   OH238358   1.146   6.332   3.299  0.8254  0.0723  0.5780
 5648TIP3    H138359   1.066   6.383   3.314  0.0975 -1.4227  2.1149
 5648TIP3    H238360   1.125   6.276   3.224  0.2033 -0.7176  1.3288
 5649TIP3   OH238361   1.374   2.863  12.043  0.3034  0.0421  0.8688
 5649TIP3    H138362   1.388   2.784  12.095  1.2303  0.5895  1.4651
 5649TIP3    H238363   1.416   2.933  12.093 -2.2688  1.3330  1.4209
 5650TIP3   OH238364   6.724   3.588   2.575 -0.2306  0.5544  0.1220
 5650TIP3    H138365   6.714   3.495   2.554 -0.8184  0.4579  0.7797
 5650TIP3    H238366   6.665   3.633   2.514 -0.5329  0.4270  0.3170
 5651TIP3   OH238367   5.807   6.461   5.740 -0.0147  0.3468  0.6902
 5651TIP3    H138368   5.830   6.375   5.706  0.8875  0.1783  1.6830
 5651TIP3    H238369   5.759   6.443   5.821  0.9718  0.7639  1.3937
 5652TIP3   OH238370   1.680   1.921   1.443 -0.2909 -0.3271 -0.4658
 5652TIP3    H138371   1.649   2.011   1.447 -2.5504 -1.0924  1.1207
 5652TIP3    H238372   1.773   1.926   1.468 -0.2105  1.5682 -1.0057
 5653TIP3   OH238373   3.616   1.423   6.308 -0.0296  0.3841  1.0555
 5653TIP3    H138374   3.643   1.424   6.400  0.4772  1.1059  0.9090
 5653TIP3    H238375   3.682   1.475   6.263 -0.4531  0.3107  0.3292
 5654TIP3   OH238376   2.429   3.408   3.057  0.0653 -0.3022  0.1083
 5654TIP3    H138377   2.376   3.399   3.136 -2.1977 -0.8705 -1.3665
 5654TIP3    H238378   2.403   3.492   3.020 -1.6153 -1.5712 -1.7985
 5655TIP3   OH238379   2.951   0.834   2.545 -0.7353 -0.9476 -0.2792
 5655TIP3    H138380   2.882   0.894   2.516  0.8933  1.0477 -0.2824
 5655TIP3    H238381   3.011   0.829   2.470 -0.7395 -2.4562 -0.1988
 5656TIP3   OH238382   6.004   5.620  14.107  0.4261 -0.1256 -0.8639
 5656TIP3    H138383   6.055   5.667  14.173  0.2259 -1.7595  0.5304
 5656TIP3    H238384   5.917   5.659  14.112  0.8181  0.8428 -1.3252
 5657TIP3   OH238385   4.551   5.555   4.583 -0.0390 -0.2346  0.3827
 5657TIP3    H138386   4.543   5.509   4.500  0.6551  0.6899 -0.2215
 5657TIP3    H238387   4.645   5.557   4.601 -0.2458 -1.2558  1.6859
 5658TIP3   OH238388   1.042   3.850   3.864 -0.3234 -0.2914 -0.0519
 5658TIP3    H138389   1.018   3.759   3.879  0.8027 -0.3737  1.4237
 5658TIP3    H238390   1.010   3.869   3.776  0.8054 -2.6039 -1.0517
 5659TIP3   OH238391   1.317   0.149   0.585  0.6363  0.4177  0.0907
 5659TIP3    H138392   1.307   0.237   0.549  0.1001  0.6648  0.8245
 5659TIP3    H238393   1.375   0.104   0.523 -1.2844  0.3885 -1.8206
 5660TIP3   OH238394   2.385   1.948   0.023  0.5716 -0.2652 -0.1340
 5660TIP3    H138395   2.431   1.928   0.105  0.5624  1.3670  0.3133
 5660TIP3    H238396   2.428   2.026  -0.010  0.7408 -1.0434 -1.8553
 5661TIP3   OH238397   3.364   2.275   6.202 -0.3063 -0.1503 -0.1616
 5661TIP3    H138398   3.448   2.229   6.190 -0.7671 -0.7901 -1.0714
 5661TIP3    H238399   3.343   2.262   6.294  0.2851 -0.5318 -0.0738
 5662TIP3   OH238400   5.543   6.067   4.356 -0.7014 -0.1519 -0.0825
 5662TIP3    H138401   5.449   6.069   4.376 -0.1013  0.3029  3.5232
 5662TIP3    H238402   5.580   6.010   4.423  1.8501  1.6999  0.2450
 5663TIP3   OH238403   0.594   5.329  12.761 -0.8658  0.0261  0.2241
 5663TIP3    H138404   0.509   5.367  12.781 -0.5788  0.2957  0.9451
 5663TIP3    H238405   0.648   5.345  12.839 -0.8698 -2.3163  0.7933
 5664TIP3   OH238406   4.707   4.516  15.337 -0.3041  0.0258 -0.5145
 5664TIP3    H138407   4.767   4.583  15.306  0.2601 -0.2586 -0.0471
 5664TIP3    H238408   4.620   4.555  15.327  0.0395  0.9968  0.1665
 5665TIP3   OH238409   5.731   4.936   6.089  1.3454 -0.1754 -0.4468
 5665TIP3    H138410   5.792   4.982   6.145  1.0047 -0.0366 -0.1856
 5665TIP3    H238411   5.782   4.864   6.051  1.5024 -0.4533  0.2749
 5666TIP3   OH238412   4.105   1.279   1.082  0.3108 -0.0076 -0.3641
 5666TIP3    H138413   4.114   1.203   1.025  1.0831 -0.8442  0.8231
 5666TIP3    H238414   4.018   1.314   1.063 -1.0660 -2.5787  0.7226
 5667TIP3   OH238415   2.157   1.482  13.922  0.0539  0.5794 -0.5435
 5667TIP3    H138416   2.127   1.436  13.844  1.0651 -1.4246  0.1845
 5667TIP3    H238417   2.250   1.463  13.928 -0.3463 -1.1122  2.2283
 5668TIP3   OH238418   1.774   4.279   6.799 -0.1374  1.0184  0.0092
 5668TIP3    H138419   1.841   4.213   6.816  1.3485  2.5228  0.2610
 5668TIP3    H238420   1.703   4.231   6.757  0.9658 -0.6911  0.0053
 5669TIP3   OH238421   4.806   3.160  15.565 -0.5861  0.3211  0.7749
 5669TIP3    H138422   4.808   3.075  15.609  0.4615  0.0818  0.3081
 5669TIP3    H238423   4.820   3.224  15.635 -0.6788  0.0580  1.0312
 5670TIP3   OH238424   2.590   3.520  14.196  0.2620 -0.3629  0.0808
 5670TIP3    H138425   2.529   3.570  14.251  0.3497  1.5190 -1.3905
 5670TIP3    H238426   2.671   3.571  14.198  1.0758 -1.6156  0.1934
 5671TIP3   OH238427   2.593   2.723  12.233 -0.3545 -0.3766 -0.4515
 5671TIP3    H138428   2.591   2.680  12.148 -2.2497 -1.0113 -0.1310
 5671TIP3    H238429   2.652   2.798  12.221 -1.8972  0.5795 -2.8311
 5672TIP3   OH238430   4.845   2.492  10.886  0.2614 -0.2698 -0.2096
 5672TIP3    H138431   4.917   2.466  10.829 -0.2749 -1.9592 -0.1991
 5672TIP3    H238432   4.782   2.535  10.828  0.7374  0.1183 -0.4398
 5673TIP3   OH238433   0.178   5.719  11.525 -0.8132  0.1563  0.2750
 5673TIP3    H138434   0.212   5.688  11.609  1.1062 -4.9639 -1.9280
 5673TIP3    H238435   0.241   5.786  11.497  0.0811 -0.0004  1.7815
 5674TIP3   OH238436   1.743   3.516  10.980  0.1570 -0.3225 -0.4669
 5674TIP3    H138437   1.783   3.438  11.019  1.4475  1.1892  1.4267
 5674TIP3    H238438   1.781   3.522  10.893  0.2884 -1.6150 -0.5152
 5675TIP3   OH238439   4.798   4.052   1.362 -0.5200 -0.5084 -0.1904
 5675TIP3    H138440   4.736   3.982   1.341  0.8493 -1.6810 -0.4466
 5675TIP3    H238441   4.825   4.033   1.452 -0.6755  0.1105 -0.0100
 5676TIP3   OH238442   6.613   5.027  14.972  0.0376 -0.4201 -0.1239
 5676TIP3    H138443   6.705   5.009  14.953  0.4019  2.0696 -1.1803
 5676TIP3    H238444   6.616   5.081  15.051 -0.2514  1.7111 -1.5026
 5677TIP3   OH238445   3.949   0.392  15.582  0.4792  0.8433 -0.7223
 5677TIP3    H138446   3.939   0.352  15.496 -0.5910  1.1265 -0.7348
 5677TIP3    H238447   3.901   0.335  15.642  0.9339  0.8318 -0.3551
 5678TIP3   OH238448   4.612   2.463   5.626  0.7548  0.2551 -0.3091
 5678TIP3    H138449   4.707   2.461   5.632  0.6623 -1.8657  1.5936
 5678TIP3    H238450   4.585   2.372   5.631 -1.4016  0.7666 -1.1609
 5679TIP3   OH238451   1.168   3.229  13.123  0.3687 -0.4636 -0.3328
 5679TIP3    H138452   1.223   3.291  13.075 -0.2902  1.0754  0.8073
 5679TIP3    H238453   1.091   3.217  13.068 -0.5237  1.5321  0.3873
 5680TIP3   OH238454   6.574   0.482   1.100 -0.0058 -0.1886 -0.6089
 5680TIP3    H138455   6.539   0.564   1.136 -3.4063 -1.0639 -1.5339
 5680TIP3    H238456   6.627   0.509   1.026 -0.4360  1.2124 -0.4395
 5681TIP3   OH238457   5.279   3.872   4.695 -0.3890  0.0230 -0.0835
 5681TIP3    H138458   5.325   3.955   4.711  0.3029 -0.2960 -0.3534
 5681TIP3    H238459   5.301   3.818   4.771  2.2286 -1.2038 -1.5662
 5682TIP3   OH238460   6.599   6.309  13.397  0.0718  0.0888 -0.2545
 5682TIP3    H138461   6.627   6.298  13.306 -0.6451  0.1952 -0.4883
 5682TIP3    H238462   6.558   6.226  13.420  0.4982 -0.0397  0.0699
 5683TIP3   OH238463   0.249   2.312   5.674  0.2734  0.3512  0.1066
 5683TIP3    H138464   0.293   2.271   5.748 -1.3023 -1.5530  0.0960
 5683TIP3    H238465   0.235   2.403   5.700  3.2396  0.7956  0.4766
 5684TIP3   OH238466   1.654   5.222  15.018 -0.6727 -0.6162  0.8145
 5684TIP3    H138467   1.708   5.228  15.097 -1.6025 -2.5031  1.6835
 5684TIP3    H238468   1.715   5.231  14.946  0.8525 -2.6202  1.7548
 5685TIP3   OH238469   1.839   3.148  13.708  0.1446  0.6236 -0.3541
 5685TIP3    H138470   1.875   3.088  13.643  1.2531  1.2283 -0.3330
 5685TIP3    H238471   1.888   3.229  13.695  0.1716  0.8587  1.0176
 5686TIP3   OH238472   4.995   6.410  15.243  0.0924 -0.9661  0.2295
 5686TIP3    H138473   4.919   6.466  15.256 -1.8646 -3.3649 -0.0614
 5686TIP3    H238474   5.060   6.442  15.305 -0.7162  1.8570 -0.2675
 5687TIP3   OH238475   3.079   2.432   4.347  0.1170  0.6096 -0.6656
 5687TIP3    H138476   3.045   2.343   4.358 -1.9171  1.5226  1.1571
 5687TIP3    H238477   3.020   2.472   4.282 -0.4650  1.3035  0.2694
 5688TIP3   OH238478   4.164   3.323  12.682 -0.1285  0.0493 -0.3923
 5688TIP3    H138479   4.195   3.236  12.707  2.6598  1.0499 -0.0198
 5688TIP3    H238480   4.167   3.374  12.763 -2.5180  0.3656 -0.4224
 5689TIP3   OH238481   2.158   4.595  11.703  0.5361  0.6474 -0.1325
 5689TIP3    H138482   2.160   4.677  11.654  0.4388  0.5412 -0.3164
 5689TIP3    H238483   2.070   4.591  11.740  1.1832  1.6191  1.5962
 5690TIP3   OH238484   4.987   6.053   5.130 -0.4307  0.1352 -0.2956
 5690TIP3    H138485   5.072   6.040   5.089 -0.5222  1.1844 -0.8512
 5690TIP3    H238486   4.924   6.038   5.059 -0.5804  2.3334 -0.6917
 5691TIP3   OH238487   3.692   5.075   0.397  0.0901 -0.5399 -0.2977
 5691TIP3    H138488   3.692   5.146   0.462  0.3470  0.2766 -1.1695
 5691TIP3    H238489   3.629   5.103   0.331  1.3635 -0.3408 -1.4710
 5692TIP3   OH238490   0.224   5.042  16.305 -0.0265  0.7121 -0.0059
 5692TIP3    H138491   0.233   5.133  16.332 -0.4986  1.0322 -0.8897
 5692TIP3    H238492   0.155   5.007  16.362 -1.4088  1.5373 -1.0919
 5693TIP3   OH238493   6.061   6.254   3.809  0.7900 -0.2293  0.1621
 5693TIP3    H138494   6.092   6.236   3.897  0.6582 -0.3342  0.1884
 5693TIP3    H238495   6.034   6.346   3.811  1.5370 -0.0030  0.0066
 5694TIP3   OH238496   3.267   3.579  14.009 -0.1853 -0.3505 -0.2937
 5694TIP3    H138497   3.298   3.493  14.037 -1.0454 -0.1302  1.4922
 5694TIP3    H238498   3.200   3.602  14.074 -0.1910  1.5251 -0.9134
 5695TIP3   OH238499   3.605   5.908   1.446 -0.7597 -0.0021 -0.0874
 5695TIP3    H138500   3.588   5.996   1.479 -0.0611 -0.1751  0.7540
 5695TIP3    H238501   3.700   5.900   1.445 -0.7328 -2.0381  3.4492
 5696TIP3   OH238502   0.039   0.939   4.443  0.0784  0.1952  0.3814
 5696TIP3    H138503  -0.053   0.948   4.417  0.3190  0.4754 -0.4177
 5696TIP3    H238504   0.059   0.846   4.431  0.0093  0.2070  0.1714
 5697TIP3   OH238505   5.724   5.283   4.817 -0.3972 -0.1168  0.1121
 5697TIP3    H138506   5.748   5.226   4.890  0.1623 -2.4094 -1.7490
 5697TIP3    H238507   5.802   5.285   4.761 -0.5479  2.2046 -0.1067
 5698TIP3   OH238508   1.943   0.487  16.897  0.5876  0.0191 -0.0305
 5698TIP3    H138509   1.976   0.475  16.808  0.0489  0.8384 -0.3479
 5698TIP3    H238510   1.871   0.549  16.888 -1.1804 -1.8216  0.6033
 5699TIP3   OH238511   1.736   0.496   5.527 -0.2047 -0.1217 -0.0850
 5699TIP3    H138512   1.718   0.423   5.586 -0.8113  1.5950  1.9640
 5699TIP3    H238513   1.654   0.510   5.480 -0.5149  0.0893  0.5115
 5700TIP3   OH238514   0.697   1.325  12.311 -0.0140 -0.3294 -0.0035
 5700TIP3    H138515   0.749   1.346  12.389  0.5309  1.0769 -0.6989
 5700TIP3    H238516   0.615   1.373  12.324 -0.9374 -2.0372  0.7943
 5701TIP3   OH238517   5.019   1.723  16.435 -0.1817 -0.5701  0.2077
 5701TIP3    H138518   4.970   1.688  16.360  0.0879 -1.3336  0.3735
 5701TIP3    H238519   5.111   1.712  16.411 -0.0728  0.8809 -0.1090
 5702TIP3   OH238520   1.934   2.205  14.062 -0.1887  0.6979  0.2211
 5702TIP3    H138521   1.974   2.178  13.979 -0.2544 -1.2390  0.7619
 5702TIP3    H238522   1.994   2.270  14.098  1.4076 -0.6129  0.0231
 5703TIP3   OH238523   5.031   2.152   2.316 -0.0704  0.2173 -0.5914
 5703TIP3    H138524   4.994   2.105   2.241 -1.0664  0.1775 -0.0955
 5703TIP3    H238525   4.955   2.195   2.357  0.5425  0.6951  0.0677
 5704TIP3   OH238526   6.520   2.925   4.529 -0.5265 -0.4094  0.1364
 5704TIP3    H138527   6.499   2.902   4.438 -0.4097 -0.3553  0.0954
 5704TIP3    H238528   6.578   2.856   4.559 -0.5969 -0.4482  0.1825
 5705TIP3   OH238529   6.623   4.451  12.177 -0.3494  0.7083  0.1078
 5705TIP3    H138530   6.612   4.453  12.082  0.6002  0.2531 -0.0265
 5705TIP3    H238531   6.539   4.481  12.212 -0.5207  1.4288 -0.8776
 5706TIP3   OH238532   3.209   3.798   5.294  0.2555 -0.3621 -0.4097
 5706TIP3    H138533   3.133   3.792   5.236 -0.4612 -0.6116  0.5398
 5706TIP3    H238534   3.179   3.764   5.378  1.2246  0.1511  0.1702
 5707TIP3   OH238535   3.776   1.193   0.477 -0.3253  0.3446 -0.6938
 5707TIP3    H138536   3.691   1.227   0.451 -1.2780 -0.0140  1.7057
 5707TIP3    H238537   3.811   1.258   0.537 -0.0692 -0.6841  0.3154
 5708TIP3   OH238538   6.544   5.841   1.908 -0.3635 -0.3517 -0.2859
 5708TIP3    H138539   6.584   5.754   1.902  0.8099  0.2249 -1.2833
 5708TIP3    H238540   6.549   5.863   2.001  1.4733 -0.4234 -0.3247
 5709TIP3   OH238541   1.931   1.030   1.577  0.0872  0.6528  0.7517
 5709TIP3    H138542   1.915   1.111   1.527 -1.9217 -0.7244 -1.0333
 5709TIP3    H238543   1.971   0.971   1.513 -2.4073 -1.1247  0.7143
 5710TIP3   OH238544   2.602   3.085  13.609  0.3059  0.1359  0.0482
 5710TIP3    H138545   2.564   3.011  13.657  0.8432 -0.5280 -0.5249
 5710TIP3    H238546   2.666   3.122  13.668  2.8369 -2.2460 -0.9745
 5711TIP3   OH238547   4.849   6.550  15.904  0.0351 -0.1356 -0.2338
 5711TIP3    H138548   4.915   6.604  15.861  0.3846 -1.0509 -0.8864
 5711TIP3    H238549   4.891   6.518  15.983 -0.4288  1.1273  0.5477
 5712TIP3   OH238550   0.043   3.033   3.782 -0.1756 -0.1721 -0.6299
 5712TIP3    H138551  -0.041   3.020   3.826  0.3138  0.5738  0.5675
 5712TIP3    H238552   0.079   2.945   3.771 -0.5816 -0.4105 -0.0715
 5713TIP3   OH238553   1.403   6.715  16.933  0.6314 -0.1509  0.2027
 5713TIP3    H138554   1.334   6.672  16.983  0.9849 -0.3128  0.5494
 5713TIP3    H238555   1.356   6.774  16.873  0.2142  0.1930  0.8578
 5714TIP3   OH238556   4.734   5.232  13.083 -0.2748 -0.4606 -0.5841
 5714TIP3    H138557   4.782   5.311  13.109  0.3650 -1.2395  0.6524
 5714TIP3    H238558   4.672   5.217  13.154 -2.3258  0.4220 -2.0634
 5715TIP3   OH238559   2.028   5.647   0.129 -0.1640 -0.1492 -0.1379
 5715TIP3    H138560   2.109   5.652   0.181  0.4162 -0.3551 -1.0025
 5715TIP3    H238561   1.981   5.572   0.166 -0.0003  0.0184  0.4247
 5716TIP3   OH238562   6.395   6.756   4.663  0.0332 -0.1801  0.2471
 5716TIP3    H138563   6.306   6.731   4.684  0.5714 -0.7180  2.0673
 5716TIP3    H238564   6.420   6.699   4.590 -0.9348 -0.3538  0.0432
 5717TIP3   OH238565   4.682   3.440  17.058 -0.6888  0.0759 -0.0392
 5717TIP3    H138566   4.619   3.457  16.988 -0.0757  0.8165 -0.4201
 5717TIP3    H238567   4.711   3.526  17.086  0.2295 -0.2495  0.0552
 5718TIP3   OH238568   1.530   6.029   0.253  0.4476  0.0630  0.2882
 5718TIP3    H138569   1.598   6.070   0.306  2.4100 -1.1175 -1.1891
 5718TIP3    H238570   1.565   6.029   0.164 -1.0376 -1.5338 -0.3630
 5719TIP3   OH238571   3.132   6.562  11.111 -0.5161 -0.1877 -0.5269
 5719TIP3    H138572   3.042   6.542  11.088 -0.2276 -0.5625 -1.3525
 5719TIP3    H238573   3.139   6.657  11.099 -0.5615 -0.2813 -1.3303
 5720TIP3   OH238574   0.968   0.991  11.451  0.1290 -0.0729  0.2897
 5720TIP3    H138575   0.945   0.955  11.366  0.8338 -1.9091  0.8231
 5720TIP3    H238576   1.060   1.016  11.442  0.0643  0.2038  0.3737
 5721TIP3   OH238577   0.599   4.213   1.355 -0.0052  0.4207  0.2197
 5721TIP3    H138578   0.649   4.241   1.278  0.5246  0.6542  0.6386
 5721TIP3    H238579   0.639   4.260   1.428 -0.4415  0.1317  0.6510
 5722TIP3   OH238580   2.585   2.878   1.545 -0.2980 -0.2354  0.1110
 5722TIP3    H138581   2.647   2.808   1.566  0.6438  0.8523  1.1694
 5722TIP3    H238582   2.522   2.838   1.486  0.9363 -1.6270 -0.3330
 5723TIP3   OH238583   3.361   0.510   6.768 -0.4196  0.3660  0.3111
 5723TIP3    H138584   3.321   0.424   6.758 -1.4128  0.8250  0.2137
 5723TIP3    H238585   3.384   0.537   6.680  1.3685 -0.4598  0.4859
 5724TIP3   OH238586   2.088   5.298   5.167 -0.3488  0.3364  1.0527
 5724TIP3    H138587   2.182   5.282   5.153 -0.6986 -0.9858  0.0500
 5724TIP3    H238588   2.050   5.210   5.177 -1.8594  0.6690 -1.1952
 5725TIP3   OH238589   0.240   2.274   2.705  0.8031 -0.2184 -0.1489
 5725TIP3    H138590   0.165   2.329   2.726  0.6081 -0.1871 -0.8730
 5725TIP3    H238591   0.301   2.287   2.777  0.6876  0.8146 -0.2158
 5726TIP3   OH238592   2.933   2.569  16.523  0.6548  0.0073  0.0561
 5726TIP3    H138593   2.895   2.508  16.586 -1.5659 -0.2426 -1.4029
 5726TIP3    H238594   2.859   2.620  16.491  1.3590 -0.9145 -3.4451
 5727TIP3   OH238595   5.550   0.275   4.415  0.0447  0.4498 -0.3784
 5727TIP3    H138596   5.527   0.314   4.331 -0.1396  0.6120 -0.2538
 5727TIP3    H238597   5.495   0.197   4.421  0.3403  0.2284 -0.5829
 5728TIP3   OH238598   0.001   3.214  16.771  0.4116 -0.4201  0.7034
 5728TIP3    H138599   0.033   3.235  16.684 -0.2214  0.6735  0.7073
 5728TIP3    H238600  -0.024   3.299  16.808 -1.4117 -1.0841  1.1024
 5729TIP3   OH238601   5.206   2.911  10.498 -0.0712  0.0017  0.0347
 5729TIP3    H138602   5.256   2.919  10.579 -1.3846  2.3482  0.7129
 5729TIP3    H238603   5.234   2.828  10.461  1.2178 -0.7406  2.4430
 5730TIP3   OH238604   5.874   2.621  13.323  0.0287  0.6296  0.5837
 5730TIP3    H138605   5.939   2.581  13.266 -1.1519  0.9603 -1.0494
 5730TIP3    H238606   5.915   2.702  13.353  0.2348  1.0317 -0.7350
 5731TIP3   OH238607   0.577   4.645   0.673  0.1510  0.2335  0.4627
 5731TIP3    H138608   0.519   4.720   0.664  1.7857  1.6259  0.9118
 5731TIP3    H238609   0.528   4.582   0.725 -1.9270  0.2053 -1.3864
 5732TIP3   OH238610   6.644   4.568  14.172 -0.1266  0.3171 -0.1885
 5732TIP3    H138611   6.634   4.657  14.207 -0.5604  0.6380 -1.0894
 5732TIP3    H238612   6.558   4.547  14.136  0.0961 -0.2993 -0.3703
 5733TIP3   OH238613   2.731   1.277  15.567  0.2229 -0.1258 -0.1051
 5733TIP3    H138614   2.780   1.342  15.617 -1.4323  0.1390  1.2733
 5733TIP3    H238615   2.797   1.215  15.536  1.3525 -0.2731  2.4103
 5734TIP3   OH238616   3.819   2.465   4.765  0.0411  0.0611 -0.6633
 5734TIP3    H138617   3.899   2.438   4.719  0.4942  0.4567 -0.1132
 5734TIP3    H238618   3.786   2.384   4.803  1.7733  0.3015  1.5731
 5735TIP3   OH238619   2.773   2.026  11.443  0.3403 -0.0408  0.3127
 5735TIP3    H138620   2.729   2.007  11.360  1.1378 -0.0121 -0.1267
 5735TIP3    H238621   2.843   1.961  11.448 -0.8006 -1.2351  1.8504
 5736TIP3   OH238622   6.733   4.348   0.872  0.0469 -0.3245 -0.2635
 5736TIP3    H138623   6.652   4.392   0.848  0.0773 -0.9597 -1.6556
 5736TIP3    H238624   6.739   4.274   0.811  1.9522  0.0329 -0.5708
 5737TIP3   OH238625   5.011   3.931   2.476  0.4061 -0.0467 -0.1134
 5737TIP3    H138626   5.056   3.847   2.482  1.6039  0.5778 -0.1716
 5737TIP3    H238627   4.968   3.942   2.561 -1.7076 -1.7535 -0.8611
 5738TIP3   OH238628   5.815   2.007  12.537  0.3823 -0.2299 -0.4755
 5738TIP3    H138629   5.781   2.022  12.625 -1.5805  0.6839 -1.3391
 5738TIP3    H238630   5.910   2.019  12.545  0.0506  1.6636  1.1527
 5739TIP3   OH238631   6.247   2.973   5.230 -0.1808  0.1689 -0.4020
 5739TIP3    H138632   6.222   2.903   5.170  0.6819 -0.2036 -0.3329
 5739TIP3    H238633   6.304   3.030   5.179 -0.0640  0.2680 -0.1631
 5740TIP3   OH238634   5.191   4.113  14.120 -0.9480 -0.5274  0.3272
 5740TIP3    H138635   5.204   4.180  14.187 -1.9131  0.4251 -0.4112
 5740TIP3    H238636   5.097   4.111  14.106 -0.7349 -0.5202 -1.1993
 5741TIP3   OH238637   4.636   4.499  17.052 -0.1408 -0.4657  0.2972
 5741TIP3    H138638   4.569   4.492  17.120 -0.9761  1.5569 -0.2503
 5741TIP3    H238639   4.615   4.427  16.992 -2.1408  0.3647 -0.0924
 5742TIP3   OH238640   4.437   0.191   2.128 -0.1974 -0.1723 -0.4473
 5742TIP3    H138641   4.435   0.181   2.223 -0.1536 -0.3120 -0.4610
 5742TIP3    H238642   4.345   0.205   2.103 -0.0303  1.6548 -0.1961
 5743TIP3   OH238643   0.869   0.084   0.700  0.2395 -0.2224  0.1120
 5743TIP3    H138644   0.931   0.157   0.697  0.7852 -0.4920  2.6285
 5743TIP3    H238645   0.923   0.007   0.685  0.0963 -0.2851 -0.0814
 5744TIP3   OH238646   5.942   3.800  16.660  0.4638 -0.3240 -0.2225
 5744TIP3    H138647   5.870   3.783  16.721  1.5363  0.6745  1.3999
 5744TIP3    H238648   5.901   3.852  16.590 -0.4617  0.0063  0.5308
 5745TIP3   OH238649   5.217   4.569  14.531 -0.2870  0.6464 -0.2781
 5745TIP3    H138650   5.225   4.477  14.558  1.5370  0.8214 -0.1205
 5745TIP3    H238651   5.140   4.570  14.474 -2.5221 -0.3014  2.4387
 5746TIP3   OH238652   2.556   3.795   5.566  0.1678  0.3745 -0.6355
 5746TIP3    H138653   2.469   3.792   5.606 -0.0981  0.8761 -1.1588
 5746TIP3    H238654   2.587   3.705   5.570 -0.5821  0.0959 -0.8921
 5747TIP3   OH238655   2.559   2.323   4.626  0.3903  0.4633  0.3861
 5747TIP3    H138656   2.609   2.379   4.686  1.2055 -1.1381  1.2736
 5747TIP3    H238657   2.600   2.336   4.541  1.6358  0.0225  0.8920
 5748TIP3   OH238658   3.197   1.317   4.964 -0.0019 -0.2224 -0.5939
 5748TIP3    H138659   3.115   1.333   5.011  0.5210  0.5073  0.0950
 5748TIP3    H238660   3.182   1.235   4.917 -0.2656 -1.4964  1.5430
 5749TIP3   OH238661   0.140   5.797   4.865 -0.8309  0.1395 -0.6274
 5749TIP3    H138662   0.230   5.826   4.878 -0.5962 -0.5085 -0.7616
 5749TIP3    H238663   0.148   5.707   4.835 -1.4668  0.5507 -2.1411
 5750TIP3   OH238664   5.997   0.611   4.766 -0.1935  0.3576 -0.2153
 5750TIP3    H138665   6.046   0.532   4.744 -0.3642 -0.4605  2.0402
 5750TIP3    H238666   5.980   0.654   4.682 -0.0906 -1.9930 -1.5030
 5751TIP3   OH238667   6.576   2.448   3.256 -0.2904  0.2094  0.9486
 5751TIP3    H138668   6.596   2.355   3.249 -0.4544  0.1082  1.7957
 5751TIP3    H238669   6.630   2.479   3.329 -0.1817  0.7959  0.6293
 5752TIP3   OH238670   5.694   1.089  12.963 -0.3387 -0.9688  0.5392
 5752TIP3    H138671   5.789   1.088  12.950 -0.2250  0.9850  0.9245
 5752TIP3    H238672   5.659   1.125  12.881 -0.5677  0.0055  1.0410
 5753TIP3   OH238673   3.935   6.175   5.997 -0.4008 -1.0244 -0.6333
 5753TIP3    H138674   3.964   6.266   5.991 -0.3906 -0.9191  0.7636
 5753TIP3    H238675   3.951   6.139   5.909  0.7744 -0.0439 -0.8490
 5754TIP3   OH238676   0.156   5.032   4.962 -0.2297  0.1124  0.2412
 5754TIP3    H138677   0.161   4.963   4.896  0.0428  1.2402 -0.9509
 5754TIP3    H238678   0.065   5.032   4.991 -0.7199  0.5853 -1.2394
 5755TIP3   OH238679   0.267   2.386  16.870 -0.0203 -0.1904  0.0488
 5755TIP3    H138680   0.274   2.424  16.782 -1.7167  0.2560  0.0811
 5755TIP3    H238681   0.224   2.302  16.856  1.0449 -0.8033  0.3205
 5756TIP3   OH238682   2.331   0.971  17.182  0.2991 -0.0984 -0.0637
 5756TIP3    H138683   2.348   0.969  17.088 -1.1762 -0.8405 -0.3418
 5756TIP3    H238684   2.264   0.905  17.196 -0.1662  0.6284  1.3840
 5757TIP3   OH238685   3.787   1.546   3.188  0.1471  0.4241  0.2542
 5757TIP3    H138686   3.856   1.580   3.132 -0.6491 -1.6867 -2.1565
 5757TIP3    H238687   3.709   1.596   3.163 -0.0258  0.1230  0.1976
 5758TIP3   OH238688   2.893   5.782  12.898  0.1665 -0.1606  0.3547
 5758TIP3    H138689   2.933   5.866  12.921  0.6850 -0.1861 -0.4230
 5758TIP3    H238690   2.806   5.785  12.939 -0.0070  0.9510 -0.0481
 5759TIP3   OH238691   3.898   4.565   2.766 -0.2414  0.1461  0.5430
 5759TIP3    H138692   3.979   4.612   2.787 -0.9424  1.1569  1.1009
 5759TIP3    H238693   3.841   4.581   2.841 -1.3377  0.3581 -0.3090
 5760TIP3   OH238694   0.941   2.222  13.781 -0.0642  0.0632  0.0718
 5760TIP3    H138695   0.936   2.141  13.731  0.3981 -1.1997  1.9800
 5760TIP3    H238696   1.013   2.209  13.842 -0.4973  1.6084  0.9820
 5761TIP3   OH238697   6.672   0.806   0.167 -0.5680 -0.3891  0.1489
 5761TIP3    H138698   6.697   0.714   0.168 -2.9110 -1.1132  2.2566
 5761TIP3    H238699   6.579   0.806   0.189 -0.2736  2.5552  1.9529
 5762TIP3   OH238700   4.456   1.066   5.004 -0.0286  0.5052  0.4397
 5762TIP3    H138701   4.515   1.120   4.951  0.4326  0.6354  1.0666
 5762TIP3    H238702   4.371   1.074   4.962  0.3226  0.6359 -0.2538
 5763TIP3   OH238703   2.105   3.977  10.227 -0.0282  0.0438 -0.0088
 5763TIP3    H138704   2.186   3.964  10.179 -0.3860  1.3507 -0.9932
 5763TIP3    H238705   2.038   3.934  10.174 -0.3262  0.9292 -0.3542
 5764TIP3   OH238706   1.728   3.480   1.930  1.1331 -0.0502  0.2066
 5764TIP3    H138707   1.708   3.535   1.855 -0.8269 -1.0378 -0.0675
 5764TIP3    H238708   1.812   3.439   1.909  0.9198  0.1782 -1.1674
 5765TIP3   OH238709   0.500   3.304  11.378  0.4646  0.6414  0.2530
 5765TIP3    H138710   0.417   3.257  11.388  1.1202 -0.8620 -0.8485
 5765TIP3    H238711   0.567   3.236  11.392  1.5264  1.8366  1.1995
 5766TIP3   OH238712   5.397   4.842  11.108  0.3008 -0.2508  0.0143
 5766TIP3    H138713   5.400   4.748  11.126  0.0684 -0.3226 -0.3014
 5766TIP3    H238714   5.467   4.856  11.045 -2.1938 -0.9787 -3.2116
 5767TIP3   OH238715   5.519   4.178  11.485  0.3276 -0.0772  0.7183
 5767TIP3    H138716   5.585   4.247  11.492  1.3608 -0.8270 -0.9567
 5767TIP3    H238717   5.487   4.184  11.395  0.7177 -2.0018  0.4097
 5768TIP3   OH238718   6.227   4.777  12.770  0.1174 -0.0565 -0.0775
 5768TIP3    H138719   6.301   4.718  12.782  0.8338  0.3491 -2.0353
 5768TIP3    H238720   6.253   4.833  12.696 -2.0047  0.2947 -0.6259
 5769TIP3   OH238721   5.599   3.862  15.953  0.5954  0.0875 -0.3582
 5769TIP3    H138722   5.540   3.791  15.929 -1.2063  0.7797  1.7197
 5769TIP3    H238723   5.579   3.933  15.891 -0.0579 -0.0445 -0.3051
 5770TIP3   OH238724   4.230   6.168   5.361  0.5962 -0.2180  0.0197
 5770TIP3    H138725   4.222   6.202   5.272 -1.7284 -0.0823  0.2313
 5770TIP3    H238726   4.158   6.105   5.370  1.7705 -1.4615  1.2935
 5771TIP3   OH238727   3.486   0.864   1.661 -0.3669  0.3738  0.5894
 5771TIP3    H138728   3.560   0.806   1.643 -1.1031 -0.3560 -0.1434
 5771TIP3    H238729   3.522   0.952   1.646  0.7149  0.1258  1.5771
 5772TIP3   OH238730   1.407   1.157   0.513  0.1752 -0.2311  0.5265
 5772TIP3    H138731   1.376   1.087   0.455 -1.1264  2.0110 -1.7148
 5772TIP3    H238732   1.385   1.128   0.601 -0.1056 -2.6933 -0.2804
 5773TIP3   OH238733   1.607   4.851  14.316  1.0121 -0.3154  0.0782
 5773TIP3    H138734   1.577   4.939  14.293 -1.0767 -1.1615 -0.6276
 5773TIP3    H238735   1.650   4.820  14.236  1.6928  0.0123  0.3064
 5774TIP3   OH238736   5.436   4.387  16.885 -0.1239  0.0681 -0.0621
 5774TIP3    H138737   5.372   4.406  16.953 -0.0938 -0.0752  0.0092
 5774TIP3    H238738   5.420   4.452  16.817 -1.2274 -0.7737 -0.6515
 5775TIP3   OH238739   3.036   6.596  14.304  0.4961 -0.1058 -0.7569
 5775TIP3    H138740   3.104   6.562  14.246  0.7468  0.5969 -0.8760
 5775TIP3    H238741   2.967   6.626  14.245  0.6474  0.3893 -0.6808
 5776TIP3   OH238742   5.785   6.544  13.226  0.1096  0.2276 -0.2192
 5776TIP3    H138743   5.751   6.469  13.177 -2.0132  1.5561 -0.9518
 5776TIP3    H238744   5.812   6.607  13.159  0.7188  0.6020  0.3604
 5777TIP3   OH238745   2.364   4.427  13.947 -0.4267  0.1926  1.1144
 5777TIP3    H138746   2.388   4.401  13.858 -1.6622  1.3008  0.4183
 5777TIP3    H238747   2.292   4.369  13.970  0.3817 -0.6036  1.7220
 5778TIP3   OH238748   4.519   0.104  12.971 -0.5677 -0.0777  0.0671
 5778TIP3    H138749   4.432   0.139  12.986 -0.4309  0.9322 -1.3320
 5778TIP3    H238750   4.575   0.149  13.034 -0.6330  1.2516 -0.7865
 5779TIP3   OH238751   5.870   0.145   5.328  0.2496  0.0175 -0.7072
 5779TIP3    H138752   5.781   0.110   5.324 -0.2256  1.2771 -2.0360
 5779TIP3    H238753   5.868   0.222   5.271  1.7783  1.0026  0.4755
 5780TIP3   OH238754   4.952   3.156  15.060  0.0527  0.5877  0.4506
 5780TIP3    H138755   4.980   3.233  15.108  0.4396  0.3306  0.6412
 5780TIP3    H238756   4.903   3.104  15.123  1.0256 -0.0143  0.7406
 5781TIP3   OH238757   2.891   4.575  12.051  0.0761  0.5833  0.2495
 5781TIP3    H138758   2.912   4.603  12.140  0.8618  1.4887 -0.2113
 5781TIP3    H238759   2.858   4.485  12.061  0.8883  0.3962  1.3641
 5782TIP3   OH238760   2.042   3.986  13.715  0.0989  0.4181  0.1485
 5782TIP3    H138761   2.036   3.916  13.650 -0.6367  1.2976 -0.7794
 5782TIP3    H238762   2.108   4.046  13.680  0.6054  0.2772  0.8475
 5783TIP3   OH238763   5.888   2.883  15.673 -0.3894  0.5658 -0.6330
 5783TIP3    H138764   5.895   2.908  15.765 -2.3025  0.3259 -0.3904
 5783TIP3    H238765   5.974   2.846  15.652  0.2315  1.0341  0.9115
 5784TIP3   OH238766   3.009   3.767   5.093  0.1169 -0.5370  0.1450
 5784TIP3    H138767   3.050   3.770   5.007  0.9811 -0.8648  0.5374
 5784TIP3    H238768   2.962   3.684   5.095  0.0099 -0.4813 -0.0451
 5785TIP3   OH238769   0.734   2.791  15.925 -0.4806 -0.1277 -0.3195
 5785TIP3    H138770   0.790   2.863  15.897  0.5017 -0.5205  0.5419
 5785TIP3    H238771   0.711   2.812  16.016  1.1689 -1.6415  0.5148
 5786TIP3   OH238772   6.025   0.718   0.266  0.1426 -0.5091  0.1489
 5786TIP3    H138773   6.107   0.717   0.315  0.8103  0.6382 -0.8917
 5786TIP3    H238774   5.998   0.626   0.262  0.5601 -0.7226  1.8027
 5787TIP3   OH238775   4.276   1.722   4.227  0.2389 -0.2091  0.0584
 5787TIP3    H138776   4.309   1.689   4.311  0.7225 -0.6718 -0.3090
 5787TIP3    H238777   4.325   1.674   4.161 -2.0819 -1.9315 -0.5547
 5788TIP3   OH238778   3.249   1.718  15.366 -0.0852  0.2244 -0.0513
 5788TIP3    H138779   3.293   1.800  15.344  1.0739 -0.5628 -0.8245
 5788TIP3    H238780   3.268   1.660  15.293  0.3674 -1.1858  1.1251
 5789TIP3   OH238781   3.311   5.384  11.965 -0.4759 -0.0115  0.0372
 5789TIP3    H138782   3.383   5.326  11.991  0.9743  0.7848 -1.8913
 5789TIP3    H238783   3.317   5.458  12.026  0.8142  0.3536 -0.4957
 5790TIP3   OH238784   2.438   6.002   4.252 -0.2337 -0.8686 -0.4055
 5790TIP3    H138785   2.521   6.005   4.300 -0.6258 -2.4105  0.4395
 5790TIP3    H238786   2.463   5.982   4.162  0.4230  0.7412 -0.6164
 5791TIP3   OH238787   1.882   3.146   0.564  0.8032  0.4063 -0.1633
 5791TIP3    H138788   1.835   3.223   0.595  0.5959  1.6837 -3.2898
 5791TIP3    H238789   1.818   3.075   0.566 -0.2217  1.2762 -0.9125
 5792TIP3   OH238790   2.161   3.485  17.119  0.1154 -0.0296 -0.6280
 5792TIP3    H138791   2.177   3.548  17.049  1.2221 -1.1528 -1.4165
 5792TIP3    H238792   2.220   3.412  17.100 -0.1055 -0.6918  1.0565
 5793TIP3   OH238793   3.334   5.636   6.394  0.2264 -0.6149  0.2123
 5793TIP3    H138794   3.268   5.581   6.351  0.0217  0.2937 -0.6913
 5793TIP3    H238795   3.353   5.705   6.329 -0.2490  0.9392  1.6514
 5794TIP3   OH238796   1.473   1.715  12.035  0.4173 -0.2016  0.0614
 5794TIP3    H138797   1.524   1.695  12.113  0.6284 -0.6574 -0.1852
 5794TIP3    H238798   1.405   1.776  12.065 -0.2447 -1.2817  0.8599
 5795TIP3   OH238799   0.609   2.875  11.634  0.1137  0.8796 -0.4113
 5795TIP3    H138800   0.570   2.849  11.550 -0.2801  0.0856  0.0058
 5795TIP3    H238801   0.566   2.958  11.656  1.5963  2.0989 -1.9014
 5796TIP3   OH238802   4.353   1.579  11.037  0.7067 -0.1072  0.4890
 5796TIP3    H138803   4.374   1.496  10.993  0.2880 -0.2968  0.6436
 5796TIP3    H238804   4.266   1.602  11.004  1.2241  0.7740 -0.3062
 5797TIP3   OH238805   5.846   5.489  14.629 -0.4367  0.0802 -0.0526
 5797TIP3    H138806   5.862   5.422  14.696 -1.1755  0.5091  0.5727
 5797TIP3    H238807   5.803   5.560  14.676 -1.9509 -0.0385 -1.1715
 5798TIP3   OH238808   6.090   2.451   5.076  0.2167 -0.3492 -0.3303
 5798TIP3    H138809   6.150   2.456   5.002  0.3172  0.2292 -0.2194
 5798TIP3    H238810   6.137   2.402   5.143 -0.0569 -1.2917 -0.8115
 5799TIP3   OH238811   3.040   4.964   3.998  0.0198  0.3576 -0.0072
 5799TIP3    H138812   2.948   4.961   3.970 -0.7687 -1.1571  2.4870
 5799TIP3    H238813   3.036   4.981   4.092  2.1613 -2.2613  0.6603
 5800TIP3   OH238814   3.870   4.577  14.677  0.4706  0.1739 -0.0854
 5800TIP3    H138815   3.778   4.559  14.694  0.0477  0.3090 -2.0082
 5800TIP3    H238816   3.914   4.493  14.689  0.3118  0.3248  1.8912
 5801TIP3   OH238817   1.674   5.281  11.334  0.4693 -0.0182  0.3078
 5801TIP3    H138818   1.621   5.276  11.414 -0.8540 -1.8403 -0.6142
 5801TIP3    H238819   1.622   5.336  11.275  0.5782 -0.1612  0.0826
 5802TIP3   OH238820   3.675   4.947  13.988  0.2167 -0.2202  0.2443
 5802TIP3    H138821   3.655   5.020  14.047  0.7267 -0.7045  1.0424
 5802TIP3    H238822   3.608   4.882  14.007  0.6393 -0.5551  0.6282
 5803TIP3   OH238823   0.264   6.559   0.771 -0.1305 -0.3679  0.3004
 5803TIP3    H138824   0.337   6.516   0.726 -0.4802 -0.1538 -0.4964
 5803TIP3    H238825   0.187   6.534   0.720 -0.5830 -0.3947  0.9916
 5804TIP3   OH238826   4.425   0.819  14.815 -0.0162  0.6850  0.0405
 5804TIP3    H138827   4.511   0.810  14.774 -0.0553 -1.8813  0.3536
 5804TIP3    H238828   4.438   0.785  14.904 -1.4437 -0.1415 -0.0457
 5805TIP3   OH238829   5.559   4.104  15.775 -0.0752  0.3066 -0.1225
 5805TIP3    H138830   5.587   4.195  15.764  1.0485 -0.2746 -2.6462
 5805TIP3    H238831   5.639   4.053  15.766 -0.9188 -1.0316 -0.2612
 5806TIP3   OH238832   0.682   5.978   1.002 -0.7068  0.0055  0.1383
 5806TIP3    H138833   0.617   5.953   0.936  0.4191  1.8012 -1.7731
 5806TIP3    H238834   0.761   5.931   0.977 -0.9870 -1.5371  1.9724
 5807TIP3   OH238835   2.472   1.693   0.154 -0.4152 -1.3138 -0.2171
 5807TIP3    H138836   2.555   1.661   0.120 -0.6468 -2.1908  0.0028
 5807TIP3    H238837   2.417   1.614   0.160 -0.7536 -0.9984  1.0806
 5808TIP3   OH238838   2.703   0.982   6.041  0.6864 -0.1509 -0.2489
 5808TIP3    H138839   2.678   0.948   6.127 -0.5577  0.7505 -0.2350
 5808TIP3    H238840   2.723   1.074   6.056  1.3967 -0.2127 -0.7658
 5809TIP3   OH238841   5.982   0.064   1.501 -0.2959 -0.2099  0.1196
 5809TIP3    H138842   5.928   0.139   1.526  1.8956  1.3443  0.3705
 5809TIP3    H238843   5.934  -0.012   1.535 -2.2478  1.0862  0.4134
 5810TIP3   OH238844   4.083   6.357  11.262  0.2537 -0.4809  0.0272
 5810TIP3    H138845   4.175   6.378  11.275 -0.0560  1.5492 -0.7056
 5810TIP3    H238846   4.042   6.441  11.238 -1.9799 -1.0882  1.3926
 5811TIP3   OH238847   0.487   6.582   3.483  0.8219  0.4380 -0.2756
 5811TIP3    H138848   0.400   6.595   3.446  0.9621 -0.0181 -0.7803
 5811TIP3    H238849   0.541   6.554   3.409  1.2538  0.1238  0.1520
 5812TIP3   OH238850   0.866   1.206   0.872 -0.0751  0.2506 -0.4707
 5812TIP3    H138851   0.783   1.243   0.841 -0.2462  1.9943  1.8450
 5812TIP3    H238852   0.842   1.119   0.905 -0.6770  0.1497 -1.1302
 5813TIP3   OH238853   2.023   1.386  12.210  0.0959  0.3094 -0.3426
 5813TIP3    H138854   2.087   1.315  12.217 -0.4269 -0.2314 -0.9795
 5813TIP3    H238855   1.949   1.358  12.263 -0.6785 -0.2793 -1.6613
 5814TIP3   OH238856   1.387   3.208   2.099  0.4393 -1.0657  0.1992
 5814TIP3    H138857   1.320   3.158   2.146  0.7569 -1.4029  0.3040
 5814TIP3    H238858   1.396   3.289   2.148  2.3926 -2.3287  2.1159
 5815TIP3   OH238859   2.923   1.457  12.727  0.3071  0.0721  0.4602
 5815TIP3    H138860   2.902   1.492  12.641 -0.0036 -2.3244 -0.5325
 5815TIP3    H238861   2.959   1.531  12.776  2.0331  1.1648 -2.2443
 5816TIP3   OH238862   4.707   0.457   6.147 -0.1389 -0.4272 -0.3496
 5816TIP3    H138863   4.685   0.435   6.237 -0.7832 -0.1095 -0.4244
 5816TIP3    H238864   4.680   0.380   6.096  2.8274 -1.8473  0.0151
 5817TIP3   OH238865   5.626   4.908  16.531  0.4104  0.1383  0.4091
 5817TIP3    H138866   5.570   4.843  16.487  1.3599 -0.2057 -0.3337
 5817TIP3    H238867   5.594   4.910  16.621  0.7350 -1.8478  0.6227
 5818TIP3   OH238868   0.353   1.042   3.266 -0.4727 -0.3184 -0.1536
 5818TIP3    H138869   0.424   1.082   3.315 -1.1190  1.1287 -0.3198
 5818TIP3    H238870   0.390   1.024   3.179 -0.4692  1.0844 -0.4695
 5819TIP3   OH238871   1.888   2.831   0.943 -0.1995  0.1408 -0.2082
 5819TIP3    H138872   1.802   2.869   0.965 -1.3532 -2.8125  1.0210
 5819TIP3    H238873   1.947   2.868   1.009 -0.4894  2.1176 -0.9832
 5820TIP3   OH238874   5.860   0.773  11.994 -0.3555 -0.5209 -0.0563
 5820TIP3    H138875   5.794   0.818  12.046  1.3004  0.6322  1.1742
 5820TIP3    H238876   5.900   0.711  12.055 -1.2528 -2.2878 -1.1965
 5821TIP3   OH238877   2.174   3.308  11.033 -0.3418  0.6893  0.0064
 5821TIP3    H138878   2.194   3.400  11.052 -2.2203  1.0035  0.6336
 5821TIP3    H238879   2.134   3.308  10.946 -0.1502  0.4300 -0.0845
 5822TIP3   OH238880   5.477   6.604  17.174 -0.4803  0.1386  0.2583
 5822TIP3    H138881   5.526   6.661  17.115 -1.2153  1.9711  1.3295
 5822TIP3    H238882   5.478   6.519  17.131  3.0828  0.1930 -0.1157
 5823TIP3   OH238883   3.777   5.759   4.082 -0.0742 -0.7115  0.3246
 5823TIP3    H138884   3.813   5.688   4.030 -1.2512  0.3131 -2.0565
 5823TIP3    H238885   3.682   5.752   4.070 -0.2893  0.4319  1.1536
 5824TIP3   OH238886   1.534   6.057  15.492 -0.1052  0.0115 -0.2287
 5824TIP3    H138887   1.450   6.087  15.456  0.7459  2.3893 -0.3948
 5824TIP3    H238888   1.511   5.984  15.549 -2.1105 -0.3510 -1.4075
 5825TIP3   OH238889   5.172   4.357  13.256 -0.8430  1.0502 -0.6325
 5825TIP3    H138890   5.161   4.326  13.166 -0.6320  1.4426 -0.7959
 5825TIP3    H238891   5.086   4.346  13.296 -0.4217 -1.1757 -0.2160
 5826TIP3   OH238892   0.756   4.085  14.439 -0.4147  0.1858  0.1037
 5826TIP3    H138893   0.821   4.110  14.372 -0.4783 -0.3580 -0.1697
 5826TIP3    H238894   0.787   4.127  14.519  1.1929 -1.3516  0.3581
 5827TIP3   OH238895   5.224   3.496   3.757 -0.6511 -0.2061  1.3916
 5827TIP3    H138896   5.248   3.561   3.692 -2.4616 -0.5632  0.2760
 5827TIP3    H238897   5.165   3.543   3.817  0.6103 -0.0093  2.5115
 5828TIP3   OH238898   3.518   0.113  13.872 -0.6784  0.4343 -0.1399
 5828TIP3    H138899   3.606   0.127  13.906 -1.0908  0.1903  1.0809
 5828TIP3    H238900   3.461   0.155  13.936 -1.4649  0.3073 -0.7503
 5829TIP3   OH238901   4.687   0.918   1.298  0.6055 -0.1879 -0.0474
 5829TIP3    H138902   4.630   0.989   1.270 -1.3130 -1.8527 -0.5499
 5829TIP3    H238903   4.651   0.889   1.382 -0.0632 -1.9748 -0.8871
 5830TIP3   OH238904   1.605   4.411  11.136  0.2449  0.0607 -0.2457
 5830TIP3    H138905   1.534   4.471  11.162 -0.4692 -0.6607 -0.4904
 5830TIP3    H238906   1.645   4.385  11.219  0.7112  1.0415 -0.1473
 5831TIP3   OH238907   1.307   6.224   4.060 -0.0100 -0.0600 -0.2706
 5831TIP3    H138908   1.373   6.249   4.124  0.4720 -1.9611  0.0453
 5831TIP3    H238909   1.227   6.266   4.090  0.6029  0.5573  0.5393
 5832TIP3   OH238910   4.214   4.150   1.642 -0.6272 -0.4395  0.1682
 5832TIP3    H138911   4.228   4.127   1.550 -0.1628 -0.5372  0.2616
 5832TIP3    H238912   4.251   4.078   1.691 -1.2412 -0.5820  0.4339
 5833TIP3   OH238913   1.411   4.092   0.708  0.3978 -0.0976 -0.4707
 5833TIP3    H138914   1.343   4.106   0.773  0.1894  0.8803 -0.8759
 5833TIP3    H238915   1.473   4.031   0.749  1.1997  1.8319  1.3533
 5834TIP3   OH238916   3.069   4.673  17.003  0.2630  0.1330 -0.0807
 5834TIP3    H138917   3.117   4.590  17.003  0.1088  0.0122  1.2452
 5834TIP3    H238918   2.977   4.646  17.003  0.2102  0.2694  0.8551
 5835TIP3   OH238919   1.555   6.706   2.849  0.2811 -0.0518  0.3230
 5835TIP3    H138920   1.492   6.667   2.911  0.1166 -0.7553 -0.2765
 5835TIP3    H238921   1.513   6.698   2.764 -0.4729  2.8760  0.3086
 5836TIP3   OH238922   2.147   3.843  10.982  0.8331  0.3098 -0.0059
 5836TIP3    H138923   2.132   3.753  11.013  0.6190  0.7985  1.3404
 5836TIP3    H238924   2.234   3.840  10.942 -1.0127 -1.7067 -4.6687
 5837TIP3   OH238925   3.224   5.582   2.173 -0.0198 -0.2675 -0.1712
 5837TIP3    H138926   3.253   5.493   2.192  0.3407  0.1662  1.4308
 5837TIP3    H238927   3.305   5.631   2.158 -0.0602  0.2433  1.1268
 5838TIP3   OH238928   2.969   4.285  15.833  1.2432 -0.3854  0.3047
 5838TIP3    H138929   3.030   4.331  15.775 -0.2760  0.9234 -0.3228
 5838TIP3    H238930   2.911   4.236  15.774  0.3988  0.0428  0.7577
 5839TIP3   OH238931   2.733   1.570   0.258  0.0948  0.0891 -0.7348
 5839TIP3    H138932   2.793   1.627   0.209  0.2661 -0.3121 -0.9994
 5839TIP3    H238933   2.708   1.502   0.195  1.4721 -1.2849  0.1492
 5840TIP3   OH238934   2.139   5.303   1.372 -0.0504  0.1018 -0.5285
 5840TIP3    H138935   2.065   5.346   1.330 -0.2607  0.3666  0.1116
 5840TIP3    H238936   2.180   5.370   1.426  0.0129 -0.3246 -0.0369
 5841TIP3   OH238937   2.147   1.892   2.812  0.8154 -0.2885 -0.4329
 5841TIP3    H138938   2.189   1.808   2.832  2.0662  0.6317  1.0607
 5841TIP3    H238939   2.061   1.868   2.779  0.7052 -2.1653  1.0215
 5842TIP3   OH238940   5.630   3.472   1.369 -0.5931  0.3317  0.0479
 5842TIP3    H138941   5.613   3.431   1.284 -0.1085  0.5129 -0.1435
 5842TIP3    H238942   5.723   3.456   1.385 -0.7133  0.1833  0.6096
 5843TIP3   OH238943   6.602   0.278  12.676 -0.2129 -0.0296  0.2913
 5843TIP3    H138944   6.541   0.215  12.715  0.8974 -2.0812 -1.1106
 5843TIP3    H238945   6.605   0.350  12.739 -1.0803 -1.6352  2.2902
 5844TIP3   OH238946   6.728   1.414   2.484  0.0114  0.1700  0.7903
 5844TIP3    H138947   6.662   1.440   2.547  0.2389  1.0624  0.6803
 5844TIP3    H238948   6.771   1.339   2.523 -2.7170 -2.0895 -0.2483
 5845TIP3   OH238949   5.642   2.116  16.545  0.3094 -0.0661  0.1939
 5845TIP3    H138950   5.606   2.034  16.578  1.3519  0.0059  1.6069
 5845TIP3    H238951   5.604   2.184  16.601  0.5478  0.2738 -0.0475
 5846TIP3   OH238952   6.344   5.308   4.396  0.0712 -0.3870 -0.1612
 5846TIP3    H138953   6.400   5.281   4.323  0.1419  2.2608 -1.2053
 5846TIP3    H238954   6.332   5.402   4.383 -2.6465 -0.4237  1.4199
 5847TIP3   OH238955   3.411   3.940  11.466  0.0763 -0.6345  0.4854
 5847TIP3    H138956   3.347   3.974  11.529  0.0385 -1.0805  0.6935
 5847TIP3    H238957   3.367   3.865  11.426 -1.0248  1.2872 -2.1510
 5848TIP3   OH238958   0.813   2.903  13.077  0.4106  0.1185 -0.2521
 5848TIP3    H138959   0.768   2.818  13.079  0.9362 -0.1681 -0.3588
 5848TIP3    H238960   0.754   2.960  13.027  0.4480 -0.4208 -0.9245
 5849TIP3   OH238961   4.174   0.525   2.126 -0.1935  0.2821 -0.2631
 5849TIP3    H138962   4.083   0.536   2.155  0.0286 -0.7840  0.9317
 5849TIP3    H238963   4.187   0.594   2.061 -1.1908  1.9026  1.1595
 5850TIP3   OH238964   5.321   3.024   5.359 -0.2549  0.9040  0.6002
 5850TIP3    H138965   5.411   3.058   5.363  1.0218 -2.1908  1.2644
 5850TIP3    H238966   5.320   2.953   5.423 -2.4446 -0.7202 -1.0926
 5851TIP3   OH238967   4.860   3.823  16.415 -0.9332  0.2787 -0.1282
 5851TIP3    H138968   4.783   3.857  16.460 -0.4342  0.6078  0.4998
 5851TIP3    H238969   4.886   3.746  16.466 -0.4570  0.5610  0.0654
 5852TIP3   OH238970   4.807   5.511  15.512  0.4323 -0.3490 -0.4608
 5852TIP3    H138971   4.801   5.600  15.479 -0.5782 -0.2454 -0.0171
 5852TIP3    H238972   4.884   5.512  15.569  0.2310  0.3238 -0.1940
 5853TIP3   OH238973   0.894   4.966  15.251  0.5867  0.1752 -0.3861
 5853TIP3    H138974   0.957   5.016  15.303  0.5064  1.1993 -1.2336
 5853TIP3    H238975   0.820   4.952  15.310  0.8312  0.6190  0.0367
 5854TIP3   OH238976   1.717   2.955  16.708  0.3615 -0.3646 -0.2868
 5854TIP3    H138977   1.625   2.970  16.689 -0.4440 -2.4565  1.5094
 5854TIP3    H238978   1.753   3.042  16.723 -1.0116  0.5869 -2.1411
 5855TIP3   OH238979   5.301   2.633  10.473 -0.2700 -0.3580 -0.0670
 5855TIP3    H138980   5.275   2.544  10.451  0.9067 -0.5565 -0.7233
 5855TIP3    H238981   5.355   2.624  10.551  1.5513 -0.4793 -1.2938
 5856TIP3   OH238982   0.870   4.409   3.560 -0.1414 -0.0535  0.7777
 5856TIP3    H138983   0.778   4.401   3.586 -0.5775  0.6979 -0.4549
 5856TIP3    H238984   0.891   4.501   3.574 -0.0764  0.1394 -0.4750
 5857TIP3   OH238985   5.061   0.254   1.739  0.2171  0.2125  0.2215
 5857TIP3    H138986   5.100   0.169   1.761 -0.8338 -0.0926  0.9583
 5857TIP3    H238987   5.025   0.285   1.822 -1.3381  0.3616 -0.4914
 5858TIP3   OH238988   5.569   6.263  11.290 -0.1437 -0.4909 -0.3623
 5858TIP3    H138989   5.563   6.185  11.234 -0.5469  0.4500 -1.6739
 5858TIP3    H238990   5.500   6.321  11.258  0.3486  0.5450  0.3859
 5859TIP3   OH238991   6.187   5.705  15.119  0.0505 -0.2921 -0.3500
 5859TIP3    H138992   6.138   5.728  15.198 -0.8827  0.3680 -1.0995
 5859TIP3    H238993   6.259   5.768  15.115 -0.2243  0.0243 -0.3155
 5860TIP3   OH238994   4.781   4.223  13.149  0.1313  0.0479  0.4467
 5860TIP3    H138995   4.777   4.319  13.142 -0.1689  0.1174  1.5006
 5860TIP3    H238996   4.798   4.194  13.059 -2.7703  0.9397 -0.5214
 5861TIP3   OH238997   3.464   5.979   4.530 -0.0737  0.1127  0.5543
 5861TIP3    H138998   3.538   6.038   4.547  1.0528 -0.1059 -2.9158
 5861TIP3    H238999   3.409   6.026   4.467 -0.8536 -1.2778  0.1470
 5862TIP3   OH239000   5.304   1.979   1.397  0.1572  0.1499 -0.0266
 5862TIP3    H139001   5.394   2.003   1.374  0.7964 -1.1474  1.0001
 5862TIP3    H239002   5.250   2.041   1.348  1.5783  0.5373 -1.1776
 5863TIP3   OH239003   2.576   6.568   3.327 -0.4256  0.4156 -0.3027
 5863TIP3    H139004   2.583   6.480   3.289 -0.7423  0.6131 -0.8320
 5863TIP3    H239005   2.657   6.612   3.300 -0.3832  0.3685 -0.2535
 5864TIP3   OH239006   1.136   6.063   5.443 -0.6632 -0.0652 -0.1578
 5864TIP3    H139007   1.146   5.972   5.416 -1.2307 -0.1529 -0.0933
 5864TIP3    H239008   1.169   6.114   5.370 -2.8210 -0.2785 -1.3609
 5865TIP3   OH239009   3.033   4.407  14.410  0.0928  0.4459 -0.5579
 5865TIP3    H139010   2.988   4.337  14.458 -1.4032  2.4636  1.1270
 5865TIP3    H239011   3.018   4.385  14.317 -0.0739 -1.5882 -0.1116
 5866TIP3   OH239012   6.123   5.207   4.015  0.3903  0.1256 -0.5428
 5866TIP3    H139013   6.136   5.298   4.043  1.6887 -0.2850  0.2728
 5866TIP3    H239014   6.037   5.207   3.972 -0.9487  1.1737  1.9259
 5867TIP3   OH239015   1.587   2.348   1.968 -0.4655  0.0447 -0.1832
 5867TIP3    H139016   1.624   2.288   2.033  0.8930  0.7760 -0.2439
 5867TIP3    H239017   1.547   2.418   2.020 -1.8340 -0.7532 -0.1172
 5868TIP3   OH239018   0.534   0.062  12.766 -0.0507  0.4623 -0.1200
 5868TIP3    H139019   0.599   0.113  12.814  0.3116  0.6765 -0.8231
 5868TIP3    H239020   0.537   0.098  12.677  0.1918 -0.7782 -0.6277
 5869TIP3   OH239021   3.440   6.396   2.004  0.6538  0.6795  0.3923
 5869TIP3    H139022   3.374   6.399   2.073 -1.3787 -1.2251 -1.3354
 5869TIP3    H239023   3.439   6.484   1.966 -0.7822  0.7464  0.5293
 5870TIP3   OH239024   2.351   5.375   4.930 -0.1388 -0.3771  0.0677
 5870TIP3    H139025   2.301   5.449   4.963 -0.2558 -1.5095  2.6231
 5870TIP3    H239026   2.285   5.314   4.896 -0.1159  0.1390 -0.9478
 5871TIP3   OH239027   2.676   1.942  12.767 -0.4215 -0.0942 -0.5496
 5871TIP3    H139028   2.612   1.990  12.714  0.4389 -0.0383 -1.5780
 5871TIP3    H239029   2.720   2.009  12.818 -0.5577 -0.0278 -0.5178
 5872TIP3   OH239030   1.856   1.260  12.479  0.2251  0.2273 -0.8114
 5872TIP3    H139031   1.781   1.296  12.526 -0.0504 -2.1632  0.7780
 5872TIP3    H239032   1.932   1.289  12.530  0.0299 -0.9434  0.2160
 5873TIP3   OH239033   6.554   3.544  12.977  0.4049 -0.1747 -0.7816
 5873TIP3    H139034   6.639   3.506  12.996  0.8204  1.0644 -0.0989
 5873TIP3    H239035   6.567   3.638  12.984 -0.8689  0.0631 -1.3157
 5874TIP3   OH239036   6.390   0.832   2.329  0.1663  0.4043  0.0727
 5874TIP3    H139037   6.396   0.768   2.399  0.0255 -0.3386 -0.5814
 5874TIP3    H239038   6.311   0.808   2.280  0.7601  0.3346 -0.8846
 5875TIP3   OH239039   1.459   3.666   1.939 -0.0564  0.8697  0.2285
 5875TIP3    H139040   1.432   3.601   1.875 -0.6930 -0.0926  1.4150
 5875TIP3    H239041   1.422   3.749   1.908  1.1573  0.8052 -1.5531
 5876TIP3   OH239042   6.311   5.882  13.196 -0.3604  0.1963  0.0256
 5876TIP3    H139043   6.386   5.858  13.142 -0.7281 -1.5009  0.2227
 5876TIP3    H239044   6.282   5.967  13.161  1.3113  0.6238 -0.3829
 5877TIP3   OH239045   5.474   6.432   1.099 -0.6905 -0.6195  0.3053
 5877TIP3    H139046   5.379   6.437   1.099 -0.6829 -0.4969  0.0179
 5877TIP3    H239047   5.503   6.521   1.118 -0.6380 -0.7497  0.8579
 5878TIP3   OH239048   5.028   4.373  15.049  0.1452  0.1165 -1.0919
 5878TIP3    H139049   4.970   4.450  15.053  0.5769  0.4861 -1.8016
 5878TIP3    H239050   4.972   4.304  15.014 -0.1955  0.1440 -0.6264
 5879TIP3   OH239051   1.973   2.459   1.586  0.4359 -0.1010 -0.0837
 5879TIP3    H139052   2.006   2.544   1.616 -0.9330  0.0992  0.9685
 5879TIP3    H239053   1.925   2.424   1.662 -1.2566 -0.6149 -1.3244
 5880TIP3   OH239054   3.660   0.426   0.298 -0.8914  0.0351 -0.1841
 5880TIP3    H139055   3.646   0.432   0.203  1.1281 -0.5994 -0.5836
 5880TIP3    H239056   3.755   0.423   0.307 -1.0680 -0.5318  1.8406
 5881TIP3   OH239057   5.732   4.085   2.756 -0.2693  0.4292  0.4036
 5881TIP3    H139058   5.645   4.063   2.723  0.9118 -1.0169 -2.0590
 5881TIP3    H239059   5.745   4.026   2.830 -0.7528 -0.5775 -0.2916
 5882TIP3   OH239060   0.132   1.172  16.970 -0.3537 -0.0510  0.1260
 5882TIP3    H139061   0.158   1.174  16.878 -1.0736  2.1162 -0.0869
 5882TIP3    H239062   0.212   1.195  17.018 -0.1916 -0.3177 -0.0118
 5883TIP3   OH239063   3.453   4.117  17.234  0.0175 -0.3068  0.1058
 5883TIP3    H139064   3.395   4.070  17.295  1.4007  0.1257  1.8551
 5883TIP3    H239065   3.400   4.129  17.155 -1.9804 -0.6693  1.2991
 5884TIP3   OH239066   4.134   2.804   3.443  0.2688 -0.1735 -0.2626
 5884TIP3    H139067   4.204   2.849   3.490  0.1463 -0.0159 -0.2276
 5884TIP3    H239068   4.166   2.715   3.429  1.2619  0.3955 -1.8852
 5885TIP3   OH239069   5.845   6.284  16.064 -0.3138  0.3025 -0.5244
 5885TIP3    H139070   5.819   6.243  15.982  0.9711 -0.8602 -0.3901
 5885TIP3    H239071   5.937   6.306  16.052 -0.4264  1.2338  0.1817
 5886TIP3   OH239072   2.572   2.162   0.885  0.3700 -0.4509 -0.0255
 5886TIP3    H139073   2.479   2.159   0.908  0.1621  0.6972 -0.6263
 5886TIP3    H239074   2.612   2.216   0.954  0.0705  1.4129 -1.2298
 5887TIP3   OH239075   6.186   1.480  13.233 -0.5121 -0.3969  0.3782
 5887TIP3    H139076   6.093   1.472  13.252 -0.3266 -2.0495  0.7175
 5887TIP3    H239077   6.216   1.390  13.217  0.6835  0.2517 -1.4303
 5888TIP3   OH239078   1.242   6.139  12.556 -0.0487  0.7968 -0.0690
 5888TIP3    H139079   1.308   6.185  12.609 -0.7502  0.9037  0.7389
 5888TIP3    H239080   1.291   6.070  12.511  0.6903  1.1625  0.1545
 5889TIP3   OH239081   4.512   4.955  12.286  0.0375  0.1594  0.6539
 5889TIP3    H139082   4.485   4.886  12.226 -2.7694 -1.8856  3.9151
 5889TIP3    H239083   4.455   5.029  12.266  0.9996  0.5276 -0.8733
 5890TIP3   OH239084   4.043   1.934  13.749 -0.0528  0.1180  0.3512
 5890TIP3    H139085   4.039   1.888  13.833 -0.2137 -1.4430 -0.4648
 5890TIP3    H239086   3.975   2.001  13.754 -0.6593 -0.5456  1.1476
 5891TIP3   OH239087   5.267   5.959   2.449 -0.1390 -0.2061  0.5386
 5891TIP3    H139088   5.255   5.938   2.356  0.7341  1.3586  0.0497
 5891TIP3    H239089   5.322   6.037   2.449 -0.8547  0.3402  2.3536
 5892TIP3   OH239090   0.766   5.319  10.477 -0.8195  0.3070  0.3184
 5892TIP3    H139091   0.806   5.253  10.534  1.5641  1.2909 -0.0888
 5892TIP3    H239092   0.782   5.402  10.522  0.6527  1.0527 -1.4300
 5893TIP3   OH239093   4.130   0.024   3.540 -0.1249 -0.5032  0.1058
 5893TIP3    H139094   4.206   0.026   3.598 -2.1595 -0.3311  2.9687
 5893TIP3    H239095   4.068   0.086   3.579 -3.3195 -3.5229  0.3535
 5894TIP3   OH239096   0.270   5.442  17.214  0.1619  0.3068 -0.0469
 5894TIP3    H139097   0.251   5.422  17.306 -0.6911 -0.5498 -0.3932
 5894TIP3    H239098   0.190   5.485  17.183 -0.3111 -1.1151 -0.8765
 5895TIP3   OH239099   0.706   6.264  11.901 -0.2498  0.4671  0.7793
 5895TIP3    H139100   0.788   6.215  11.895 -1.0084 -0.8725  0.8999
 5895TIP3    H239101   0.686   6.290  11.811 -0.5558 -0.7106  0.4869
 5896TIP3   OH239102   4.531   1.492  15.461  0.3313 -0.6535  0.5520
 5896TIP3    H139103   4.609   1.487  15.516  0.6035  1.1192  0.3937
 5896TIP3    H239104   4.545   1.570  15.407 -0.2053 -1.9607 -1.6180
 5897TIP3   OH239105   2.088   0.378  17.095  0.1997  0.0631 -0.4461
 5897TIP3    H139106   2.050   0.428  17.023 -0.4165 -0.6779 -0.6512
 5897TIP3    H239107   2.132   0.443  17.149 -1.3710  0.9798 -0.2032
 5898TIP3   OH239108   4.966   1.291  11.993  0.0374  0.2923 -0.5338
 5898TIP3    H139109   4.963   1.376  12.037  2.6842  0.4752 -0.5886
 5898TIP3    H239110   4.908   1.302  11.917 -1.1187  1.4022  0.4626
 5899TIP3   OH239111   6.163   2.390  15.325 -0.4494  0.3389 -0.3575
 5899TIP3    H139112   6.111   2.331  15.270  0.7297 -0.3853 -0.7287
 5899TIP3    H239113   6.176   2.468  15.270  1.0051 -0.5143 -1.2892
 5900TIP3   OH239114   3.601   5.056  14.615  0.2970 -0.1271  0.6125
 5900TIP3    H139115   3.613   5.091  14.703 -0.6938 -2.0802  1.5896
 5900TIP3    H239116   3.506   5.055  14.602  0.3754 -0.9920  0.0298
 5901TIP3   OH239117   4.477   6.749  16.517 -0.4129 -0.3557 -0.3356
 5901TIP3    H139118   4.444   6.709  16.597  2.2510 -1.2759  0.3946
 5901TIP3    H239119   4.562   6.708  16.502  0.1072  1.2892 -2.5028
 5902TIP3   OH239120   2.453   4.117   2.860 -0.4599  0.0460 -0.1671
 5902TIP3    H139121   2.429   4.094   2.770  1.0441 -0.5685 -0.4425
 5902TIP3    H239122   2.476   4.210   2.855  1.6506 -0.4480 -0.9326
 5903TIP3   OH239123   0.944   2.628  16.465  0.5229  0.0355  0.2009
 5903TIP3    H139124   0.898   2.707  16.495  0.6664  0.7351 -1.3029
 5903TIP3    H239125   0.941   2.634  16.369  1.1721 -1.4291  0.0635
 5904TIP3   OH239126   2.584   6.231  14.444  0.0370  0.3555  0.5701
 5904TIP3    H139127   2.657   6.291  14.454 -0.1252  0.9218 -1.3563
 5904TIP3    H239128   2.512   6.272  14.492  0.0943  1.4183 -0.2220
 5905TIP3   OH239129   6.517   2.629   5.062  0.1404  0.2293 -0.0909
 5905TIP3    H139130   6.559   2.545   5.082  3.2588  1.3555 -1.3860
 5905TIP3    H239131   6.436   2.628   5.114  0.1911 -3.4038  0.1725
 5906TIP3   OH239132   3.483   0.252  17.338 -0.5644  0.1380  0.1907
 5906TIP3    H139133   3.550   0.317  17.360  1.2591 -1.4832 -0.3060
 5906TIP3    H239134   3.490   0.242  17.243  0.4971 -2.0293  0.4311
 5907TIP3   OH239135   5.021   3.987   2.976 -0.5314 -0.2831  0.2155
 5907TIP3    H139136   4.968   3.992   2.897  0.6586  1.1282 -0.5437
 5907TIP3    H239137   5.107   3.957   2.945 -0.2324 -0.3148  1.0578
 5908TIP3   OH239138   0.098   3.957  12.122 -0.0829 -0.1289  0.2460
 5908TIP3    H139139   0.107   3.982  12.029 -0.9316 -3.3358 -0.8113
 5908TIP3    H239140   0.070   4.038  12.165 -1.4837  1.0768 -2.6179
 5909TIP3   OH239141   4.468   2.483   4.154  0.4158 -0.5133 -0.5935
 5909TIP3    H139142   4.437   2.395   4.176 -0.8227  0.1312  0.3843
 5909TIP3    H239143   4.555   2.489   4.193  0.0741 -0.9496  0.2514
 5910TIP3   OH239144   1.564   3.827   6.571 -0.4461  0.5311 -0.0809
 5910TIP3    H139145   1.501   3.801   6.639  0.6326 -1.5998  0.1726
 5910TIP3    H239146   1.557   3.759   6.504 -0.7540  2.0645 -1.6608
 5911TIP3   OH239147   1.393   2.893  17.282 -0.1807 -0.1276  0.2769
 5911TIP3    H139148   1.468   2.925  17.232 -0.1432 -1.2032 -0.4079
 5911TIP3    H239149   1.420   2.901  17.374 -0.1065  1.5388  0.1279
 5912TIP3   OH239150   2.652   1.353  11.550 -0.3423 -0.3436 -0.0477
 5912TIP3    H139151   2.651   1.442  11.515 -0.7562 -0.2813  0.1163
 5912TIP3    H239152   2.660   1.296  11.473 -0.6550 -0.1841 -0.2005
 5913TIP3   OH239153   4.022   1.032  16.055 -0.5927  0.1236 -0.4818
 5913TIP3    H139154   4.009   0.965  15.988  2.0048  0.0991 -1.0755
 5913TIP3    H239155   4.115   1.026  16.077 -0.6488  2.4201  0.6776
 5914TIP3   OH239156   4.794   0.044   4.314  0.0778  0.0413 -0.5355
 5914TIP3    H139157   4.786  -0.024   4.247  0.8123  0.3933 -0.9996
 5914TIP3    H239158   4.886   0.038   4.343  0.0591  0.6109 -0.3418
 5915TIP3   OH239159   0.336   5.276   3.321 -0.1569  0.1589  0.4540
 5915TIP3    H139160   0.324   5.196   3.270 -1.1850  0.0439  0.8533
 5915TIP3    H239161   0.410   5.257   3.379 -1.5583 -1.2409  1.8945
 5916TIP3   OH239162   6.444   2.271   0.069  0.0697  0.6503 -0.2153
 5916TIP3    H139163   6.360   2.260   0.113 -0.4852  0.4274 -1.2925
 5916TIP3    H239164   6.457   2.190   0.021  0.8622  0.7200 -0.1324
 5917TIP3   OH239165   5.159   2.118   3.179  0.1076  0.2932  0.0117
 5917TIP3    H139166   5.070   2.121   3.216 -0.4348  0.5792 -1.2576
 5917TIP3    H239167   5.201   2.046   3.225 -1.2858 -0.8461 -0.4004
 5918TIP3   OH239168   0.669   6.006   3.634 -0.4464  0.2853  0.6426
 5918TIP3    H139169   0.594   5.990   3.577 -1.2331 -1.9790  2.1741
 5918TIP3    H239170   0.632   6.051   3.710 -0.6030 -2.0404  2.0254
 5919TIP3   OH239171   5.257   4.142   0.994 -0.5733 -0.3475  0.5746
 5919TIP3    H139172   5.218   4.204   0.933  0.8872  0.1207  0.0724
 5919TIP3    H239173   5.284   4.068   0.940 -1.2693 -0.9341  1.0038
 5920TIP3   OH239174   1.064   2.993  14.782  0.8612 -0.2091 -0.4236
 5920TIP3    H139175   0.998   2.975  14.714 -1.1683  0.8235  1.1501
 5920TIP3    H239176   1.099   2.907  14.804 -1.7679 -1.1989  0.3554
 5921TIP3   OH239177   6.300   1.720  11.974  0.2113  0.5571  0.0987
 5921TIP3    H139178   6.376   1.700  12.029 -0.6922 -0.5403  1.0269
 5921TIP3    H239179   6.308   1.660  11.899  0.1165  0.2186  0.3543
 5922TIP3   OH239180   4.648   0.522   1.493  0.1375  0.6634  0.3400
 5922TIP3    H139181   4.712   0.561   1.433  1.0753  0.1110  0.9704
 5922TIP3    H239182   4.656   0.573   1.574  1.6317 -0.9950  1.3024
 5923TIP3   OH239183   5.335   4.969   2.614  0.6103  0.0155  0.0649
 5923TIP3    H139184   5.311   4.890   2.565  1.2912 -0.8802  1.1339
 5923TIP3    H239185   5.255   5.020   2.618  0.7110  0.5524 -2.7045
 5924TIP3   OH239186   4.006   1.848   2.572  0.4242 -0.0795  0.1322
 5924TIP3    H139187   4.010   1.755   2.551  0.7101 -0.5313  1.9757
 5924TIP3    H239188   3.979   1.890   2.491  1.1445 -1.6683 -0.9760
 5925TIP3   OH239189   3.366   4.050  13.426 -0.1923 -0.3177 -0.3891
 5925TIP3    H139190   3.329   3.963  13.416 -2.4069  0.1312  2.5592
 5925TIP3    H239191   3.320   4.104  13.362 -0.6053 -0.8355 -0.5300
 5926TIP3   OH239192   5.918   1.692   0.390  0.3271 -0.2189 -0.4077
 5926TIP3    H139193   5.994   1.639   0.412 -0.2472 -0.6038  0.7182
 5926TIP3    H239194   5.933   1.775   0.436 -0.0182 -0.3696 -0.0159
 5927TIP3   OH239195   2.109   1.310  13.480  0.7800 -0.6441  0.6965
 5927TIP3    H139196   2.085   1.358  13.559 -1.2421 -0.4781  0.0281
 5927TIP3    H239197   2.047   1.238  13.474 -0.2920  0.3475 -1.6087
 5928TIP3   OH239198   3.308   1.603   5.402 -0.6160  0.6217 -0.2837
 5928TIP3    H139199   3.374   1.605   5.472  0.5517  1.3031 -1.3522
 5928TIP3    H239200   3.264   1.688   5.409 -0.1926  0.8794 -0.6223
 5929TIP3   OH239201   2.596   5.711   6.083 -0.5426  0.4825 -0.0247
 5929TIP3    H139202   2.510   5.680   6.111 -0.8481  0.4405 -0.9811
 5929TIP3    H239203   2.642   5.631   6.056 -0.1387  0.4853  0.6289
 5930TIP3   OH239204   1.264   5.095   0.460  0.0530 -0.1001 -0.4826
 5930TIP3    H139205   1.213   5.020   0.428 -2.0237  1.4716 -1.0968
 5930TIP3    H239206   1.264   5.085   0.555 -0.1666 -0.9012 -0.5579
 5931TIP3   OH239207   5.668   3.089  15.059  0.8068 -0.0179  0.2048
 5931TIP3    H139208   5.589   3.117  15.013 -0.6127 -1.9051  1.3560
 5931TIP3    H239209   5.703   3.017  15.006  2.1556  1.1860 -0.6163
 5932TIP3   OH239210   5.901   4.546  13.842 -0.1132 -0.0188 -0.0966
 5932TIP3    H139211   5.866   4.463  13.875 -0.7846  0.3750  0.2115
 5932TIP3    H239212   5.963   4.521  13.773  1.4819 -0.8823  1.5696
 5933TIP3   OH239213   6.457   4.653  13.366  0.3500  0.2220 -0.1734
 5933TIP3    H139214   6.380   4.610  13.403 -0.0063  0.8827 -0.1341
 5933TIP3    H239215   6.457   4.628  13.274 -0.2642  0.7121 -0.3124
 5934TIP3   OH239216   1.125   4.571   1.223  0.1591 -0.3400  0.1424
 5934TIP3    H139217   1.213   4.546   1.195 -0.6109 -2.1761 -0.7500
 5934TIP3    H239218   1.072   4.568   1.144 -1.1783 -1.5159  1.0216
 5935TIP3   OH239219   3.279   6.511   3.413 -0.1831 -0.5459  0.1847
 5935TIP3    H139220   3.209   6.529   3.475  1.0497  0.8452  1.2495
 5935TIP3    H239221   3.348   6.573   3.436  0.3850 -0.0475 -2.5072
 5936TIP3   OH239222   5.152   0.635   2.131 -0.7374  0.2974 -0.4689
 5936TIP3    H139223   5.210   0.710   2.118  0.0313 -0.1079  0.4968
 5936TIP3    H239224   5.143   0.628   2.226 -0.8245 -0.8063 -0.5400
 5937TIP3   OH239225   6.052   4.614  12.094  0.0163 -0.2099  0.4070
 5937TIP3    H139226   6.063   4.705  12.121 -1.0302 -0.0466  0.3379
 5937TIP3    H239227   6.102   4.606  12.013 -0.4364  0.4859  0.0592
 5938TIP3   OH239228   6.655   2.142  16.889  0.5254  0.0263  0.4169
 5938TIP3    H139229   6.653   2.076  16.959  0.0763 -0.8043 -0.3615
 5938TIP3    H239230   6.671   2.092  16.809  1.3254  1.0025 -0.0458
 5939TIP3   OH239231   0.032   5.622   2.151 -0.1154  0.0541 -0.1144
 5939TIP3    H139232   0.108   5.589   2.198  0.1631  0.5665 -0.1948
 5939TIP3    H239233   0.021   5.711   2.184 -1.8831 -0.6341  1.3693
 5940TIP3   OH239234   6.571   4.320  14.619  0.5569  0.1857 -0.4384
 5940TIP3    H139235   6.653   4.357  14.586  0.6484 -0.8408 -1.4077
 5940TIP3    H239236   6.503   4.368  14.571  0.6253  0.2175 -0.5048
 5941TIP3   OH239237   0.354   6.268   6.301  0.1714  0.2472  0.2237
 5941TIP3    H139238   0.413   6.342   6.296 -0.5925  0.8163 -0.5736
 5941TIP3    H239239   0.273   6.298   6.260 -1.2352  0.0297  2.6316
 5942TIP3   OH239240   6.183   3.271   4.432  0.0635  0.2688 -0.0575
 5942TIP3    H139241   6.273   3.282   4.462 -0.1899 -0.9961  1.2660
 5942TIP3    H239242   6.192   3.239   4.342  1.0305 -1.5871  0.6406
 5943TIP3   OH239243   0.756   3.010  12.024  0.1685  0.1333  0.0216
 5943TIP3    H139244   0.774   3.077  11.958 -0.6138  1.2145  0.8594
 5943TIP3    H239245   0.667   2.980  12.003  0.3501 -0.3228 -0.0887
 5944TIP3   OH239246   5.075   5.986  17.302 -0.0940  0.0216  0.1623
 5944TIP3    H139247   5.059   5.937  17.383  0.0747  0.2264  0.3226
 5944TIP3    H239248   5.122   5.924  17.246  0.8341  0.2491  0.6663
 5945TIP3   OH239249   3.097   1.580  11.549 -0.3631 -0.3666 -0.0575
 5945TIP3    H139250   3.100   1.487  11.572 -2.1629 -0.9503 -1.9127
 5945TIP3    H239251   3.181   1.597  11.506  0.3537 -0.8710  1.0989
 5946TIP3   OH239252   5.417   6.434  15.748  0.2276 -0.1356  0.3495
 5946TIP3    H139253   5.439   6.506  15.807 -1.1502  0.1248  0.5964
 5946TIP3    H239254   5.331   6.458  15.712  1.3182  0.0639 -2.3478
 5947TIP3   OH239255   2.658   5.774  13.057  0.0320 -0.5990 -0.1927
 5947TIP3    H139256   2.637   5.708  12.991  1.7511 -1.1395 -0.2642
 5947TIP3    H239257   2.711   5.727  13.122 -0.0758  0.3501  0.6127
 5948TIP3   OH239258   1.778   2.701  15.721  0.5234 -0.0825  0.1528
 5948TIP3    H139259   1.754   2.703  15.813  1.2877  1.2057  0.3398
 5948TIP3    H239260   1.697   2.719  15.674  0.1486 -0.6819  0.5554
 5949TIP3   OH239261   5.080   2.359  13.064  0.0695  0.1305  0.2117
 5949TIP3    H139262   5.114   2.277  13.027  1.2751  0.4759  0.5223
 5949TIP3    H239263   5.157   2.411  13.083 -0.7119  1.5689 -0.4499
 5950TIP3   OH239264   4.604   5.854   4.544 -0.1591  0.2283  0.3043
 5950TIP3    H139265   4.572   5.837   4.633  0.8322  0.6678  0.7508
 5950TIP3    H239266   4.532   5.902   4.502 -0.2267  0.9215  1.1929
 5951TIP3   OH239267   5.460   0.133  11.720 -0.3283  0.1409  0.1371
 5951TIP3    H139268   5.462   0.132  11.624 -2.0471  1.4463  0.0194
 5951TIP3    H239269   5.527   0.196  11.745 -0.9785  1.0490 -0.3312
 5952TIP3   OH239270   4.846   3.737   2.097  0.2212 -0.0731 -0.0364
 5952TIP3    H139271   4.760   3.778   2.104  0.4700  0.4849 -0.2070
 5952TIP3    H239272   4.841   3.660   2.154 -1.3205 -1.6951 -2.1810
 5953TIP3   OH239273   1.223   5.893  16.351 -0.2562  0.0240 -0.3813
 5953TIP3    H139274   1.259   5.839  16.281 -0.9551  0.8715 -1.4405
 5953TIP3    H239275   1.146   5.935  16.311 -0.7835  0.3840  0.9625
 5954TIP3   OH239276   1.563   1.604   1.872 -0.0897  0.2931  0.2673
 5954TIP3    H139277   1.614   1.603   1.791 -4.0579  0.1973 -2.4637
 5954TIP3    H239278   1.536   1.696   1.881  0.4184  0.3328  1.6511
 5955TIP3   OH239279   1.424   3.722   4.268  0.4770  0.1841  0.5396
 5955TIP3    H139280   1.418   3.817   4.263 -0.5400  0.0667 -0.9918
 5955TIP3    H239281   1.335   3.691   4.256  1.0231 -1.0063 -0.7234
 5956TIP3   OH239282   2.475   3.460  15.110  0.8189  0.2870  0.5146
 5956TIP3    H139283   2.459   3.369  15.137 -1.1622 -0.0543 -1.4865
 5956TIP3    H239284   2.387   3.498  15.104  1.5398  1.9293  0.0147
 5957TIP3   OH239285   1.462   2.403  16.213 -0.0774  0.3978 -0.4792
 5957TIP3    H139286   1.557   2.414  16.214 -0.1542  1.0353  0.3970
 5957TIP3    H239287   1.450   2.308  16.201  0.7211 -0.0925  2.0399
 5958TIP3   OH239288   1.378   4.535  12.749 -0.1739 -0.0188 -0.4253
 5958TIP3    H139289   1.351   4.448  12.779  1.0619  0.0750  1.0704
 5958TIP3    H239290   1.296   4.581  12.732 -0.8481 -1.6062 -1.7105
 5959TIP3   OH239291   2.878   3.002   4.402  0.0676  0.3886  0.0045
 5959TIP3    H139292   2.805   3.031   4.456  0.3072 -0.0535  0.5850
 5959TIP3    H239293   2.949   2.987   4.465  0.4116  0.0585 -0.4565
 5960TIP3   OH239294   1.250   2.537  16.120 -0.1923 -0.4226 -0.1310
 5960TIP3    H139295   1.323   2.484  16.151  0.8106  1.2328  0.4450
 5960TIP3    H239296   1.276   2.564  16.032  0.3788  0.9920  0.4504
 5961TIP3   OH239297   3.677   6.547  13.650 -0.0530 -0.6293 -0.0480
 5961TIP3    H139298   3.708   6.496  13.575  1.5634  1.1895 -0.7131
 5961TIP3    H239299   3.631   6.621  13.611  0.1910 -0.0380  0.7530
 5962TIP3   OH239300   3.062   4.991   2.987  0.2091  0.5947 -0.4311
 5962TIP3    H139301   3.017   5.046   2.924  2.8809  0.4877 -2.6322
 5962TIP3    H239302   3.103   5.052   3.049 -1.1287  0.7666  0.3174
 5963TIP3   OH239303   2.632   6.473   5.374 -0.0359  0.4619  0.1217
 5963TIP3    H139304   2.579   6.407   5.330 -0.1809  0.5118  0.2225
 5963TIP3    H239305   2.706   6.488   5.315  1.5230 -1.8545  1.3160
 5964TIP3   OH239306   1.130   1.982  17.000 -0.0939 -0.2832 -0.1289
 5964TIP3    H139307   1.043   1.974  17.041 -1.1371  2.0347 -1.6802
 5964TIP3    H239308   1.129   1.916  16.931 -1.9800  1.6809 -2.1608
 5965TIP3   OH239309   4.892   1.582   3.564 -0.4978 -0.2601 -0.3189
 5965TIP3    H139310   4.905   1.559   3.656  2.1627 -1.6181 -0.9078
 5965TIP3    H239311   4.878   1.498   3.520  1.4875 -0.0613 -1.5017
 5966TIP3   OH239312   4.253   0.677   0.313  0.3120  0.1564  0.1209
 5966TIP3    H139313   4.322   0.611   0.307  1.1333  0.9789  0.2120
 5966TIP3    H239314   4.267   0.732   0.236 -1.1617 -0.5071 -0.6565
 5967TIP3   OH239315   2.176   5.386   0.396  0.1514  0.2262  0.6780
 5967TIP3    H139316   2.179   5.450   0.466 -1.0357  0.5905  0.4279
 5967TIP3    H239317   2.090   5.399   0.356  0.1523 -1.0771  0.2036
 5968TIP3   OH239318   1.416   1.781   3.500 -0.3022 -0.3550  0.5003
 5968TIP3    H139319   1.353   1.727   3.452  0.1416  0.0675 -0.5897
 5968TIP3    H239320   1.494   1.725   3.508 -0.3108 -0.3567  0.5767
 5969TIP3   OH239321   0.910   0.343  11.299 -0.1358 -0.7191  0.2036
 5969TIP3    H139322   1.000   0.374  11.305  0.0056 -1.1898  0.5859
 5969TIP3    H239323   0.918   0.252  11.270 -0.4838 -0.7760  0.2866
 5970TIP3   OH239324   4.567   1.711   5.873 -0.0362  0.1347  0.0202
 5970TIP3    H139325   4.551   1.791   5.823  2.4235 -0.5626 -2.0944
 5970TIP3    H239326   4.663   1.702   5.873 -0.2376 -3.0760 -0.2898
 5971TIP3   OH239327   1.325   4.659   2.499 -0.0586 -0.5341 -0.6806
 5971TIP3    H139328   1.359   4.612   2.575 -0.2920  0.7822  0.2828
 5971TIP3    H239329   1.398   4.663   2.438  0.5432 -0.4672  0.0366
 5972TIP3   OH239330   6.226   3.221   0.183  0.4939 -0.7596 -0.1341
 5972TIP3    H139331   6.319   3.197   0.181  0.9124  0.7952 -1.3879
 5972TIP3    H239332   6.189   3.180   0.105  0.4684 -0.1374 -0.4519
 5973TIP3   OH239333   2.505   4.706   4.805 -0.2421 -0.4813  0.2899
 5973TIP3    H139334   2.467   4.778   4.754 -0.1251 -1.3332 -1.0671
 5973TIP3    H239335   2.431   4.647   4.821 -0.2795 -0.2154  1.1453
 5974TIP3   OH239336   5.640   4.694  12.128  0.6603  0.0913  0.3058
 5974TIP3    H139337   5.699   4.631  12.168  1.7686  1.7033  1.3365
 5974TIP3    H239338   5.598   4.646  12.056  3.1088 -1.1588 -0.3900
 5975TIP3   OH239339   6.650   1.166   0.654 -0.4106  0.8155  0.0412
 5975TIP3    H139340   6.699   1.152   0.572  0.5851  0.9794  0.5868
 5975TIP3    H239341   6.692   1.106   0.716 -1.0519  0.8161  0.4762
 5976TIP3   OH239342   6.584   0.156   0.382 -0.0613 -0.2319 -0.6227
 5976TIP3    H139343   6.616   0.156   0.292  1.2788 -0.8164 -0.1730
 5976TIP3    H239344   6.647   0.103   0.430 -1.6829 -1.3829  0.3529
 5977TIP3   OH239345   1.402   0.489  12.305  0.0903  0.2851  0.1825
 5977TIP3    H139346   1.341   0.562  12.292  0.8130  0.9359  0.3957
 5977TIP3    H239347   1.383   0.429  12.233 -0.2207  0.8867 -0.2434
 5978TIP3   OH239348   6.096   5.078  13.894 -0.0296 -0.6057 -0.1724
 5978TIP3    H139349   6.056   5.003  13.939  1.2527 -0.9496  0.4387
 5978TIP3    H239350   6.047   5.085  13.812 -0.7826 -1.5277  0.1759
 5979TIP3   OH239351   4.479   4.272   0.217  0.4274 -0.3823 -0.6386
 5979TIP3    H139352   4.429   4.251   0.295 -0.9200  0.0159 -1.3698
 5979TIP3    H239353   4.494   4.187   0.174  1.2281 -0.6072  0.0655
 5980TIP3   OH239354   5.312   3.947   5.432  0.2840  0.2466  0.3825
 5980TIP3    H139355   5.330   3.856   5.410  0.6278  0.1789  0.9313
 5980TIP3    H239356   5.218   3.948   5.451  0.3319 -0.0522  0.6512
 5981TIP3   OH239357   5.827   6.044   3.084  0.2938  0.0857  0.4955
 5981TIP3    H139358   5.826   5.949   3.070 -1.9995 -0.1106  1.6286
 5981TIP3    H239359   5.763   6.059   3.154  0.6513  2.4762  0.3870
 5982TIP3   OH239360   0.849   5.692  13.375  0.5144  0.2275 -0.3415
 5982TIP3    H139361   0.837   5.685  13.281  1.9926  1.9950 -0.7412
 5982TIP3    H239362   0.822   5.782  13.396 -0.8786 -0.4862  1.1454
 5983TIP3   OH239363   2.436   6.470   1.789  0.1504 -0.0388  0.1878
 5983TIP3    H139364   2.452   6.527   1.864  1.2262 -1.6497  1.2398
 5983TIP3    H239365   2.513   6.481   1.734 -0.4439  0.8217 -0.4868
 5984TIP3   OH239366   2.461   6.235  15.926  0.6033 -0.3952 -0.1938
 5984TIP3    H139367   2.434   6.248  15.835  2.1188 -1.2384 -0.7912
 5984TIP3    H239368   2.529   6.168  15.922  0.3963 -0.7763  1.6228
 5985TIP3   OH239369   6.575   4.043   4.117  0.4790  0.0834  0.5547
 5985TIP3    H139370   6.662   4.049   4.158 -0.0470  3.0183  1.4846
 5985TIP3    H239371   6.572   4.117   4.057 -0.7995 -1.0156 -0.8081
 5986TIP3   OH239372   0.216   1.244  14.720  0.9019 -0.0506  0.1836
 5986TIP3    H139373   0.213   1.194  14.639 -1.7366 -2.4068  1.5539
 5986TIP3    H239374   0.167   1.324  14.700 -1.7718 -1.6258 -0.0717
 5987TIP3   OH239375   2.247   1.577  13.580  0.0162  0.2336  0.1575
 5987TIP3    H139376   2.232   1.601  13.488 -1.2949  1.6360  0.6893
 5987TIP3    H239377   2.166   1.533  13.606  0.3141  0.0009  0.6957
 5988TIP3   OH239378   1.330   0.655   1.147 -0.2453  0.1940 -0.5710
 5988TIP3    H139379   1.338   0.709   1.226 -0.3858  0.4457 -0.7269
 5988TIP3    H239380   1.241   0.673   1.115 -0.1838  0.0998 -0.7925
 5989TIP3   OH239381   5.437   3.085  16.167  0.2582 -0.6038  0.1094
 5989TIP3    H139382   5.527   3.056  16.183  1.0564  1.3282 -0.5365
 5989TIP3    H239383   5.430   3.167  16.216 -0.6363  0.0648 -1.1000
 5990TIP3   OH239384   6.518   3.882   4.845  0.2719 -0.0486 -0.2913
 5990TIP3    H139385   6.538   3.799   4.889  2.2389  1.3776  1.7187
 5990TIP3    H239386   6.430   3.904   4.875 -0.0587 -1.1024 -0.4252
 5991TIP3   OH239387   6.533   3.805   0.175  1.2072 -0.0377  0.0983
 5991TIP3    H139388   6.471   3.872   0.145  0.8880  0.4852  1.8299
 5991TIP3    H239389   6.496   3.723   0.145 -0.8198  0.1821  1.7949
 5992TIP3   OH239390   2.547   5.633  12.832 -0.0175 -0.0227 -0.6275
 5992TIP3    H139391   2.502   5.576  12.770  0.1379  0.3643 -1.1091
 5992TIP3    H239392   2.509   5.720  12.817 -0.3202 -0.0070  0.1601
 5993TIP3   OH239393   1.645   4.161   0.944 -0.0637 -0.3393 -0.0467
 5993TIP3    H139394   1.582   4.097   0.977 -3.8480  2.1599 -1.7133
 5993TIP3    H239395   1.670   4.129   0.858 -0.1689 -0.6183  0.0256
 5994TIP3   OH239396   0.858   3.109  17.138  0.2398 -0.2950 -0.5742
 5994TIP3    H139397   0.845   3.096  17.044 -1.3134  1.9236 -0.7526
 5994TIP3    H239398   0.875   3.021  17.173 -2.9476 -1.8308 -2.4006
 5995TIP3   OH239399   6.401   1.669   1.954 -0.1763 -0.2152  0.8117
 5995TIP3    H139400   6.334   1.729   1.986 -0.3274  0.4045 -0.5542
 5995TIP3    H239401   6.457   1.724   1.899  1.4486 -0.7213  1.8789
 5996TIP3   OH239402   2.844   1.884  10.670  0.4639  0.4259  0.4475
 5996TIP3    H139403   2.856   1.951  10.603 -0.0707  1.0096  0.9308
 5996TIP3    H239404   2.844   1.932  10.753  0.5520 -0.2238  0.8315
 5997TIP3   OH239405   6.746   0.085   5.182  0.5897  0.6220 -0.3366
 5997TIP3    H139406   6.722   0.141   5.107 -0.9882 -1.1885 -1.2958
 5997TIP3    H239407   6.841   0.081   5.180  0.5829 -0.6237 -3.3169
 5998TIP3   OH239408   6.181   1.899   1.977 -0.0555  0.4341 -0.1959
 5998TIP3    H139409   6.182   1.986   1.938  2.3292  0.8160  0.5398
 5998TIP3    H239410   6.154   1.841   1.907 -1.4771  1.7243 -0.7614
 5999TIP3   OH239411   6.422   5.096  14.484  0.1389 -0.4831  0.0868
 5999TIP3    H139412   6.399   5.158  14.415  0.5390 -0.3550  0.0695
 5999TIP3    H239413   6.517   5.101  14.491  0.0085  0.6445  1.7165
 6000TIP3   OH239414   0.848   5.650  12.190 -0.3254  0.1190 -0.7201
 6000TIP3    H139415   0.829   5.651  12.097  0.6841  1.1692 -0.9410
 6000TIP3    H239416   0.879   5.738  12.210  0.5330 -0.3861  0.3712
 6001TIP3   OH239417   6.761   6.189   2.763 -0.8706 -0.6236 -0.8194
 6001TIP3    H139418   6.725   6.132   2.830  1.1365 -1.2379 -0.2051
 6001TIP3    H239419   6.812   6.131   2.707  2.1450  0.6168  0.4680
 6002TIP3   OH239420   3.605   6.503  15.275 -0.0806  0.1742 -0.1008
 6002TIP3    H139421   3.612   6.458  15.191  1.2827 -0.4104  0.2927
 6002TIP3    H239422   3.577   6.436  15.337 -1.8970  0.7861 -0.2036
 6003TIP3   OH239423   1.192   5.698   2.235  0.1122  0.0964 -0.4068
 6003TIP3    H139424   1.112   5.681   2.185 -0.3758  0.6121  0.1721
 6003TIP3    H239425   1.166   5.765   2.299  0.8017 -0.2988  0.3078
 6004TIP3   OH239426   6.196   2.965  14.741 -0.1430 -0.1434  0.4038
 6004TIP3    H139427   6.222   2.892  14.684  0.9520 -0.8948  1.7971
 6004TIP3    H239428   6.268   3.028  14.733 -0.6044  0.3372 -0.0134
 6005TIP3   OH239429   3.639   3.026   2.810  0.3686 -0.0034  0.3614
 6005TIP3    H139430   3.544   3.029   2.796  0.0750  1.4501  2.2721
 6005TIP3    H239431   3.673   3.094   2.753  0.4708 -1.4226 -1.3542
 6006TIP3   OH239432   1.316   2.034  10.754 -0.6253 -0.1089  0.0581
 6006TIP3    H139433   1.315   2.082  10.837  0.5715 -0.7666  0.4866
 6006TIP3    H239434   1.264   1.955  10.772 -1.6568  0.4643 -0.3094
 6007TIP3   OH239435   2.650   3.123   3.378 -0.0704 -0.1585 -0.3741
 6007TIP3    H139436   2.582   3.134   3.312 -0.4978 -0.3677  0.0213
 6007TIP3    H239437   2.732   3.125   3.329 -0.4442 -2.4287 -1.2082
 6008TIP3   OH239438   0.019   2.475   4.755 -0.1633 -0.5576  0.1736
 6008TIP3    H139439   0.009   2.436   4.842 -0.6922 -0.4367  0.1673
 6008TIP3    H239440   0.025   2.400   4.696 -0.3339 -0.6349  0.2540
 6009TIP3   OH239441   4.345   0.826   3.989 -0.3496  0.2782  0.2115
 6009TIP3    H139442   4.307   0.875   4.062 -0.6589  0.1243  0.1573
 6009TIP3    H239443   4.386   0.750   4.030 -0.5647  0.1668  0.2196
 6010TIP3   OH239444   5.101   3.066  16.260 -0.4940 -0.6140  0.2781
 6010TIP3    H139445   5.044   3.038  16.332 -0.7920  0.0499  0.3031
 6010TIP3    H239446   5.053   3.043  16.181 -1.0257  0.3874  0.3010
 6011TIP3   OH239447   5.423   1.266  12.205  0.0047  0.3085 -0.0989
 6011TIP3    H139448   5.368   1.332  12.249  0.0355  0.7012 -0.6384
 6011TIP3    H239449   5.512   1.286  12.235 -0.0182  0.3475 -0.0558
 6012TIP3   OH239450   3.654   6.178   3.199  0.2606 -0.5995  0.5420
 6012TIP3    H139451   3.617   6.257   3.238  0.2573 -0.4138  0.1667
 6012TIP3    H239452   3.649   6.113   3.268 -2.0557 -0.9756  0.0928
 6013TIP3   OH239453   0.338   2.519  14.409 -0.7683 -0.1346 -0.0584
 6013TIP3    H139454   0.263   2.531  14.349 -0.3022 -1.0406 -0.8547
 6013TIP3    H239455   0.386   2.446  14.372 -0.1890 -0.4033  1.1865
 6014TIP3   OH239456   3.883   3.684   1.435  0.0692 -0.4035 -0.1516
 6014TIP3    H139457   3.853   3.628   1.363  1.0119  0.5961 -1.3599
 6014TIP3    H239458   3.977   3.667   1.441 -0.0725 -0.8083  1.1717
 6015TIP3   OH239459   0.126   5.382   1.660  0.0318  0.0502  0.0899
 6015TIP3    H139460   0.092   5.457   1.708  0.9582  0.9471 -0.6101
 6015TIP3    H239461   0.221   5.391   1.667  0.2042 -2.1489  1.6297
 6016TIP3   OH239462   1.794   5.208  12.683  0.2132 -0.3055 -0.4728
 6016TIP3    H139463   1.824   5.279  12.739  0.5642 -0.4777 -0.4415
 6016TIP3    H239464   1.704   5.191  12.712 -0.0541  0.4692 -0.8266
 6017TIP3   OH239465   3.054   6.714   3.388  0.2320 -0.1792  0.1020
 6017TIP3    H139466   3.129   6.753   3.342  0.2408 -2.7907 -2.3305
 6017TIP3    H239467   3.051   6.760   3.472  3.7627  0.9180 -0.2238
 6018TIP3   OH239468   0.416   2.134  13.380 -0.0848  0.3879  0.7547
 6018TIP3    H139469   0.460   2.166  13.301  0.1125 -0.3880  0.5456
 6018TIP3    H239470   0.387   2.046  13.358 -1.9698  0.9506  0.8040
 6019TIP3   OH239471   6.699   3.547  15.431  0.3972 -0.3702 -0.8305
 6019TIP3    H139472   6.785   3.529  15.392  0.8145  0.2679 -0.2215
 6019TIP3    H239473   6.717   3.558  15.524 -0.0338  1.6737 -0.9368
 6020TIP3   OH239474   4.228   1.048  14.852 -0.2785 -0.2440  0.2690
 6020TIP3    H139475   4.288   0.980  14.823 -0.5945 -0.7437  0.7573
 6020TIP3    H239476   4.253   1.064  14.944 -0.0999  0.4168  0.1115
 6021TIP3   OH239477   5.278   4.462   5.621 -0.1833 -0.6466 -0.0260
 6021TIP3    H139478   5.345   4.485   5.685 -1.3436  0.1843  0.9254
 6021TIP3    H239479   5.286   4.530   5.553 -1.6030  0.9196  1.2858
 6022TIP3   OH239480   0.523   3.165  11.694  0.2455  0.4353  0.4775
 6022TIP3    H139481   0.463   3.237  11.713 -0.2045  0.3569 -0.6044
 6022TIP3    H239482   0.543   3.174  11.601  1.2315 -0.0554  0.6299
 6023TIP3   OH239483   2.508   1.145   1.338  0.3024  0.1733  0.3899
 6023TIP3    H139484   2.575   1.213   1.324  0.5493  0.2750  1.9190
 6023TIP3    H239485   2.556   1.073   1.380 -0.3636 -0.1355  0.6239
 6024TIP3   OH239486   1.654   2.683   5.943  0.6206  0.4951 -0.7313
 6024TIP3    H139487   1.733   2.639   5.912 -0.1626  0.6841 -3.2254
 6024TIP3    H239488   1.607   2.616   5.993  0.0389 -1.2234 -3.3991
 6025TIP3   OH239489   5.067   0.921   4.932  0.4531 -0.0944 -0.0898
 6025TIP3    H139490   5.072   0.838   4.883  0.3801  0.3215 -0.8168
 6025TIP3    H239491   5.139   0.973   4.897 -0.0637  0.4939 -0.2871
 6026TIP3   OH239492   5.381   1.688  14.833  0.1996  0.3550  0.4381
 6026TIP3    H139493   5.291   1.677  14.802  1.0199  0.8780 -2.4190
 6026TIP3    H239494   5.382   1.773  14.876 -0.0280  1.9918 -2.5505
 6027TIP3   OH239495   3.614   4.658   3.567 -0.7302 -0.3460 -0.6639
 6027TIP3    H139496   3.520   4.648   3.552 -1.3355  1.3055  1.4656
 6027TIP3    H239497   3.623   4.745   3.606  2.0428  0.6212 -3.1038
 6028TIP3   OH239498   6.020   4.679   3.564 -0.8836 -0.1739  0.6633
 6028TIP3    H139499   6.061   4.619   3.501 -2.1838 -1.3688  0.9055
 6028TIP3    H239500   6.089   4.742   3.584 -0.4047  0.2808 -1.9435
 6029TIP3   OH239501   2.720   1.638  11.999 -0.1578 -0.5072  0.4000
 6029TIP3    H139502   2.683   1.720  11.968 -2.8623 -1.0980  1.8142
 6029TIP3    H239503   2.709   1.577  11.926 -0.8839 -0.3556  0.3805
 6030TIP3   OH239504   0.470   2.746  11.448 -0.1713  0.4168  0.0627
 6030TIP3    H139505   0.463   2.681  11.378 -0.7209  1.8361 -1.2666
 6030TIP3    H239506   0.392   2.801  11.437  0.6435  1.7384  0.6415
 6031TIP3   OH239507   0.920   2.420  15.861 -0.2354  0.0511  0.0491
 6031TIP3    H139508   0.834   2.378  15.864 -0.6113  0.8353  0.3806
 6031TIP3    H239509   0.907   2.497  15.806 -0.2379  1.2598  1.6802
 6032TIP3   OH239510   1.932   2.657   2.818 -0.0724 -0.2426  0.0742
 6032TIP3    H139511   1.950   2.578   2.869  0.0943  0.4391  1.1055
 6032TIP3    H239512   1.994   2.654   2.746  0.0553 -0.9648  0.2092
 6033TIP3   OH239513   4.370   2.349   2.271 -0.1207 -0.2172  0.5626
 6033TIP3    H139514   4.291   2.401   2.283  0.1019  0.2652 -0.0696
 6033TIP3    H239515   4.427   2.376   2.343 -0.5781 -0.6715  1.1060
 6034TIP3   OH239516   0.835   0.149   6.325  0.1275  0.2159  0.3029
 6034TIP3    H139517   0.868   0.059   6.334  0.2797  0.2360 -0.0413
 6034TIP3    H239518   0.743   0.143   6.350 -0.0802 -0.2066 -0.5384
 6035TIP3   OH239519   3.716   3.432   3.104 -0.3364 -0.3022  0.3118
 6035TIP3    H139520   3.719   3.426   3.199 -1.2099 -0.7594  0.3233
 6035TIP3    H239521   3.774   3.362   3.073  0.6458  0.4163  0.5021
 6036TIP3   OH239522   1.228   0.275   4.558  0.0742  0.3504  0.2987
 6036TIP3    H139523   1.317   0.260   4.528 -0.4402 -1.5477 -0.4433
 6036TIP3    H239524   1.204   0.361   4.523  1.3007  0.4968 -0.2120
 6037TIP3   OH239525   1.998   2.627  12.379  0.0219 -0.3962  0.0046
 6037TIP3    H139526   2.007   2.672  12.463 -0.0530 -1.0929  0.4013
 6037TIP3    H239527   1.905   2.634  12.358  0.1441  0.3007 -0.3286
 6038TIP3   OH239528   6.733   2.278  17.141 -0.4284 -0.6653  0.2755
 6038TIP3    H139529   6.740   2.229  17.060 -0.2215  1.2546 -0.9175
 6038TIP3    H239530   6.639   2.282  17.159 -0.6099  0.4325 -0.8620
 6039TIP3   OH239531   5.281   4.507   2.549 -0.1322  0.1737  0.5757
 6039TIP3    H139532   5.288   4.552   2.465 -1.4307 -0.4321  0.1204
 6039TIP3    H239533   5.355   4.540   2.600  2.1037 -1.1841 -1.5854
 6040TIP3   OH239534   4.581   1.721  15.306 -0.2386  0.0138  0.0584
 6040TIP3    H139535   4.655   1.715  15.366  0.2334 -0.6679 -0.5798
 6040TIP3    H239536   4.589   1.808  15.267  1.1076 -0.6081 -1.1143
 6041TIP3   OH239537   1.194   2.741   2.498 -0.2284 -0.4454 -0.5145
 6041TIP3    H139538   1.116   2.757   2.446 -0.1186  0.7912 -0.3217
 6041TIP3    H239539   1.185   2.798   2.574  1.1482  0.1937 -0.7977
 6042TIP3   OH239540   2.839   0.341   4.663 -0.3271 -0.6378  0.2373
 6042TIP3    H139541   2.821   0.432   4.683 -0.6738 -0.9101  1.2199
 6042TIP3    H239542   2.762   0.294   4.695 -0.6357 -1.1825 -1.1966
 6043TIP3   OH239543   2.311   5.429   4.290  0.1898 -0.2895 -0.2200
 6043TIP3    H139544   2.366   5.487   4.237 -0.0810  0.5069  0.3334
 6043TIP3    H239545   2.342   5.341   4.271  0.9512  0.0768 -0.7132
 6044TIP3   OH239546   1.429   3.175   4.061  1.0140 -0.9087  0.0030
 6044TIP3    H139547   1.410   3.252   4.115 -0.8124 -1.5245  0.3118
 6044TIP3    H239548   1.496   3.127   4.110 -0.0532 -1.0581  1.3724
 6045TIP3   OH239549   3.212   0.064   4.617  0.1556  0.3861 -0.0880
 6045TIP3    H139550   3.160   0.023   4.547  1.3049 -0.6078 -0.3904
 6045TIP3    H239551   3.294   0.088   4.574  1.5974 -1.8265  1.2576
 6046TIP3   OH239552   1.663   6.438   0.484 -0.5651  0.2092 -0.0149
 6046TIP3    H139553   1.579   6.392   0.487 -0.5845  0.1846 -0.6801
 6046TIP3    H239554   1.638   6.531   0.475 -0.5207  0.2134 -0.0936
 6047TIP3   OH239555   2.889   3.367  10.994  0.0340  0.4350 -0.1559
 6047TIP3    H139556   2.967   3.375  11.049  0.1203  0.1548 -0.2360
 6047TIP3    H239557   2.841   3.293  11.031  1.5809 -1.7621 -2.2423
 6048TIP3   OH239558   1.336   1.887  17.228 -0.1916 -0.3710  0.4881
 6048TIP3    H139559   1.345   1.972  17.185 -0.0176 -0.6094  0.0474
 6048TIP3    H239560   1.400   1.831  17.183 -1.0129 -1.0014  0.0961
 6049TIP3   OH239561   6.384   5.704  15.374 -0.0032 -0.5039 -0.1310
 6049TIP3    H139562   6.479   5.713  15.373  0.0424 -0.8857  0.2739
 6049TIP3    H239563   6.351   5.792  15.355  0.4239 -0.1578  0.6636
 6050TIP3   OH239564   0.675   5.256   1.999 -0.2792  0.3909  0.2086
 6050TIP3    H139565   0.606   5.275   2.063  0.0112  0.4520  0.5028
 6050TIP3    H239566   0.644   5.298   1.918  0.0025  1.4930  0.6601
 6051TIP3   OH239567   0.842   1.667   3.035 -0.4692  0.4459 -0.3004
 6051TIP3    H139568   0.821   1.717   2.957 -1.1224  0.0846 -0.3649
 6051TIP3    H239569   0.838   1.575   3.006  2.8817  0.3102 -0.7580
 6052TIP3   OH239570   1.299   3.075   0.551  0.2082 -0.1799 -0.3045
 6052TIP3    H139571   1.367   3.017   0.584  2.1043  1.0616 -1.8545
 6052TIP3    H239572   1.251   3.023   0.487 -1.6610 -1.6699  2.0987
 6053TIP3   OH239573   5.608   5.378  13.978 -0.6212 -0.1786 -0.2732
 6053TIP3    H139574   5.646   5.392  13.891  0.5499 -0.5231  0.1512
 6053TIP3    H239575   5.553   5.300  13.969  0.3349 -0.8553 -0.4932
 6054TIP3   OH239576   2.264   6.670   4.876 -0.3201  0.5179 -0.0239
 6054TIP3    H139577   2.327   6.613   4.921 -1.0451 -1.7187 -1.6252
 6054TIP3    H239578   2.315   6.746   4.849  0.9664  0.1826  1.3390
 6055TIP3   OH239579   2.498   1.397   3.474  0.1708 -0.2355  0.4812
 6055TIP3    H139580   2.463   1.322   3.424  0.0794  1.2400 -1.8240
 6055TIP3    H239581   2.421   1.440   3.509 -0.3587  1.6725 -2.6296
 6056TIP3   OH239582   3.391   5.223  15.777 -0.3019  0.0887 -0.0701
 6056TIP3    H139583   3.382   5.138  15.818 -0.9238  0.1480 -0.0688
 6056TIP3    H239584   3.328   5.279  15.823  1.0453  0.9074  0.8491
 6057TIP3   OH239585   1.537   1.606  17.289 -0.3389  0.4594  0.1223
 6057TIP3    H139586   1.538   1.649  17.203 -1.2716 -1.0201 -0.6845
 6057TIP3    H239587   1.506   1.672  17.350  0.4115  1.5672 -0.6638
 6058TIP3   OH239588   5.053   5.938   0.288 -0.1622  0.2044 -0.0297
 6058TIP3    H139589   5.033   6.032   0.290  0.0767  0.2447  1.1439
 6058TIP3    H239590   5.139   5.931   0.330 -0.1149 -0.5335 -0.2342
 6059TIP3   OH239591   5.182   3.784  15.747 -0.2701 -0.3324  0.4092
 6059TIP3    H139592   5.244   3.724  15.707 -0.5883 -0.3131 -0.1230
 6059TIP3    H239593   5.237   3.852  15.786  0.0264  0.3147 -1.0673
 6060TIP3   OH239594   4.156   4.831  13.556 -0.1604 -0.3172  0.3673
 6060TIP3    H139595   4.147   4.765  13.625  0.7995 -1.3281 -0.4381
 6060TIP3    H239596   4.249   4.830  13.534 -0.6918 -1.4417 -2.2738
 6061TIP3   OH239597   5.043   6.511   0.945  0.1553 -0.3139  0.1693
 6061TIP3    H139598   5.111   6.502   1.011  0.3176  1.3903  0.2778
 6061TIP3    H239599   4.998   6.593   0.967 -0.8198 -0.5339 -0.8993
 6062TIP3   OH239600   4.195   4.854   3.816  0.5002 -0.8296 -0.1223
 6062TIP3    H139601   4.127   4.797   3.854 -1.1853 -0.2680 -2.1328
 6062TIP3    H239602   4.237   4.895   3.892 -2.2921 -0.2359  1.2310
 6063TIP3   OH239603   0.132   0.550  12.403  0.1971 -0.5967  0.1186
 6063TIP3    H139604   0.208   0.580  12.453  0.1075 -0.8099  0.3838
 6063TIP3    H239605   0.170   0.498  12.332  0.3500  0.1052 -0.3245
 6064TIP3   OH239606   1.435   0.843   0.632 -0.2121  0.2125 -0.5071
 6064TIP3    H139607   1.443   0.931   0.668  0.0652 -1.0550  2.8832
 6064TIP3    H239608   1.525   0.816   0.613  0.0616 -0.3666  1.3943
 6065TIP3   OH239609   1.147   5.658   2.729 -0.5334 -1.3566 -0.0838
 6065TIP3    H139610   1.230   5.705   2.720 -1.0617 -0.4899 -0.5262
 6065TIP3    H239611   1.114   5.651   2.639 -2.7559  1.6989  0.3172
 6066TIP3   OH239612   6.112   1.458   1.222  0.3320 -0.4759 -0.1282
 6066TIP3    H139613   6.057   1.387   1.254  0.8787 -0.5686  0.6379
 6066TIP3    H239614   6.183   1.464   1.286  0.9484 -0.0386 -0.8380
 6067TIP3   OH239615   3.738   6.705  11.945  0.3021 -0.4229 -0.0216
 6067TIP3    H139616   3.789   6.676  12.021 -0.9201  1.0177  1.4185
 6067TIP3    H239617   3.668   6.641  11.936 -0.1011 -0.0877  0.6817
 6068TIP3   OH239618   3.391   6.697  12.736 -0.0085  0.4969 -0.3366
 6068TIP3    H139619   3.335   6.764  12.697  0.3213  0.1242 -1.4923
 6068TIP3    H239620   3.345   6.670  12.816 -1.0190  0.8342 -0.7976
 6069TIP3   OH239621   2.891   1.415   3.194 -0.7461  0.3608 -0.2726
 6069TIP3    H139622   2.826   1.347   3.207  0.2006 -0.6679 -0.7348
 6069TIP3    H239623   2.957   1.399   3.261 -0.0203  0.1756 -1.0022
 6070TIP3   OH239624   3.575   1.589  11.942  0.1665 -0.1402 -0.3570
 6070TIP3    H139625   3.654   1.576  11.995  0.4588 -2.2921 -1.2153
 6070TIP3    H239626   3.529   1.505  11.948 -0.6429  0.1394 -2.1120
 6071TIP3   OH239627   5.039   1.031   2.871 -0.4129 -0.3198  0.2493
 6071TIP3    H139628   5.031   0.991   2.958 -1.6779  0.4859  0.5314
 6071TIP3    H239629   5.074   1.119   2.889 -0.4693 -0.2321 -0.0690
 6072TIP3   OH239630   5.956   3.677  14.983 -0.4032 -0.2448 -0.3535
 6072TIP3    H139631   5.915   3.701  15.066 -1.0299 -0.6045 -0.5567
 6072TIP3    H239632   6.044   3.715  14.988 -0.7910  0.6276  0.0336
 6073TIP3   OH239633   3.518   5.549   2.839  0.3936  0.0310 -0.4565
 6073TIP3    H139634   3.556   5.514   2.758 -2.2142 -0.7681 -1.4234
 6073TIP3    H239635   3.527   5.477   2.902  1.9421  0.4614 -0.1434
 6074TIP3   OH239636   1.799   4.068   1.623  0.2325 -0.2511 -0.2532
 6074TIP3    H139637   1.879   4.119   1.634  0.3199 -0.1137 -1.4106
 6074TIP3    H239638   1.731   4.134   1.609 -0.0927 -0.3666  0.7493
 6075TIP3   OH239639   0.487   4.636   3.370 -0.5426 -0.3815 -0.2533
 6075TIP3    H139640   0.543   4.586   3.430 -1.2790 -3.1357 -1.7049
 6075TIP3    H239641   0.516   4.608   3.282 -1.2477  1.5414 -1.1454
 6076TIP3   OH239642   1.526   5.111  10.349 -0.1953 -0.2640 -0.3494
 6076TIP3    H139643   1.617   5.082  10.351  0.2063  0.9621 -0.0252
 6076TIP3    H239644   1.527   5.189  10.294 -1.0297 -0.1478 -0.2122
 6077TIP3   OH239645   4.876   6.727   0.340  0.0970 -0.6727  0.3498
 6077TIP3    H139646   4.961   6.736   0.383 -1.0540  1.5690  2.3514
 6077TIP3    H239647   4.866   6.806   0.287 -0.3648 -1.3905 -0.6925
 6078TIP3   OH239648   2.950   2.019   3.726  0.0647 -0.3690  0.2194
 6078TIP3    H139649   2.964   2.057   3.813 -1.4048 -0.9049  0.7259
 6078TIP3    H239650   2.951   2.093   3.666  0.5389  0.0670  0.7585
 6079TIP3   OH239651   1.181   3.543   2.703  0.2586  0.1893  0.3050
 6079TIP3    H139652   1.142   3.495   2.630 -1.3698 -0.6449  1.6595
 6079TIP3    H239653   1.183   3.634   2.674 -0.1761 -0.1558 -0.8440
 6080TIP3   OH239654   1.805   3.813   0.514 -0.3922 -0.1909  0.5037
 6080TIP3    H139655   1.873   3.864   0.471 -1.9187  2.2281  0.7610
 6080TIP3    H239656   1.809   3.727   0.472 -0.1348  1.2315 -2.7005
 6081TIP3   OH239657   3.536   2.768  12.848 -0.5028  0.2287  0.4251
 6081TIP3    H139658   3.524   2.769  12.753  0.2410  1.1416  0.3185
 6081TIP3    H239659   3.580   2.686  12.866 -0.7178  0.0140 -0.0124
 6082TIP3   OH239660   3.436   0.400   4.390 -0.4574 -0.2174 -0.3624
 6082TIP3    H139661   3.437   0.443   4.304  0.4693  1.5179  0.4637
 6082TIP3    H239662   3.408   0.469   4.451  2.6925 -0.1878  1.2634
 6083TIP3   OH239663   2.651   5.585   2.360 -0.7230 -0.1641  0.7058
 6083TIP3    H139664   2.563   5.593   2.324 -0.5474  1.8414  0.5669
 6083TIP3    H239665   2.666   5.669   2.404  0.7263 -0.8726  1.6627
 6084TIP3   OH239666   5.792   6.092   3.905  0.2658 -0.0765 -0.0046
 6084TIP3    H139667   5.734   6.089   3.981  1.5868 -2.9295  1.0229
 6084TIP3    H239668   5.858   6.157   3.928  0.0738 -0.1586  0.8139
 6085TIP3   OH239669   2.646   4.863   1.728  0.4228 -0.5725  0.3917
 6085TIP3    H139670   2.558   4.886   1.757  1.3049  0.4555  2.4493
 6085TIP3    H239671   2.669   4.931   1.665  0.0661 -0.3326  0.5149
 6086TIP3   OH239672   6.171   0.023  11.428 -0.4226 -0.2205  0.4982
 6086TIP3    H139673   6.170   0.103  11.480 -1.0711  0.4193 -0.4650
 6086TIP3    H239674   6.263   0.012  11.403 -0.6992  2.0243 -1.9780
 6087TIP3   OH239675   3.750   3.375  14.203 -0.0548  0.2379 -0.1848
 6087TIP3    H139676   3.766   3.283  14.187 -1.2404  0.1194 -0.7768
 6087TIP3    H239677   3.677   3.377  14.264 -1.2601  0.7785 -1.5890
 6088TIP3   OH239678   4.070   6.392   0.087  0.7680 -0.3705 -0.1943
 6088TIP3    H139679   4.015   6.322   0.051 -0.2543 -0.8324  2.0499
 6088TIP3    H239680   4.152   6.349   0.111  1.1329 -0.2280 -1.1320
 6089TIP3   OH239681   2.842   3.095  14.893 -0.6543  0.1331  0.2728
 6089TIP3    H139682   2.839   3.190  14.878 -2.6566 -0.1314 -1.2741
 6089TIP3    H239683   2.928   3.081  14.933  0.6417  2.3218 -1.4733
 6090TIP3   OH239684   2.308   1.050   1.092  0.5073 -0.1371 -0.0490
 6090TIP3    H139685   2.355   1.072   1.172 -1.4827 -0.6913  1.3563
 6090TIP3    H239686   2.229   1.005   1.123 -1.5131  1.7317 -2.1594
 6091TIP3   OH239687   3.895   4.974  16.052  0.3313  0.3731 -0.1198
 6091TIP3    H139688   3.847   5.054  16.070 -0.9106 -0.5031  0.6487
 6091TIP3    H239689   3.951   4.961  16.129 -1.1593 -0.6590  0.8420
 6092TIP3   OH239690   2.993   6.349   1.416 -0.2815  0.8048  0.1156
 6092TIP3    H139691   2.999   6.255   1.433  0.1822  0.9464  0.7794
 6092TIP3    H239692   2.997   6.356   1.320  1.7830  0.2663  0.1117
 6093TIP3   OH239693   0.824   0.210   3.260 -0.4257  0.3154  0.1201
 6093TIP3    H139694   0.742   0.174   3.293 -1.7860  1.7628 -1.5167
 6093TIP3    H239695   0.835   0.293   3.306  0.4520 -0.1238  0.7402
 6094TIP3   OH239696   6.359   5.981  16.901  0.6482  0.2720 -0.1659
 6094TIP3    H139697   6.311   6.024  16.972  0.7902 -1.6822  1.1770
 6094TIP3    H239698   6.417   6.050  16.867 -0.0883  1.5116  0.9735
 6095TIP3   OH239699   0.824   4.846   0.530  0.0733 -0.2705  0.1813
 6095TIP3    H139700   0.835   4.878   0.620  1.3108 -2.2365  0.7725
 6095TIP3    H239701   0.758   4.777   0.537  1.0508 -1.2643 -0.1855
 6096TIP3   OH239702   5.347   1.149   2.195  0.3395 -0.2732  0.0966
 6096TIP3    H139703   5.372   1.062   2.164  2.0360  0.1398  0.1568
 6096TIP3    H239704   5.295   1.132   2.274  1.6206 -1.2592  0.7838
 6097TIP3   OH239705   3.672   5.380   1.499  0.1914  0.1923  0.3690
 6097TIP3    H139706   3.733   5.314   1.468  1.2020  0.7913  1.0150
 6097TIP3    H239707   3.601   5.330   1.540  1.1385 -0.5028  1.2130
 6098TIP3   OH239708   0.968   1.951  12.188  0.1490 -0.5705  0.8765
 6098TIP3    H139709   0.954   2.033  12.234 -1.1598 -0.8160  0.9611
 6098TIP3    H239710   1.053   1.920  12.219 -0.0765 -0.0404  2.0659
 6099TIP3   OH239711   3.845   1.441   5.070 -0.1629  0.1828  0.2794
 6099TIP3    H139712   3.926   1.492   5.072  0.3944 -0.6568 -0.0169
 6099TIP3    H239713   3.870   1.359   5.027 -1.3230  0.1542 -0.3740
 6100TIP3   OH239714   0.138   4.811  12.038  0.1489  0.1893  0.1316
 6100TIP3    H139715   0.195   4.774  11.971 -0.5119 -0.8301  0.1085
 6100TIP3    H239716   0.067   4.747  12.047 -1.9534  2.2071 -1.1291
 6101TIP3   OH239717   3.212   2.960  15.675 -0.2015 -0.8251  0.2703
 6101TIP3    H139718   3.305   2.939  15.666 -0.2199 -1.2219  0.9934
 6101TIP3    H239719   3.203   3.048  15.636  0.5729 -0.5560  0.6917
 6102TIP3   OH239720   0.986   3.783   5.414 -0.2710  0.7897 -0.7296
 6102TIP3    H139721   1.049   3.789   5.486  1.0580 -0.5175 -1.7479
 6102TIP3    H239722   1.021   3.841   5.346 -1.6493  2.2156 -0.2899
 6103TIP3   OH239723   1.950   3.791  16.444  0.6628  0.0470 -0.5248
 6103TIP3    H139724   1.917   3.862  16.499 -0.0639 -1.9324  1.7761
 6103TIP3    H239725   1.874   3.762  16.394  0.9410  0.8120 -1.4052
 6104TIP3   OH239726   4.146   5.521   5.576 -0.1923  0.1427  0.3206
 6104TIP3    H139727   4.099   5.473   5.645 -0.3716 -0.0414  0.0705
 6104TIP3    H239728   4.238   5.507   5.596 -0.2427 -0.5280  0.0961
 6105TIP3   OH239729   5.635   5.858  14.628  0.7683  0.2570  0.7636
 6105TIP3    H139730   5.730   5.842  14.630  0.6367 -0.6538  0.0544
 6105TIP3    H239731   5.598   5.794  14.687  0.3820 -1.1319 -0.9061
 6106TIP3   OH239732   3.792   6.742  15.327  0.0415  0.3777  0.2148
 6106TIP3    H139733   3.792   6.732  15.232  3.0396  0.8435  0.0887
 6106TIP3    H239734   3.707   6.782  15.346 -1.1060 -0.7622 -2.0961
 6107TIP3   OH239735   5.786   4.786  10.697 -0.2359  0.1288 -0.0547
 6107TIP3    H139736   5.820   4.750  10.778  1.6378  0.0904 -0.8036
 6107TIP3    H239737   5.774   4.710  10.640 -0.5293  0.2630 -0.1773
 6108TIP3   OH239738   3.590   4.185   3.683 -0.1945 -0.2111  0.3977
 6108TIP3    H139739   3.506   4.187   3.636 -0.6912 -3.0923  0.9129
 6108TIP3    H239740   3.646   4.246   3.636 -1.1815 -1.6186 -2.9233
 6109TIP3   OH239741   1.062   0.571   0.833  0.0760  0.0089  0.7771
 6109TIP3    H139742   1.114   0.651   0.829  0.2969 -0.1567  0.1782
 6109TIP3    H239743   0.976   0.600   0.863  0.3125  0.3876  1.0984
 6110TIP3   OH239744   3.821   3.133   3.878 -0.6790 -0.1820 -0.4020
 6110TIP3    H139745   3.791   3.090   3.958 -0.4290 -1.3645 -0.9190
 6110TIP3    H239746   3.833   3.224   3.903  0.3307 -0.7049  1.1702
 6111TIP3   OH239747   4.778   2.472  15.471  0.4852  0.0557 -0.3472
 6111TIP3    H139748   4.798   2.387  15.432  1.8996  0.6449 -0.9456
 6111TIP3    H239749   4.842   2.532  15.433  0.4075  1.1168  1.1277
 6112TIP3   OH239750   0.758   6.757  10.942 -0.6438 -0.0512 -0.6940
 6112TIP3    H139751   0.757   6.851  10.926  0.0059 -0.1794 -1.5840
 6112TIP3    H239752   0.791   6.719  10.860  1.4028 -0.8704  0.4496
 6113TIP3   OH239753   2.007   4.017   0.414 -0.0088  0.6255  0.0777
 6113TIP3    H139754   1.990   4.110   0.399 -1.5718  0.6301  1.5627
 6113TIP3    H239755   2.063   4.015   0.491  2.3505  0.3848 -1.5606
 6114TIP3   OH239756   4.291   1.923  10.888 -0.2328 -0.2043  0.3361
 6114TIP3    H139757   4.258   1.837  10.861  0.1044 -0.0505 -0.5924
 6114TIP3    H239758   4.213   1.972  10.913 -0.7278  0.0568 -1.5500
 6115TIP3   OH239759   0.150   1.255  11.323  0.3799  0.2658  0.0336
 6115TIP3    H139760   0.238   1.293  11.326  0.1917  0.6154  1.2647
 6115TIP3    H239761   0.165   1.161  11.308  0.9803  0.2489  0.7185
 6116TIP3   OH239762   4.088   3.176   5.481 -0.0707 -0.4573  1.0974
 6116TIP3    H139763   4.002   3.137   5.495  0.0031 -0.5728  1.2240
 6116TIP3    H239764   4.125   3.186   5.568 -0.8955  1.7418  1.2536
 6117TIP3   OH239765   3.767   5.537   2.059 -0.7508  0.5087 -0.1389
 6117TIP3    H139766   3.844   5.495   2.020 -1.3440  0.0865 -0.8873
 6117TIP3    H239767   3.791   5.630   2.065  0.5062  0.1427  1.3544
 6118TIP3   OH239768   4.046   1.541  12.160 -0.1336 -0.7659 -0.0318
 6118TIP3    H139769   3.994   1.466  12.191 -0.4482  0.3055  2.2195
 6118TIP3    H239770   4.135   1.523  12.192 -0.7449  1.0566  3.1433
 6119TIP3   OH239771   6.402   3.808  13.145  0.6240 -0.0941 -0.2193
 6119TIP3    H139772   6.384   3.724  13.186 -2.7542  0.7929  0.3958
 6119TIP3    H239773   6.496   3.822  13.159  1.7353 -4.4229 -1.8394
 6120TIP3   OH239774   3.658   1.595  15.066  0.6524  0.1808  0.0056
 6120TIP3    H139775   3.621   1.651  15.134 -0.2554 -1.2710  0.7307
 6120TIP3    H239776   3.687   1.517  15.111  1.0501 -0.3518 -1.1278
 6121TIP3   OH239777   0.999   5.183  16.346 -0.0527  0.4803  0.0658
 6121TIP3    H139778   1.015   5.272  16.377  1.2298  0.1260  0.5042
 6121TIP3    H239779   1.086   5.150  16.322 -0.5756 -0.4566 -0.6305
 6122TIP3   OH239780   6.047   3.752  17.304  0.6740 -0.2287  0.2159
 6122TIP3    H139781   6.139   3.731  17.317  0.5657 -0.7361  0.2174
 6122TIP3    H239782   6.045   3.810  17.229  0.9187 -1.0699 -0.4635
 6123TIP3   OH239783   4.687   0.736   6.131  0.1044  0.0935 -0.6151
 6123TIP3    H139784   4.694   0.642   6.114 -0.3792  0.1317 -1.0448
 6123TIP3    H239785   4.675   0.743   6.226  3.0865 -0.1112 -0.1234
 6124TIP3   OH239786   3.825   6.379  16.923 -0.0130 -0.1077 -0.0346
 6124TIP3    H139787   3.895   6.323  16.956 -1.1259 -1.6728 -0.2112
 6124TIP3    H239788   3.796   6.337  16.842  0.5093  1.9068 -1.3523
 6125TIP3   OH239789   1.850   0.226   2.132 -0.6738  0.3273 -0.2945
 6125TIP3    H139790   1.876   0.139   2.163  1.1827  0.6064 -0.9924
 6125TIP3    H239791   1.930   0.264   2.096 -1.5702  2.1372 -0.4747
 6126TIP3   OH239792   2.054   4.367   6.570  0.3090  0.3831  0.4583
 6126TIP3    H139793   1.961   4.385   6.555  0.5810  0.8452 -0.7881
 6126TIP3    H239794   2.100   4.436   6.524  1.2972 -0.9274 -0.6232
 6127TIP3   OH239795   2.070   2.251   1.833 -0.1628 -0.1260 -0.2651
 6127TIP3    H139796   2.120   2.199   1.896 -0.1564 -0.3988 -0.4909
 6127TIP3    H239797   2.104   2.340   1.843 -2.1722  0.4961  2.2341
 6128TIP3   OH239798   4.329   6.687  13.197  0.1129  0.0587 -0.1583
 6128TIP3    H139799   4.336   6.653  13.286 -1.3316  0.7079  0.2326
 6128TIP3    H239800   4.402   6.647  13.150 -0.0460 -1.5453  0.9060
 6129TIP3   OH239801   6.211   1.080   3.292  0.4446 -0.5586  0.0248
 6129TIP3    H139802   6.138   1.136   3.269 -0.2382 -0.9181  1.2592
 6129TIP3    H239803   6.286   1.140   3.299 -0.5750  0.5342  2.9380
 6130TIP3   OH239804   4.671   0.004  16.781 -0.4117 -0.1085 -0.0664
 6130TIP3    H139805   4.730  -0.024  16.851  0.3806  2.7845  0.5866
 6130TIP3    H239806   4.711  -0.028  16.701  0.5332 -0.5533  0.5703
 6131TIP3   OH239807   3.829   1.677   5.902 -0.4490 -0.1963  0.3153
 6131TIP3    H139808   3.886   1.732   5.848 -1.0240  0.8409  0.7316
 6131TIP3    H239809   3.808   1.732   5.977  0.6392 -1.7474  1.8178
 6132TIP3   OH239810   3.647   0.714   5.033  0.5324  0.6546  1.0439
 6132TIP3    H139811   3.588   0.789   5.019 -0.4422 -0.4781 -1.7514
 6132TIP3    H239812   3.722   0.733   4.976 -0.9589 -1.5852 -1.9533
 6133TIP3   OH239813   2.543   2.058   2.124  0.2380 -0.3896  0.1293
 6133TIP3    H139814   2.529   1.979   2.176  2.7734 -1.5369 -0.7846
 6133TIP3    H239815   2.637   2.074   2.129  0.1321  1.1688 -1.6684
 6134TIP3   OH239816   3.448   3.813   0.273  0.3252 -0.0211  0.1074
 6134TIP3    H139817   3.419   3.722   0.270 -0.1381  0.1321 -0.0028
 6134TIP3    H239818   3.410   3.854   0.196 -0.1243  0.4606  0.5719
 6135TIP3   OH239819   6.246   0.719   2.585  0.7006  0.5785 -0.0110
 6135TIP3    H139820   6.226   0.714   2.678  0.0670 -0.4454 -0.1791
 6135TIP3    H239821   6.161   0.736   2.543  0.7971  0.0061 -0.4628
 6136TIP3   OH239822   0.792   2.467   6.371  0.3738 -0.3228 -0.1235
 6136TIP3    H139823   0.732   2.444   6.442 -1.0558 -0.8960 -1.4477
 6136TIP3    H239824   0.813   2.384   6.329  1.2977 -0.0076 -0.3049
 6137TIP3   OH239825   5.331   1.743  12.595  0.1253 -0.0210  0.1193
 6137TIP3    H139826   5.394   1.687  12.551 -0.9876 -0.2965 -1.1964
 6137TIP3    H239827   5.361   1.833  12.579 -0.5622 -0.0876 -1.7613
 6138TIP3   OH239828   1.756   2.247  13.061  0.3571 -0.1341 -0.4822
 6138TIP3    H139829   1.832   2.305  13.062 -0.5590  1.2662  3.2728
 6138TIP3    H239830   1.791   2.161  13.085  0.9357  0.2732  0.1763
 6139TIP3   OH239831   4.092   2.738  13.628 -0.0439 -0.0254  0.7166
 6139TIP3    H139832   4.137   2.715  13.546  1.6897 -1.1994  1.9221
 6139TIP3    H239833   4.084   2.655  13.675 -0.5591  0.6921  1.9499
 6140TIP3   OH239834   3.300   4.487  14.435 -0.3760 -0.5323  0.1206
 6140TIP3    H139835   3.205   4.494  14.424 -0.4348  2.2102  1.5845
 6140TIP3    H239836   3.334   4.573  14.409  1.9737 -1.9885 -2.1126
 6141TIP3   OH239837   3.852   5.203  16.336  0.1323  0.2443  0.0503
 6141TIP3    H139838   3.912   5.275  16.358  0.6080 -0.0766 -0.2014
 6141TIP3    H239839   3.900   5.124  16.359 -0.2457 -0.0126 -0.0395
 6142TIP3   OH239840   0.682   1.197   5.012 -0.0268  0.6529  0.4085
 6142TIP3    H139841   0.599   1.244   5.023 -0.6758  0.2160 -1.9818
 6142TIP3    H239842   0.746   1.264   4.992 -0.7537  0.6850 -2.0500
 6143TIP3   OH239843   4.499   1.104   1.303  0.0135  0.1165  0.4304
 6143TIP3    H139844   4.428   1.062   1.351  0.1367  0.8151  1.2431
 6143TIP3    H239845   4.521   1.181   1.355  0.4311  0.6698 -0.5336
 6144TIP3   OH239846   4.818   5.749  15.393  0.0917  0.2096 -0.5198
 6144TIP3    H139847   4.792   5.824  15.339 -1.0535  0.4590  0.3264
 6144TIP3    H239848   4.827   5.786  15.481  0.0806 -0.5405 -0.1989
 6145TIP3   OH239849   6.148   0.912  15.923 -0.2992  0.2421 -0.3631
 6145TIP3    H139850   6.175   0.997  15.957 -2.0774  1.2296 -1.2864
 6145TIP3    H239851   6.172   0.914  15.831 -2.4386  0.7476 -0.9646
 6146TIP3   OH239852   3.174   0.731   2.997 -0.3689 -0.1290  0.1062
 6146TIP3    H139853   3.260   0.730   2.955 -0.9139  1.3619 -1.1062
 6146TIP3    H239854   3.182   0.796   3.066 -0.2916 -0.6183  0.5706
 6147TIP3   OH239855   4.308   0.626   3.566  0.0613 -0.4346 -0.1110
 6147TIP3    H139856   4.232   0.591   3.520  0.7216 -0.5853 -1.1378
 6147TIP3    H239857   4.335   0.556   3.625 -2.3805  0.7062  2.5999
 6148TIP3   OH239858   0.526   0.167   2.502  0.8647  0.3868  0.0675
 6148TIP3    H139859   0.451   0.201   2.454 -0.5513 -1.8560  0.5352
 6148TIP3    H239860   0.593   0.153   2.434 -0.3024 -0.6167 -0.9330
 6149TIP3   OH239861   0.040   2.316   4.358 -0.5553 -0.0819  0.5666
 6149TIP3    H139862   0.135   2.312   4.350 -0.6716 -1.8710 -0.6677
 6149TIP3    H239863   0.021   2.266   4.437 -0.4770  0.1244  0.7155
 6150TIP3   OH239864   0.794   6.225  15.343 -0.5165  0.1428  0.0341
 6150TIP3    H139865   0.797   6.301  15.401  0.2059  0.5228 -0.4827
 6150TIP3    H239866   0.788   6.150  15.401  2.3769  0.3487  0.7670
 6151TIP3   OH239867   6.118   1.878  15.514 -0.1139 -0.4630  0.0091
 6151TIP3    H139868   6.213   1.871  15.505 -0.1138 -0.0438 -0.4308
 6151TIP3    H239869   6.099   1.969  15.491 -0.4796 -0.1354  1.5058
 6152TIP3   OH239870   4.014   1.033   6.373 -0.6923 -0.5404  0.1045
 6152TIP3    H139871   3.969   0.960   6.416 -0.9724 -1.1223 -1.1427
 6152TIP3    H239872   3.964   1.047   6.292  0.5427 -0.2804 -0.6263
 6153TIP3   OH239873   5.566   4.899   3.465 -0.2109 -0.6024 -0.1719
 6153TIP3    H139874   5.633   4.963   3.491 -1.6502  0.5509  0.9402
 6153TIP3    H239875   5.508   4.948   3.407  1.0377 -2.2060 -2.9392
 6154TIP3   OH239876   2.219   0.375  14.656 -0.1617  0.1600 -0.4787
 6154TIP3    H139877   2.304   0.343  14.624 -0.8409 -1.3958 -0.8250
 6154TIP3    H239878   2.237   0.406  14.745  0.8246  0.1336 -0.6567
 6155TIP3   OH239879   0.602   2.841   3.659  0.2530 -1.1012 -0.5131
 6155TIP3    H139880   0.605   2.782   3.734  1.0242  2.0640  2.1865
 6155TIP3    H239881   0.691   2.841   3.624 -0.1165 -2.6070 -1.5372
 6156TIP3   OH239882   5.574   0.513   2.100 -0.0380  0.3138  0.0799
 6156TIP3    H139883   5.646   0.491   2.041  0.2031 -1.4299  0.9481
 6156TIP3    H239884   5.498   0.521   2.042  0.3339 -0.6336 -0.5652
 6157TIP3   OH239885   3.768   0.720  15.066  0.8747  0.6551 -0.0687
 6157TIP3    H139886   3.850   0.676  15.091  0.9812  0.9767  0.1539
 6157TIP3    H239887   3.767   0.800  15.119  1.6173  1.8875 -1.8452
 6158TIP3   OH239888   4.373   2.336  10.851 -0.5737 -0.3884 -0.1799
 6158TIP3    H139889   4.410   2.278  10.918  1.3244 -1.0623 -1.7185
 6158TIP3    H239890   4.287   2.300  10.832 -0.1859 -1.5593  0.2327
 6159TIP3   OH239891   5.911   3.394  11.063 -0.7474 -0.6769  0.1654
 6159TIP3    H139892   5.998   3.413  11.099 -0.0606  0.9253 -2.1379
 6159TIP3    H239893   5.851   3.439  11.122  0.0205 -1.0914  1.3106
 6160TIP3   OH239894   5.273   1.114   2.676  0.4306  0.6749 -0.1176
 6160TIP3    H139895   5.222   1.050   2.724 -0.6610  0.7831 -1.1031
 6160TIP3    H239896   5.362   1.106   2.712  0.1426 -0.8240  0.3053
 6161TIP3   OH239897   2.554   1.525   2.834  0.5391  0.1593 -0.1217
 6161TIP3    H139898   2.513   1.488   2.912 -0.8312  1.1427 -0.3382
 6161TIP3    H239899   2.561   1.618   2.852 -1.7011  0.7719 -1.8853
 6162TIP3   OH239900   6.105   2.048   3.438 -0.3378 -0.0362  0.3796
 6162TIP3    H139901   6.140   1.963   3.466 -0.4884 -0.9830 -2.0121
 6162TIP3    H239902   6.040   2.025   3.371 -0.4285  1.9728 -0.2667
 6163TIP3   OH239903   5.832   5.215   3.278 -0.0139  0.1211 -0.2640
 6163TIP3    H139904   5.914   5.179   3.242 -0.9323 -1.5325 -0.7859
 6163TIP3    H239905   5.763   5.177   3.224 -1.3332 -0.8784  2.0001
 6164TIP3   OH239906   2.650   1.903  14.468 -0.8483 -0.5283  0.0393
 6164TIP3    H139907   2.644   1.839  14.398 -0.0262  1.4640 -1.9959
 6164TIP3    H239908   2.591   1.974  14.441  0.2836  0.7566  0.7712
 6165TIP3   OH239909   4.628   5.796  11.120  0.5628  0.4894  0.4559
 6165TIP3    H139910   4.648   5.825  11.031  1.7720  2.3709  1.2839
 6165TIP3    H239911   4.653   5.704  11.122 -1.5526 -0.2456 -1.7296
 6166TIP3   OH239912   0.002   4.955  16.934 -0.0558  0.0049  0.5438
 6166TIP3    H139913   0.090   4.944  16.970 -0.1370 -0.3517  0.6364
 6166TIP3    H239914   0.016   4.997  16.849  0.1468  0.7156  0.9139
 6167TIP3   OH239915   5.932   2.472  14.151 -0.2668  0.1900  0.0179
 6167TIP3    H139916   5.869   2.527  14.105  0.2738  0.3590 -0.5265
 6167TIP3    H239917   5.891   2.455  14.236 -0.0992  2.0676  0.5045
 6168TIP3   OH239918   3.136   6.081  11.377  0.2740 -0.5115 -0.0224
 6168TIP3    H139919   3.051   6.037  11.382  0.1160 -0.0890  1.4096
 6168TIP3    H239920   3.126   6.145  11.307 -0.5391 -0.5648  0.0372
 6169TIP3   OH239921   0.229   3.993  12.899 -0.1499  0.1488  0.4864
 6169TIP3    H139922   0.173   4.065  12.870 -0.4704  0.1547  1.1060
 6169TIP3    H239923   0.199   3.973  12.988  1.3461  0.6780  1.1384
 6170TIP3   OH239924   2.592   5.451   0.611 -0.0073  0.1792  0.4517
 6170TIP3    H139925   2.616   5.484   0.525  0.7821  0.1284  0.6379
 6170TIP3    H239926   2.615   5.522   0.671  1.9093 -0.7279  0.8771
 6171TIP3   OH239927   4.236   4.378  15.270 -0.6477  0.3103  0.2883
 6171TIP3    H139928   4.273   4.410  15.352  0.5536  0.4346 -0.2830
 6171TIP3    H239929   4.143   4.402  15.275 -0.1704  2.2756  0.6769
 6172TIP3   OH239930   6.289   5.434  12.185 -0.2519 -0.2553  0.1242
 6172TIP3    H139931   6.264   5.428  12.093 -2.3847 -0.5605  0.6632
 6172TIP3    H239932   6.209   5.413  12.233  0.1205  2.2404  2.0584
 6173TIP3   OH239933   5.244   0.331   0.520  0.8068  0.2864  0.9934
 6173TIP3    H139934   5.311   0.280   0.566  1.4163  0.1893  0.0207
 6173TIP3    H239935   5.176   0.345   0.586  1.0346 -1.0109  1.5379
 6174TIP3   OH239936   5.572   1.267   2.329 -0.5110  0.0046 -0.0089
 6174TIP3    H139937   5.580   1.350   2.283 -1.4383  0.5506  0.7668
 6174TIP3    H239938   5.503   1.220   2.282  0.5279 -0.6721 -0.9085
 6175TIP3   OH239939   2.506   5.580   6.920 -0.8200  0.1093 -0.1708
 6175TIP3    H139940   2.600   5.564   6.915 -0.7439 -0.8775  2.6685
 6175TIP3    H239941   2.466   5.502   6.880 -0.4594  0.3110 -0.9432
 6176TIP3   OH239942   5.817   2.977  12.924  0.2017  0.0641  0.4354
 6176TIP3    H139943   5.889   3.027  12.887  0.4441 -0.1577  0.6059
 6176TIP3    H239944   5.770   3.039  12.979 -1.6321  1.1050 -2.1216
 6177TIP3   OH239945   3.259   6.425  13.792  0.0715  0.6085  0.3885
 6177TIP3    H139946   3.336   6.378  13.824 -0.6691 -0.8310  0.1833
 6177TIP3    H239947   3.192   6.410  13.859 -0.2584  1.1851  0.1966
 6178TIP3   OH239948   3.483   0.643   1.858 -0.8811  0.1158 -0.1931
 6178TIP3    H139949   3.392   0.623   1.833 -1.3553 -0.1040  1.6115
 6178TIP3    H239950   3.481   0.651   1.953  0.8223  1.0888 -0.1994
 6179TIP3   OH239951   2.810   2.980   2.534  0.2202 -0.0576  0.4829
 6179TIP3    H139952   2.753   3.054   2.549  0.2187  0.4219 -1.5727
 6179TIP3    H239953   2.848   2.995   2.447 -0.1871 -2.6888 -0.2620
 6180TIP3   OH239954   6.485   4.411   5.234  0.2006  0.4390  0.6480
 6180TIP3    H139955   6.424   4.410   5.160  0.2368  0.5197  0.6173
 6180TIP3    H239956   6.430   4.399   5.311  0.2874 -1.0637  0.5203
 6181TIP3   OH239957   1.519   5.023   4.049  0.2017  0.0964 -0.0787
 6181TIP3    H139958   1.477   5.017   4.135 -0.5309 -1.2616 -0.5058
 6181TIP3    H239959   1.526   5.117   4.033 -1.8058  0.3926  0.4472
 6182TIP3   OH239960   4.973   2.890  10.651 -0.3802 -0.0184  0.4721
 6182TIP3    H139961   4.897   2.939  10.621 -0.3407  0.3513  0.9471
 6182TIP3    H239962   5.038   2.903  10.582 -1.1215 -1.3314 -0.5127
 6183TIP3   OH239963   4.945   2.935   3.807  0.0655 -0.0473  0.0408
 6183TIP3    H139964   5.002   3.011   3.797 -1.1223  0.8265 -0.3596
 6183TIP3    H239965   4.954   2.887   3.725  1.5823 -0.9170  0.6799
 6184TIP3   OH239966   2.874   3.111  15.791  0.2437  0.2196  0.7029
 6184TIP3    H139967   2.858   3.112  15.697  1.8523 -1.1967  0.3714
 6184TIP3    H239968   2.789   3.089  15.829 -0.3533  0.5022 -0.4234
 6185TIP3   OH239969   6.156   0.869  12.748  0.3160  0.6248 -0.3015
 6185TIP3    H139970   6.157   0.837  12.658  0.4314 -0.3841  0.0479
 6185TIP3    H239971   6.211   0.807  12.796 -0.4989  0.6139  0.6384
 6186TIP3   OH239972   3.207   6.238  13.597  0.2526 -0.4933  0.6716
 6186TIP3    H139973   3.208   6.314  13.655 -0.4333 -1.0824  1.4880
 6186TIP3    H239974   3.264   6.175  13.640  0.0977 -0.7649  0.4788
 6187TIP3   OH239975   6.347   0.336   3.373 -0.2701  0.3091  0.3972
 6187TIP3    H139976   6.332   0.308   3.283 -0.3472  2.3242 -0.2578
 6187TIP3    H239977   6.263   0.321   3.417 -0.7798  1.0043 -0.3335
 6188TIP3   OH239978   5.107   5.729   4.044  0.2891 -0.3910 -0.7052
 6188TIP3    H139979   5.094   5.816   4.005  1.8667 -0.0334 -0.4972
 6188TIP3    H239980   5.168   5.744   4.116 -0.6333 -1.4469  0.3313
 6189TIP3   OH239981   3.123   0.268  15.102 -0.1981  0.0299 -0.5455
 6189TIP3    H139982   3.186   0.227  15.161  1.1386  1.0113 -1.2245
 6189TIP3    H239983   3.097   0.198  15.042  0.8848 -0.1970 -0.7652
 6190TIP3   OH239984   3.552   4.331   0.792  0.2931 -0.5408 -0.4532
 6190TIP3    H139985   3.633   4.317   0.743  0.9641 -0.2482  0.5283
 6190TIP3    H239986   3.545   4.255   0.850  0.2084 -0.2579 -0.0869
 6191TIP3   OH239987   2.105   3.324  13.405  0.5243  0.0027 -0.4033
 6191TIP3    H139988   2.201   3.324  13.411  0.5623  0.7677 -0.9857
 6191TIP3    H239989   2.076   3.350  13.493  0.7673 -2.6456  0.5583
 6192TIP3   OH239990   3.094   4.630  11.633 -0.1598  0.0055  0.1011
 6192TIP3    H139991   3.117   4.554  11.581  1.7360  0.3030  0.4380
 6192TIP3    H239992   3.015   4.604  11.680 -0.1340 -1.3616 -0.5603
 6193TIP3   OH239993   0.461   4.506  16.846 -0.7751  0.0055  0.5499
 6193TIP3    H139994   0.529   4.504  16.914 -2.1360 -1.7778  1.9611
 6193TIP3    H239995   0.480   4.431  16.791 -1.3464 -0.2701  0.7176
 6194TIP3   OH239996   1.303   2.539   0.352 -0.0586 -0.5341  0.2595
 6194TIP3    H139997   1.216   2.536   0.314 -0.7510  0.9471  1.5823
 6194TIP3    H239998   1.299   2.482   0.429  0.8787 -2.3083 -0.9337
 6195TIP3   OH239999   3.490   5.154  16.337 -0.2570  0.0785 -0.0559
 6195TIP3    H140000   3.551   5.090  16.372 -0.7595 -1.9077 -2.5670
 6195TIP3    H240001   3.541   5.203  16.273  0.1235  2.3631  1.8276
 6196TIP3   OH240002   1.665   3.098   3.681 -0.3452 -0.0714 -0.4818
 6196TIP3    H140003   1.654   3.042   3.758 -0.0457  1.4574  0.7076
 6196TIP3    H240004   1.737   3.057   3.633 -0.2198 -0.8017  0.2983
 6197TIP3   OH240005   6.141   0.837   3.148 -0.7030  0.1629  0.3358
 6197TIP3    H140006   6.076   0.808   3.211 -0.5589  1.5650  1.1743
 6197TIP3    H240007   6.178   0.917   3.186  1.9196 -0.8670  0.1791
 6198TIP3   OH240008   5.929   0.572  14.355  0.5058  0.1947 -0.0018
 6198TIP3    H140009   6.012   0.559  14.401  0.7712 -1.2666 -0.8072
 6198TIP3    H240010   5.888   0.646  14.399  2.8967  1.9570 -0.4956
 6199TIP3   OH240011   4.497   1.467   3.216 -0.1530 -0.1700  0.2439
 6199TIP3    H140012   4.524   1.558   3.214  0.1178 -0.2591 -0.3497
 6199TIP3    H240013   4.482   1.444   3.125  0.0584 -0.8018  0.3617
 6200TIP3   OH240014   5.938   2.144   0.854  0.0775  0.0497  0.0393
 6200TIP3    H140015   5.845   2.121   0.848  0.6136 -2.1050 -1.0835
 6200TIP3    H240016   5.950   2.171   0.944 -1.5390 -0.1718  0.3631
 6201TIP3   OH240017   2.864   2.724  13.068  0.1051  0.3694 -0.3510
 6201TIP3    H140018   2.926   2.726  13.141  1.1408  0.9981 -1.2201
 6201TIP3    H240019   2.787   2.679  13.104  1.2681 -0.9861  0.5862
 6202TIP3   OH240020   1.984   1.015  12.289 -0.5111  0.1194 -0.2366
 6202TIP3    H140021   1.890   1.014  12.308 -0.0430  0.4712  2.4061
 6202TIP3    H240022   2.020   1.084  12.345  1.2646  0.4999 -1.7262
 6203TIP3   OH240023   0.568   0.343  12.822  0.4657  0.4389 -0.0478
 6203TIP3    H140024   0.588   0.388  12.740  1.6203  0.1925  0.0837
 6203TIP3    H240025   0.488   0.294  12.804  0.5293  0.6466 -0.9298
 6204TIP3   OH240026   2.295   5.176   2.204  0.5510 -0.5490  0.0274
 6204TIP3    H140027   2.360   5.115   2.169  0.9113 -1.4402  2.1037
 6204TIP3    H240028   2.307   5.173   2.299 -1.6547  0.2449  0.4076
 6205TIP3   OH240029   0.074   4.642   3.763 -0.4594  0.0650 -0.4050
 6205TIP3    H140030   0.053   4.635   3.857 -1.0446  0.9135 -0.4619
 6205TIP3    H240031   0.003   4.694   3.727 -0.0790 -0.0113 -1.2779
 6206TIP3   OH240032   6.426   5.879   0.862 -0.4429  0.4598 -0.3164
 6206TIP3    H140033   6.341   5.834   0.870  0.1137 -0.5066  0.3793
 6206TIP3    H240034   6.488   5.819   0.903  0.1332  2.5347  2.0700
 6207TIP3   OH240035   3.827   0.985   6.177  0.0359  0.2627  0.0639
 6207TIP3    H140036   3.848   0.952   6.089 -1.3324 -1.1964  0.2210
 6207TIP3    H240037   3.781   0.912   6.219 -0.3220  1.3261  1.6058
 6208TIP3   OH240038   6.209   2.675   0.355  0.1446 -0.5411  0.0777
 6208TIP3    H140039   6.231   2.753   0.303  1.5905 -0.4568  0.7617
 6208TIP3    H240040   6.158   2.708   0.428  0.1259 -0.3352 -0.0274
 6209TIP3   OH240041   4.084   3.283   0.902 -0.1875 -0.1287  0.3926
 6209TIP3    H140042   4.095   3.336   0.981 -0.3469 -0.1160  0.4075
 6209TIP3    H240043   4.098   3.193   0.931 -0.8507 -0.1814  0.5645
 6210TIP3   OH240044   0.566   4.389  13.589 -0.9303 -0.2342 -0.0181
 6210TIP3    H140045   0.558   4.384  13.684  0.5690  3.3187  0.4417
 6210TIP3    H240046   0.502   4.455  13.562 -0.8055 -0.6324 -1.3953
 6211TIP3   OH240047   0.009   2.380   1.769  0.0450 -0.2023 -0.0138
 6211TIP3    H140048  -0.065   2.385   1.830  0.9678  0.6943  1.0876
 6211TIP3    H240049   0.067   2.451   1.796  0.7733 -0.1512 -1.5943
 6212TIP3   OH240050   5.499   2.317   3.945  0.5456  0.3083 -0.2452
 6212TIP3    H140051   5.557   2.393   3.934 -0.4522  1.4493  1.6775
 6212TIP3    H240052   5.462   2.303   3.859  0.1195  2.6104 -0.5218
 6213TIP3   OH240053   4.584   0.571  14.695 -0.2106  0.5115 -0.1340
 6213TIP3    H140054   4.541   0.640  14.746  0.8787  0.3666  1.0238
 6213TIP3    H240055   4.527   0.558  14.620 -0.5856  2.4990 -0.2525
 6214TIP3   OH240056   5.459   5.462  13.415  0.2045 -0.3082  0.0728
 6214TIP3    H140057   5.508   5.462  13.498  1.5730 -0.9036 -0.7041
 6214TIP3    H240058   5.463   5.371  13.385 -1.6660 -0.4543  0.0998
 6215TIP3   OH240059   3.791   5.079   2.296 -0.0795 -0.3758  0.2743
 6215TIP3    H140060   3.699   5.071   2.270 -0.2566 -0.8609  0.9964
 6215TIP3    H240061   3.787   5.117   2.384  0.5631  2.8592 -0.9602
 6216TIP3   OH240062   6.510   6.373  15.998 -0.4645 -0.2971  0.2621
 6216TIP3    H140063   6.423   6.364  15.960 -0.3086  1.7895 -0.7860
 6216TIP3    H240064   6.570   6.345  15.928 -0.2589 -0.1720  0.3852
 6217TIP3   OH240065   0.799   1.276   3.504 -0.4382 -0.0272 -0.5071
 6217TIP3    H140066   0.797   1.356   3.453 -1.8559 -0.7220 -1.6240
 6217TIP3    H240067   0.736   1.218   3.461 -0.1329 -1.4148  0.7994
 6218TIP3   OH240068   2.191   4.022  13.490 -0.0220 -0.1747  0.4884
 6218TIP3    H140069   2.126   4.023  13.420 -0.1877  1.0484  0.6360
 6218TIP3    H240070   2.264   4.074  13.455  0.8907 -1.4855  0.3418
 6219TIP3   OH240071   3.491   6.382  14.509  0.1765  0.2801  0.6812
 6219TIP3    H140072   3.552   6.316  14.542  2.2693  1.9596  0.3826
 6219TIP3    H240073   3.523   6.404  14.421 -1.4877  0.5112  0.0777
 6220TIP3   OH240074   6.133   4.890   4.047 -0.2334 -0.3392 -0.0322
 6220TIP3    H140075   6.152   4.796   4.048 -0.0969 -0.3235 -0.5783
 6220TIP3    H240076   6.206   4.928   3.997 -0.4599  0.0146 -0.0935
 6221TIP3   OH240077   5.536   1.117   0.637 -0.4815 -0.9481 -0.2453
 6221TIP3    H140078   5.483   1.145   0.712 -1.0120 -2.7239  0.0938
 6221TIP3    H240079   5.625   1.113   0.671 -0.4856 -0.2673 -0.1450
 6222TIP3   OH240080   5.800   5.634  13.597  0.2531 -0.3034  0.2232
 6222TIP3    H140081   5.801   5.725  13.628  0.1140  0.0501 -0.7829
 6222TIP3    H240082   5.859   5.589  13.658 -0.3351  0.2703  1.2562
 6223TIP3   OH240083   6.493   1.002   4.803  0.2682 -0.7894  0.1063
 6223TIP3    H140084   6.423   1.041   4.752  1.1058 -1.5124 -1.6951
 6223TIP3    H240085   6.565   1.066   4.799  0.6426 -1.2298 -0.4029
 6224TIP3   OH240086   5.960   0.067   2.366 -0.2297 -0.5049 -0.6236
 6224TIP3    H140087   5.968   0.139   2.303 -1.0951 -0.5896 -0.8467
 6224TIP3    H240088   5.901   0.004   2.324 -0.2272 -0.9071 -0.0422
 6225TIP3   OH240089   1.683   0.119   4.656 -0.5812  0.1963 -0.0601
 6225TIP3    H140090   1.738   0.194   4.633 -0.8527  0.1386 -0.9439
 6225TIP3    H240091   1.598   0.138   4.617 -1.1057  0.1360  1.0343
 6226TIP3   OH240092   3.824   1.352  10.536  0.4485  0.4461 -0.1892
 6226TIP3    H140093   3.902   1.314  10.495 -0.2511 -2.2469  0.8179
 6226TIP3    H240094   3.853   1.437  10.568  1.7891  1.4760 -3.6011
 6227TIP3   OH240095   6.529   1.670  12.171  0.0193  0.0234  0.1206
 6227TIP3    H140096   6.622   1.688  12.156  0.1773 -0.5018  0.4597
 6227TIP3    H240097   6.496   1.751  12.212  0.2942  0.2609 -0.1260
 6228TIP3   OH240098   6.623   1.328   5.393  0.1003 -0.5936 -0.6091
 6228TIP3    H140099   6.641   1.392   5.324 -2.0584  1.7648  0.8479
 6228TIP3    H240100   6.551   1.276   5.359  1.8771 -2.4257 -1.8084
 6229TIP3   OH240101   5.110   1.655   4.009 -0.1562 -0.4050 -0.0202
 6229TIP3    H140102   5.077   1.639   4.098  0.4067 -3.6365 -0.2803
 6229TIP3    H240103   5.191   1.705   4.023 -0.4336 -0.2730  1.2267
 6230TIP3   OH240104   5.249   0.438   5.590  0.2949 -0.2367 -0.3185
 6230TIP3    H140105   5.231   0.492   5.667 -1.2388  1.6428 -1.9004
 6230TIP3    H240106   5.164   0.402   5.565  0.7972 -0.9286 -1.0871
 6231TIP3   OH240107   5.821   6.589   2.290  0.7147  0.0277  0.2484
 6231TIP3    H140108   5.868   6.508   2.273  0.2693 -0.2755  0.4538
 6231TIP3    H240109   5.765   6.569   2.366  0.1113  0.3219 -0.1129
 6232TIP3   OH240110   5.805   2.336  12.333 -0.0862  0.6243  0.1952
 6232TIP3    H140111   5.779   2.412  12.386 -2.4852  2.9758 -3.8358
 6232TIP3    H240112   5.859   2.373  12.263 -2.2257 -1.0629 -2.5402
 6233TIP3   OH240113   5.312   6.601  10.645  0.0433 -0.1759  0.0705
 6233TIP3    H140114   5.286   6.510  10.655 -0.8866 -0.0863 -1.3189
 6233TIP3    H240115   5.327   6.631  10.735 -0.4707 -1.4496  0.6106
 6234TIP3   OH240116   5.676   5.970   1.526 -0.3208  0.3154  0.3010
 6234TIP3    H140117   5.734   5.912   1.477 -2.2334 -0.9603 -0.5753
 6234TIP3    H240118   5.686   6.055   1.484 -0.5945 -0.3643 -1.1933
 6235TIP3   OH240119   3.664   1.532  16.215 -0.5931  0.0580  0.0937
 6235TIP3    H140120   3.749   1.487  16.206 -0.8900 -0.6644  0.7559
 6235TIP3    H240121   3.603   1.463  16.239 -1.1779  0.7274  0.5951
 6236TIP3   OH240122   2.857   0.943   1.197  0.0007  0.1356 -0.5280
 6236TIP3    H140123   2.825   1.023   1.153 -0.7374 -0.6915 -1.5510
 6236TIP3    H240124   2.948   0.962   1.217  0.5182  0.4267 -2.8408
 6237TIP3   OH240125   0.755   1.641   0.835  0.0924 -0.2034  0.2744
 6237TIP3    H140126   0.773   1.696   0.759  0.4980 -0.4488  0.1859
 6237TIP3    H240127   0.691   1.690   0.886 -0.8788 -0.4551 -0.6755
 6238TIP3   OH240128   3.049   6.468  11.752  0.3690  0.1466  0.3354
 6238TIP3    H140129   3.046   6.395  11.691 -0.1367  0.3310  0.1387
 6238TIP3    H240130   3.141   6.496  11.751  0.3553  0.1654 -0.3495
 6239TIP3   OH240131   6.281   5.015   1.813  0.9770  0.0972  0.5994
 6239TIP3    H140132   6.295   5.042   1.722 -3.1952  1.8676  0.2532
 6239TIP3    H240133   6.217   4.944   1.808 -0.5465  1.2830  2.1336
 6240TIP3   OH240134   5.552   4.315  13.525  0.7878  0.4096  0.4142
 6240TIP3    H140135   5.526   4.227  13.554 -1.1618  0.7715 -0.0821
 6240TIP3    H240136   5.503   4.329  13.444  4.3121  0.3443 -1.9508
 6241TIP3   OH240137   6.487   0.056   3.038 -0.3481 -0.1355 -0.3603
 6241TIP3    H140138   6.406   0.104   3.021 -1.6370 -2.3539 -0.8819
 6241TIP3    H240139   6.489  -0.013   2.971  1.9679 -0.1840 -0.3392
 6242TIP3   OH240140   4.129   5.659  16.205 -0.1365  0.6557  0.5326
 6242TIP3    H140141   4.164   5.608  16.278  0.1921  1.8038  1.2130
 6242TIP3    H240142   4.144   5.750  16.230 -0.4982  1.0939 -0.7409
 6243TIP3   OH240143   2.330   5.772   5.654  0.5001  0.4188 -0.1883
 6243TIP3    H140144   2.284   5.688   5.652  1.0574  0.1028  0.0667
 6243TIP3    H240145   2.421   5.749   5.671  0.2332  1.2218  2.7999
 6244TIP3   OH240146   3.168   6.351   0.581 -0.5090  0.1885  0.1782
 6244TIP3    H140147   3.134   6.305   0.505 -0.4581  0.5946 -0.0965
 6244TIP3    H240148   3.255   6.314   0.595 -0.8658 -0.5192  0.5957
 6245TIP3   OH240149   0.724   6.086  13.893  0.1206 -0.5386 -0.4819
 6245TIP3    H140150   0.769   6.008  13.926 -0.4667 -0.7133 -0.0776
 6245TIP3    H240151   0.795   6.147  13.871  0.6391  0.6907  3.6303
 6246TIP3   OH240152   2.924   4.599  13.939 -0.7189  0.5631 -0.0126
 6246TIP3    H140153   2.877   4.676  13.970 -0.7169  0.7323 -0.4321
 6246TIP3    H240154   2.981   4.575  14.012 -1.8864 -0.0096  0.7513
 6247TIP3   OH240155   1.667   0.440   3.981  0.2372  0.2003  0.0176
 6247TIP3    H140156   1.718   0.474   3.908  1.4069  0.2315  0.8266
 6247TIP3    H240157   1.581   0.481   3.972  0.7869  1.2563 -0.5633
 6248TIP3   OH240158   1.287   0.686   1.756  0.0758 -0.7663  0.2672
 6248TIP3    H140159   1.345   0.761   1.772 -1.4477  1.0665 -2.1452
 6248TIP3    H240160   1.199   0.718   1.776 -0.5117 -2.3803  0.4645
 6249TIP3   OH240161   5.117   4.050  13.623  0.0876 -0.0634 -0.2937
 6249TIP3    H140162   5.115   4.137  13.663 -0.4388 -0.3162  0.2523
 6249TIP3    H240163   5.189   4.004  13.667  0.5087  0.1582 -0.7370
 6250TIP3   OH240164   3.003   0.228   4.320  0.0484  0.4714  0.1370
 6250TIP3    H140165   3.017   0.281   4.398  1.1081 -0.3171  0.5077
 6250TIP3    H240166   3.029   0.284   4.247  1.5918  0.3421  0.5528
 6251TIP3   OH240167   3.558   1.592   4.203  0.0853 -0.0629 -0.1193
 6251TIP3    H140168   3.614   1.633   4.269 -0.5402 -1.9241  1.6551
 6251TIP3    H240169   3.471   1.590   4.243 -0.6719  0.2202 -1.6797
 6252TIP3   OH240170   0.090   3.768  14.532 -0.1673  0.3806  0.7590
 6252TIP3    H140171   0.017   3.741  14.476  0.1313  0.5071  0.3000
 6252TIP3    H240172   0.103   3.861  14.512 -0.0814  0.4394  1.0732
 6253TIP3   OH240173   2.924   0.902   2.120 -0.4464 -0.7764  0.4460
 6253TIP3    H140174   2.949   0.969   2.184 -2.0579  1.0069 -0.6725
 6253TIP3    H240175   2.828   0.902   2.123 -0.5137 -1.6641 -0.9836
 6254TIP3   OH240176   5.264   4.442  15.245 -0.0245  0.3494 -0.3022
 6254TIP3    H140177   5.318   4.516  15.218  0.2276  0.5774  0.7619
 6254TIP3    H240178   5.204   4.427  15.172 -0.5535  2.0732 -0.2585
 6255TIP3   OH240179   3.385   5.542   5.397  0.0129  0.0097  0.0779
 6255TIP3    H140180   3.333   5.478   5.445  0.4298  0.0652  0.6231
 6255TIP3    H240181   3.467   5.548   5.447  1.0295 -0.9456 -1.4040
 6256TIP3   OH240182   4.981   6.688   2.744 -0.7968 -0.2811 -0.8054
 6256TIP3    H140183   4.957   6.780   2.755  2.2461  0.3707  1.9822
 6256TIP3    H240184   5.046   6.688   2.674  0.1887 -0.0270  0.0801
 6257TIP3   OH240185   0.818   4.037  15.804  0.1097  0.4482 -0.0146
 6257TIP3    H140186   0.873   4.017  15.880  1.0148 -0.8520 -0.9497
 6257TIP3    H240187   0.730   4.044  15.839  0.1569 -2.2513  0.9331
 6258TIP3   OH240188   6.345   3.764  11.370  0.6409  0.2253  0.1546
 6258TIP3    H140189   6.267   3.820  11.366  1.1290  0.9663  0.7823
 6258TIP3    H240190   6.310   3.676  11.378 -0.1426  0.5176  0.0595
 6259TIP3   OH240191   1.201   5.966   3.292  0.4806  0.6424 -0.0779
 6259TIP3    H140192   1.176   5.902   3.358  2.1855  0.6229  0.6176
 6259TIP3    H240193   1.290   5.940   3.266  0.1489  1.1116 -1.8165
 6260TIP3   OH240194   5.614   3.999  16.194 -0.2265 -0.2674  0.2964
 6260TIP3    H140195   5.565   4.081  16.190 -3.2503 -1.7597  2.6789
 6260TIP3    H240196   5.599   3.959  16.108  1.3282  1.5680 -0.9217
 6261TIP3   OH240197   2.280   4.585  12.119  0.1516  0.3179  0.0423
 6261TIP3    H140198   2.301   4.521  12.051 -1.3804 -0.7551  0.5196
 6261TIP3    H240199   2.255   4.532  12.195  1.0582  1.4905  1.2163
 6262TIP3   OH240200   6.259   2.364  11.417  0.5973  0.2929  0.1707
 6262TIP3    H140201   6.326   2.311  11.459  1.6443  3.1550  2.4206
 6262TIP3    H240202   6.181   2.353  11.472  0.5374  0.3488  0.0976
 6263TIP3   OH240203   4.370   4.045   4.646 -0.1130 -0.0846 -0.1907
 6263TIP3    H140204   4.432   4.017   4.580  1.5065 -0.1650  1.2877
 6263TIP3    H240205   4.285   4.016   4.613  1.0166 -3.5223 -0.4977
 6264TIP3   OH240206   2.550   4.361   0.466 -0.1833  0.6880 -0.1241
 6264TIP3    H140207   2.620   4.382   0.527  0.2271  0.2863 -0.4580
 6264TIP3    H240208   2.558   4.426   0.396  0.1205  0.3828 -0.3749
 6265TIP3   OH240209   2.111   3.252   1.943  0.0658 -0.3438  0.1405
 6265TIP3    H140210   2.031   3.275   1.898  0.2660  0.5793  0.2364
 6265TIP3    H240211   2.181   3.293   1.892  0.5931 -2.0261 -0.5569
 6266TIP3   OH240212   2.701   4.082   4.945 -0.4032  0.3341 -0.0856
 6266TIP3    H140213   2.765   4.075   5.016 -2.4653  2.2818  2.1935
 6266TIP3    H240214   2.709   4.000   4.897  1.7269 -0.7397  1.8805
 6267TIP3   OH240215   6.389   3.305   4.708 -0.3010  0.2391 -0.1750
 6267TIP3    H140216   6.361   3.323   4.619 -1.0336  0.5913  0.1164
 6267TIP3    H240217   6.475   3.345   4.715 -0.4458  0.6273 -0.5852
 6268TIP3   OH240218   1.092   2.876   2.733 -0.0744  0.0283 -0.4121
 6268TIP3    H140219   1.152   2.948   2.754 -0.6430  0.6127 -0.7834
 6268TIP3    H240220   1.061   2.845   2.818  0.5791 -0.1463 -0.2230
 6269TIP3   OH240221   2.177   5.893   0.895  0.8509  1.0522 -0.2212
 6269TIP3    H140222   2.263   5.852   0.883  1.0163  0.8870  1.3083
 6269TIP3    H240223   2.182   5.933   0.982 -1.3681 -0.9533  0.9194
 6270TIP3   OH240224   0.060   6.571   2.497 -0.0153  0.4500  0.2644
 6270TIP3    H140225   0.067   6.568   2.593  2.1706  1.6327  0.2036
 6270TIP3    H240226   0.005   6.647   2.480 -1.2319 -0.3387  0.5712
 6271TIP3   OH240227   4.103   3.166   4.694 -0.1136  0.3546 -0.3523
 6271TIP3    H140228   4.090   3.102   4.764 -2.5936  0.1775 -0.8964
 6271TIP3    H240229   4.109   3.250   4.739  1.0646 -0.0215  0.2256
 6272TIP3   OH240230   6.608   0.594   0.538  0.4808 -0.2571  0.3470
 6272TIP3    H140231   6.699   0.601   0.566  0.5331  0.7901 -0.0415
 6272TIP3    H240232   6.572   0.681   0.551  0.0690 -0.1533 -1.2745
 6273TIP3   OH240233   3.899   3.859  13.588 -0.1454 -0.4046  0.1176
 6273TIP3    H140234   3.955   3.892  13.517 -0.0704  0.2776  0.4855
 6273TIP3    H240235   3.944   3.781  13.620 -0.2553 -0.8075 -0.6785
 6274TIP3   OH240236   3.042   6.617  15.926 -0.2150  0.2354 -0.0950
 6274TIP3    H140237   3.015   6.650  16.011 -2.9801  0.0369 -0.8181
 6274TIP3    H240238   3.113   6.676  15.899  0.1050  0.8391  1.9254
 6275TIP3   OH240239   1.380   0.166  13.810 -0.3720  0.7283 -0.3172
 6275TIP3    H140240   1.454   0.227  13.807  0.4280 -0.2735 -2.6781
 6275TIP3    H240241   1.399   0.110  13.885  1.0261  0.8080 -0.5802
 6276TIP3   OH240242   3.035   3.909   0.076 -0.1008 -0.2080 -0.4242
 6276TIP3    H140243   2.978   3.894   0.151  0.5464 -0.7774 -0.0407
 6276TIP3    H240244   2.992   3.979   0.027 -0.5117  0.1905  0.4866
 6277TIP3   OH240245   2.004   0.621  11.530  0.6918 -0.2314 -0.2000
 6277TIP3    H140246   1.959   0.695  11.569  0.0171 -1.2176  0.9785
 6277TIP3    H240247   2.022   0.648  11.440  0.4351  1.3250  0.1840
 6278TIP3   OH240248   5.834   4.924   2.648 -0.1387 -0.3009 -0.2500
 6278TIP3    H140249   5.859   4.956   2.561  0.2792 -3.2820 -1.3595
 6278TIP3    H240250   5.910   4.875   2.678 -0.9672 -0.8907  0.9733
 6279TIP3   OH240251   5.708   6.229   5.456 -0.0302 -0.1126  0.0320
 6279TIP3    H140252   5.651   6.188   5.521  1.2953  0.1339  1.4068
 6279TIP3    H240253   5.657   6.304   5.424 -0.5283  0.0478  1.1516
 6280TIP3   OH240254   3.825   0.507   0.510 -0.2910 -0.5864  0.6640
 6280TIP3    H140255   3.740   0.501   0.466 -0.1614  0.0286  0.3068
 6280TIP3    H240256   3.879   0.558   0.449  0.2702 -0.7910  0.9831
 6281TIP3   OH240257   2.714   3.420  16.685  0.0029 -0.2264 -0.5725
 6281TIP3    H140258   2.803   3.394  16.660 -0.0603  0.4852 -1.6184
 6281TIP3    H240259   2.666   3.338  16.691  0.4788 -0.5532 -1.0914
 6282TIP3   OH240260   5.032   2.631   5.191 -0.3428 -0.8140  0.3703
 6282TIP3    H140261   5.013   2.723   5.210  2.3104 -0.4596  1.7125
 6282TIP3    H240262   5.029   2.625   5.096 -2.4112  0.1568  0.3060
 6283TIP3   OH240263   4.748   2.466  14.946  0.1227 -0.0618  0.5351
 6283TIP3    H140264   4.835   2.465  14.904  0.5532 -0.3122  1.4090
 6283TIP3    H240265   4.741   2.554  14.983 -1.1741  0.9397 -1.8631
 6284TIP3   OH240266   0.487   5.409   4.278  0.4476  0.9049  0.0731
 6284TIP3    H140267   0.480   5.427   4.184  1.5448 -1.2851 -0.4977
 6284TIP3    H240268   0.575   5.371   4.289  0.1386  0.6141  1.8837
 6285TIP3   OH240269   5.982   4.723   0.996  0.7680  0.6082  0.1584
 6285TIP3    H140270   5.940   4.809   0.991 -0.8962 -0.2312 -1.2998
 6285TIP3    H240271   5.910   4.660   1.000  1.9369 -0.7678  0.8818
 6286TIP3   OH240272   0.188   3.892  15.219  0.2059  0.4433 -0.0169
 6286TIP3    H140273   0.230   3.947  15.285 -0.4887 -0.4729  1.2297
 6286TIP3    H240274   0.103   3.934  15.203  1.0883  1.7001 -1.7508
 6287TIP3   OH240275   4.901   5.512  16.080  0.0419 -0.1943 -0.2465
 6287TIP3    H140276   4.985   5.465  16.073 -0.4589 -0.8260 -2.6586
 6287TIP3    H240277   4.913   5.591  16.027 -0.3419  0.5946  0.8123
 6288TIP3   OH240278   4.106   2.607   1.612  0.3578  0.6701  0.6326
 6288TIP3    H140279   4.013   2.628   1.617  0.6249  1.7956  1.3288
 6288TIP3    H240280   4.139   2.624   1.700  1.0185 -0.8371  0.7069
 6289TIP3   OH240281   6.428   2.197  11.533 -0.5555 -0.1081  0.7795
 6289TIP3    H140282   6.468   2.153  11.608 -1.4141 -0.4184  1.0648
 6289TIP3    H240283   6.455   2.145  11.458 -0.5015 -0.3730  0.9789
 6290TIP3   OH240284   6.146   2.310   3.865 -0.2009 -0.5777 -0.0232
 6290TIP3    H140285   6.127   2.219   3.889  0.7561 -0.6680  0.4465
 6290TIP3    H240286   6.201   2.342   3.936 -0.6056  0.4089 -0.1399
 6291TIP3   OH240287   5.057   6.560  12.900 -0.0035 -0.2063 -0.0892
 6291TIP3    H140288   5.140   6.604  12.882  0.7572 -1.0755  1.1825
 6291TIP3    H240289   5.067   6.522  12.987 -1.9061  0.0404  0.2995
 6292TIP3   OH240290   3.109   3.281  12.591 -0.0821 -0.5258 -0.2959
 6292TIP3    H140291   3.125   3.190  12.616  1.2234  0.0411  1.0999
 6292TIP3    H240292   3.127   3.332  12.671 -1.1275  0.9351 -0.9385
 6293TIP3   OH240293   3.198   4.716   2.511  0.3207  0.4013 -0.4363
 6293TIP3    H140294   3.142   4.645   2.480  0.7649 -0.2638  0.2649
 6293TIP3    H240295   3.230   4.758   2.431  0.8982 -0.8533 -0.8797
 6294TIP3   OH240296   6.628   0.984  14.440  0.1455  0.1902 -0.1155
 6294TIP3    H140297   6.576   0.917  14.395  1.6689 -1.3776  0.3241
 6294TIP3    H240298   6.704   0.998  14.383  0.6597  0.3053  0.5778
 6295TIP3   OH240299   4.801   3.717  14.739 -0.5917  0.2844  0.2904
 6295TIP3    H140300   4.767   3.648  14.683  0.5190 -1.1809  1.3432
 6295TIP3    H240301   4.742   3.791  14.724 -2.8286 -1.3835  0.3523
 6296TIP3   OH240302   5.945   4.812  13.865 -0.4127 -0.3055 -0.2894
 6296TIP3    H140303   5.875   4.850  13.917 -0.0281 -0.3007  0.2377
 6296TIP3    H240304   5.920   4.720  13.853 -0.1609 -0.4957  0.5348
 6297TIP3   OH240305   1.798   5.468   1.012 -0.0098  0.1259 -0.0073
 6297TIP3    H140306   1.884   5.427   0.999 -0.1504 -0.1911  0.0588
 6297TIP3    H240307   1.754   5.411   1.075 -0.0783  0.5672  0.3513
 6298TIP3   OH240308   5.739   4.937   5.181  0.0570 -0.3748 -0.5050
 6298TIP3    H140309   5.758   5.017   5.133 -0.5440  0.2512  0.2637
 6298TIP3    H240310   5.814   4.880   5.164  0.5175  0.3677 -1.0198
 6299TIP3   OH240311   5.625   1.632   0.498  0.3471 -0.1058 -0.5339
 6299TIP3    H140312   5.717   1.647   0.476 -0.2671 -0.3643 -3.8438
 6299TIP3    H240313   5.584   1.718   0.489 -0.2892 -0.5765 -2.8229
 6300TIP3   OH240314   4.992   6.684   3.887 -0.0658  0.1429  0.3381
 6300TIP3    H140315   4.909   6.639   3.896 -0.5520  0.3520 -2.4438
 6300TIP3    H240316   5.043   6.630   3.826  1.0127  1.1112  0.3413
 6301TIP3   OH240317   4.324   5.855  12.024  0.9832  0.3445 -0.2197
 6301TIP3    H140318   4.391   5.878  11.959  0.6038  1.8804 -0.0931
 6301TIP3    H240319   4.272   5.787  11.981  2.1276 -0.3050 -0.6308
 6302TIP3   OH240320   4.624   5.555   3.733 -0.4366 -0.3161  0.6043
 6302TIP3    H140321   4.695   5.617   3.748 -0.3179 -0.3514  0.2024
 6302TIP3    H240322   4.557   5.579   3.796  0.1016 -0.5470  1.2678
 6303TIP3   OH240323   6.096   1.678  13.420  0.4073 -0.1666  0.2286
 6303TIP3    H140324   6.119   1.648  13.332 -0.9128 -1.9730  0.4343
 6303TIP3    H240325   6.143   1.619  13.479  2.1387  1.6932  0.8127
 6304TIP3   OH240326   3.105   6.293  15.109  0.5536 -0.7863 -0.1985
 6304TIP3    H140327   3.052   6.345  15.170  1.1142 -0.0633 -0.3058
 6304TIP3    H240328   3.041   6.244  15.057  0.0256 -0.5160  0.1823
 6305TIP3   OH240329   4.344   3.855  12.605  0.1815  0.1657  0.9318
 6305TIP3    H140330   4.346   3.832  12.698 -1.2011  0.5433  1.0843
 6305TIP3    H240331   4.360   3.773  12.559  1.1126  0.0202  1.5031
 6306TIP3   OH240332   3.890   3.981   0.084  0.5301 -0.0717  0.0864
 6306TIP3    H140333   3.876   3.909   0.023 -0.5020 -1.5088  1.9241
 6306TIP3    H240334   3.812   4.037   0.073  0.8086  0.2043 -0.5581
 6307TIP3   OH240335   2.683   4.495  14.657 -0.2721  0.2818 -0.0711
 6307TIP3    H140336   2.720   4.579  14.629 -0.1890 -0.1916 -1.4638
 6307TIP3    H240337   2.594   4.495  14.620  0.3934 -1.0388 -1.7771
 6308TIP3   OH240338   3.042   1.752  14.443  0.3487  0.3715 -0.0604
 6308TIP3    H140339   3.048   1.839  14.482 -1.1217  0.2513  0.4969
 6308TIP3    H240340   3.044   1.767  14.348  0.2278  0.9997  0.0369
 6309TIP3   OH240341   0.132   0.681   4.619  0.4392 -0.0741 -0.0531
 6309TIP3    H140342   0.099   0.628   4.692 -0.9930  0.9486  0.0699
 6309TIP3    H240343   0.144   0.768   4.656 -0.6589  0.5549 -1.0982
 6310TIP3   OH240344   0.459   3.228  16.074  0.7122  0.0703 -0.8013
 6310TIP3    H140345   0.421   3.294  16.016  2.6375  1.4187 -0.6338
 6310TIP3    H240346   0.553   3.233  16.057  1.1364 -0.8524  1.0372
 6311TIP3   OH240347   5.468   3.147  14.241 -1.0335  0.5884 -0.7475
 6311TIP3    H140348   5.374   3.166  14.240 -0.8719  1.5021 -0.1283
 6311TIP3    H240349   5.478   3.083  14.311 -1.3948 -0.7593 -1.8929
 6312TIP3   OH240350   3.474   1.222  14.757 -0.2975  0.4835 -1.0417
 6312TIP3    H140351   3.379   1.238  14.759 -0.9241 -2.6372  0.1474
 6312TIP3    H240352   3.511   1.291  14.812 -2.2595  0.1579  0.8480
 6313TIP3   OH240353   1.625   0.683   4.508 -0.1030 -0.2423 -0.7883
 6313TIP3    H140354   1.690   0.718   4.446 -0.0013 -1.2932 -1.2923
 6313TIP3    H240355   1.565   0.757   4.523  1.6573  1.0291  0.3596
 6314TIP3   OH240356   5.624   0.248  11.030  0.5131 -0.1210  0.8012
 6314TIP3    H140357   5.674   0.304  11.090  0.9492 -0.1937  0.5056
 6314TIP3    H240358   5.685   0.227  10.960 -0.4065  1.1969 -0.4774
 6315TIP3   OH240359   0.966   1.040   3.033 -0.0583 -0.6513  0.0091
 6315TIP3    H140360   0.936   0.951   3.012 -0.6650 -0.7448  1.1977
 6315TIP3    H240361   0.885   1.090   3.043  0.2846  0.2341 -1.3740
 6316TIP3   OH240362   2.052   2.930   1.499 -0.0087 -0.4548 -0.4442
 6316TIP3    H140363   1.987   2.968   1.441  0.8194  0.4437 -0.8214
 6316TIP3    H240364   2.129   2.918   1.444  0.8368  0.5200  0.4783
 6317TIP3   OH240365   3.092   6.271   5.017  0.0385 -0.5955  0.3336
 6317TIP3    H140366   3.144   6.246   4.941 -0.8380 -2.7112  0.3787
 6317TIP3    H240367   3.150   6.328   5.068  1.2607 -0.5845 -1.0116
 6318TIP3   OH240368   1.930   1.445  15.640 -0.2839  0.0016 -0.2051
 6318TIP3    H140369   1.845   1.481  15.617 -0.0159 -0.2920 -1.7725
 6318TIP3    H240370   1.970   1.422  15.556  0.3659 -2.1081  0.6109
 6319TIP3   OH240371   4.316   4.446  15.509  0.5996 -0.7227 -0.6349
 6319TIP3    H140372   4.382   4.449  15.578 -1.4424 -1.9764  1.4911
 6319TIP3    H240373   4.284   4.536  15.502  0.9737 -0.5461 -0.1339
 6320TIP3   OH240374   6.733   0.672   4.346 -0.2780 -0.1787 -0.1582
 6320TIP3    H140375   6.807   0.701   4.292 -0.8216  0.6437 -0.4756
 6320TIP3    H240376   6.671   0.635   4.283 -0.9274  0.8105 -0.1188
 6321TIP3   OH240377   3.613   3.724   5.086 -0.1000 -0.0781  0.0480
 6321TIP3    H140378   3.661   3.651   5.126 -0.1351 -1.5826 -2.4463
 6321TIP3    H240379   3.524   3.716   5.119 -0.0784 -1.1413 -0.1130
 6322TIP3   OH240380   3.536   6.378   3.343  0.2376 -0.3726  0.0201
 6322TIP3    H140381   3.455   6.422   3.370  0.6338  0.3032  0.1238
 6322TIP3    H240382   3.606   6.439   3.367  0.7433 -0.7062 -0.5683
 6323TIP3   OH240383   5.290   0.354  14.463 -0.5732 -0.0526  0.2380
 6323TIP3    H140384   5.298   0.412  14.539 -0.0336  2.8327 -1.8228
 6323TIP3    H240385   5.289   0.414  14.388  0.5195 -2.7882 -2.1519
 6324TIP3   OH240386   4.226   1.283   0.601 -0.5900  0.1272  0.1363
 6324TIP3    H140387   4.238   1.189   0.616  0.5000 -0.6817 -4.1776
 6324TIP3    H240388   4.133   1.292   0.580 -0.4977 -0.2175 -0.4442
 6325TIP3   OH240389   0.925   5.388  16.561  0.1367 -0.6348  0.3043
 6325TIP3    H140390   0.936   5.359  16.651  0.6097 -1.9223 -0.1372
 6325TIP3    H240391   0.979   5.466  16.553 -1.6285  0.8108  1.7030
 6326TIP3   OH240392   3.833   3.468   2.221 -0.6369 -0.1904  0.7380
 6326TIP3    H140393   3.763   3.441   2.281  0.1058 -0.6258  1.4231
 6326TIP3    H240394   3.791   3.530   2.162 -1.2855  0.5884  1.9750
 6327TIP3   OH240395   0.629   0.797  12.810  0.3452 -0.4778  0.2180
 6327TIP3    H140396   0.717   0.780  12.842  0.3320  1.3622  1.3877
 6327TIP3    H240397   0.575   0.729  12.852  1.2840 -2.3740 -1.4402
 6328TIP3   OH240398   2.592   0.050   1.285 -0.4796 -0.1025  0.3369
 6328TIP3    H140399   2.650   0.114   1.325 -0.1256  1.1929 -2.0336
 6328TIP3    H240400   2.637  -0.034   1.297 -0.1366  0.2884  2.0345
 6329TIP3   OH240401   1.924   3.805  13.477 -0.0841  0.1452 -0.3070
 6329TIP3    H140402   1.932   3.756  13.559 -1.7814  1.2892  0.6118
 6329TIP3    H240403   1.993   3.770  13.420  0.3062 -1.5629  1.1561
 6330TIP3   OH240404   5.031   0.580  17.010  0.0205 -0.4124  0.0162
 6330TIP3    H140405   5.075   0.524  17.074  2.6273 -0.6134 -1.8074
 6330TIP3    H240406   5.084   0.660  17.007 -0.0991 -0.3658 -1.7954
 6331TIP3   OH240407   1.039   2.362  11.741  0.0469  0.2659 -0.4289
 6331TIP3    H140408   1.049   2.268  11.730  0.2819  0.1297  0.7941
 6331TIP3    H240409   1.053   2.398  11.654  1.7963 -0.6864 -0.5866
 6332TIP3   OH240410   2.584   5.962  14.327 -0.0514  0.0945  0.2586
 6332TIP3    H140411   2.558   6.046  14.365 -0.7165  0.5446 -1.1261
 6332TIP3    H240412   2.502   5.914  14.316  0.1732 -0.1870 -0.2219
 6333TIP3   OH240413   5.138   1.248  14.691 -0.2982  0.2560  0.3033
 6333TIP3    H140414   5.191   1.285  14.762 -0.0463  0.0284  0.2363
 6333TIP3    H240415   5.066   1.204  14.735  0.7145 -1.2557  0.5051
 6334TIP3   OH240416   4.124   4.392  12.963  0.3908  0.4282 -0.0868
 6334TIP3    H140417   4.100   4.483  12.950  0.5136  0.3116 -1.2965
 6334TIP3    H240418   4.216   4.394  12.987  0.1148  0.6762  0.9689
 6335TIP3   OH240419   3.719   2.316   3.519 -0.1025 -0.4203 -0.7632
 6335TIP3    H140420   3.782   2.375   3.560  1.5159 -1.4393 -1.6615
 6335TIP3    H240421   3.739   2.230   3.556 -1.6009 -0.6329 -0.3857
 6336TIP3   OH240422   4.944   6.536  13.420  0.1995  0.2443 -0.5652
 6336TIP3    H140423   5.034   6.562  13.403  1.2449 -2.8988 -0.4394
 6336TIP3    H240424   4.929   6.560  13.511  0.2148  2.4434 -1.0981
 6337TIP3   OH240425   1.257   5.420   3.360 -0.6112  0.5058 -0.6324
 6337TIP3    H140426   1.297   5.474   3.292 -0.9493  1.6613  0.0448
 6337TIP3    H240427   1.164   5.444   3.358 -0.7617 -0.0269 -0.2915
 6338TIP3   OH240428   2.616   3.769   1.980 -0.2090 -0.0268 -0.0418
 6338TIP3    H140429   2.532   3.746   1.940 -0.5878  0.7899  0.2612
 6338TIP3    H240430   2.678   3.767   1.907 -0.6216  0.0427 -0.4036
 6339TIP3   OH240431   3.835   3.857  13.057 -0.6978 -0.5835 -0.4450
 6339TIP3    H140432   3.753   3.873  13.010 -0.6271 -2.1090 -1.1254
 6339TIP3    H240433   3.836   3.763  13.073  0.1628 -0.3601  1.0263
 6340TIP3   OH240434   1.208   1.788   3.669 -0.0064 -0.0365  0.2095
 6340TIP3    H140435   1.139   1.790   3.603  1.3417  0.5269 -1.2431
 6340TIP3    H240436   1.289   1.775   3.619  0.8168 -2.5281  1.9923
 6341TIP3   OH240437   1.037   2.758  12.939  0.1586  0.4008  0.4559
 6341TIP3    H140438   1.049   2.776  12.845  0.2090  0.2966  0.4416
 6341TIP3    H240439   1.008   2.841  12.976  1.0384  0.6959  0.5142
 6342TIP3   OH240440   4.433   0.254   1.769  0.3452  0.5784  0.2379
 6342TIP3    H140441   4.392   0.291   1.691  1.3666  0.5550 -0.3249
 6342TIP3    H240442   4.374   0.184   1.796 -1.7611  2.6684  1.4529
 6343TIP3   OH240443   4.128   2.134   5.733 -0.1937  0.1252  0.2291
 6343TIP3    H140444   4.207   2.187   5.723 -0.7796  1.1714  0.9365
 6343TIP3    H240445   4.154   2.047   5.706  0.7609  0.8005 -1.1552
 6344TIP3   OH240446   1.893   5.092   4.455 -0.4557  0.3495  0.2902
 6344TIP3    H140447   1.964   5.152   4.435 -1.4218  0.9286 -1.7471
 6344TIP3    H240448   1.845   5.134   4.527 -0.1722  1.2303 -0.0162
 6345TIP3   OH240449   3.778   6.392  12.592 -0.2869  0.6460  0.1305
 6345TIP3    H140450   3.804   6.321  12.651 -0.7741  1.6723  1.6612
 6345TIP3    H240451   3.822   6.373  12.510  2.6895  0.5586  1.6178
 6346TIP3   OH240452   4.914   6.240   3.404 -0.0265 -0.1958 -0.5884
 6346TIP3    H140453   4.910   6.317   3.347 -1.9830  0.9746  1.0130
 6346TIP3    H240454   4.854   6.178   3.364 -1.0865  0.4680 -0.0571
 6347TIP3   OH240455   0.600   0.429  11.815  0.2454 -0.1747  0.0643
 6347TIP3    H140456   0.587   0.362  11.747  1.4210  1.4850 -1.8941
 6347TIP3    H240457   0.528   0.491  11.801  0.1444 -0.1267  0.7622
 6348TIP3   OH240458   6.753   4.924   4.312  0.1545 -0.1930 -0.1909
 6348TIP3    H140459   6.792   4.954   4.230 -2.2518  1.7246 -0.7277
 6348TIP3    H240460   6.670   4.883   4.286 -1.1357  1.3292  1.3149
 6349TIP3   OH240461   0.482   5.134  14.522  0.1888  0.1284  0.3174
 6349TIP3    H140462   0.516   5.061  14.470 -1.4320 -0.9664  0.7000
 6349TIP3    H240463   0.521   5.122  14.609  0.8586  0.4306  0.0629
 6350TIP3   OH240464   4.104   3.912   4.855  0.0653  0.1897  0.5790
 6350TIP3    H140465   4.164   3.971   4.901 -0.1955  0.0147  1.1498
 6350TIP3    H240466   4.127   3.922   4.762  1.1612 -0.0866  0.8098
 6351TIP3   OH240467   3.958   4.664   4.819 -0.0677 -0.5047 -0.3072
 6351TIP3    H140468   3.917   4.730   4.875  1.0474  0.7098 -0.8584
 6351TIP3    H240469   3.899   4.656   4.745 -0.2816 -0.2138 -0.1719
 6352TIP3   OH240470   3.261   4.222   2.983  0.6275 -0.2914  0.5383
 6352TIP3    H140471   3.343   4.220   2.934  1.2656  0.1138  1.5489
 6352TIP3    H240472   3.242   4.130   3.003 -0.2542 -0.5849 -1.3939
 6353TIP3   OH240473   6.474   6.629   2.848 -0.2801 -0.0632  0.3068
 6353TIP3    H140474   6.395   6.660   2.802  0.3346  0.9753 -0.0973
 6353TIP3    H240475   6.496   6.546   2.805 -0.7050  0.0378 -0.1109
 6354TIP3   OH240476   0.070   0.370  14.775 -0.3858 -0.3201 -0.0809
 6354TIP3    H140477   0.124   0.437  14.816  2.0580 -0.9957 -1.9159
 6354TIP3    H240478   0.036   0.318  14.848 -0.9062  1.8060  1.2755
 6355TIP3   OH240479   6.587   6.349  12.061  0.1236 -1.1631  0.2543
 6355TIP3    H140480   6.502   6.337  12.103  0.0835 -2.3937 -0.1258
 6355TIP3    H240481   6.566   6.374  11.971  0.1900 -0.1605  0.5084
 6356TIP3   OH240482   3.114   6.409   2.433  0.4413  0.1296 -0.1200
 6356TIP3    H140483   3.160   6.372   2.358  1.6229 -0.8380  1.0361
 6356TIP3    H240484   3.161   6.491   2.451  0.5964  0.0217 -0.0283
 6357TIP3   OH240485   3.260   5.969   1.239 -0.7899 -0.0662 -0.5064
 6357TIP3    H140486   3.244   5.893   1.295 -3.5688  0.4380 -0.4376
 6357TIP3    H240487   3.296   6.035   1.298 -0.1482 -0.7290 -0.1507
 6358TIP3   OH240488   3.231   5.573   3.892 -0.3008  0.6000  0.3131
 6358TIP3    H140489   3.301   5.521   3.852  0.1576 -0.0287  1.8362
 6358TIP3    H240490   3.194   5.514   3.958 -0.4645  1.8699  1.3776
 6359TIP3   OH240491   4.315   4.383   2.956 -0.2484 -0.8111  0.2660
 6359TIP3    H140492   4.402   4.366   2.921  0.1738  1.5387  0.0408
 6359TIP3    H240493   4.326   4.458   3.015 -1.7276 -1.9310  2.0858
 6360TIP3   OH240494   4.148   0.670  14.354  0.2061 -0.0085  0.3519
 6360TIP3    H140495   4.161   0.651  14.447  1.6329 -2.3428 -0.2227
 6360TIP3    H240496   4.062   0.633  14.333  0.3271 -0.4043  0.5444
 6361TIP3   OH240497   2.820   5.959   3.230  0.2584  0.1204  0.2028
 6361TIP3    H140498   2.749   5.938   3.169  1.0177 -0.6985 -0.4142
 6361TIP3    H240499   2.886   6.003   3.177  0.9989 -0.7473  0.3980
 6362TIP3   OH240500   5.385   3.613   4.886  0.6733 -0.2959 -0.7720
 6362TIP3    H140501   5.383   3.519   4.903 -0.9168 -0.5321 -2.0698
 6362TIP3    H240502   5.419   3.621   4.797 -0.0189  0.2777 -0.9942
 6363TIP3   OH240503   4.457   1.196   3.265  0.1259  0.2248  0.3264
 6363TIP3    H140504   4.523   1.149   3.214 -0.0186 -0.2313  0.5556
 6363TIP3    H240505   4.469   1.288   3.242 -0.1717 -0.0091 -0.8103
 6364TIP3   OH240506   3.036   1.296  10.722  0.7145  0.1134 -0.2710
 6364TIP3    H140507   3.066   1.378  10.763  0.6695  0.2143 -0.4400
 6364TIP3    H240508   3.050   1.229  10.790 -1.7526  0.6684  0.9060
 6365TIP3   OH240509   1.390   0.890   5.149  1.2060  0.5334 -0.3683
 6365TIP3    H140510   1.465   0.884   5.208  2.4044  1.5791 -1.6946
 6365TIP3    H240511   1.314   0.890   5.206  2.1564 -1.4238  0.9753
 6366TIP3   OH240512   2.404   6.545  14.010  0.3304 -0.1548 -0.0701
 6366TIP3    H140513   2.316   6.568  14.042 -0.2035 -0.6328 -1.1192
 6366TIP3    H240514   2.388   6.504  13.925  1.5210 -1.0016  0.0928
 6367TIP3   OH240515   0.876   5.838  16.333  0.0870 -0.2327  0.2866
 6367TIP3    H140516   0.930   5.858  16.257 -0.0759  2.2495  0.7553
 6367TIP3    H240517   0.790   5.872  16.311 -0.0310  0.2795  1.4676
 6368TIP3   OH240518   6.118   6.024   1.237  0.7070  0.3353 -0.6935
 6368TIP3    H140519   6.195   6.081   1.230  0.0345  1.1063 -2.2148
 6368TIP3    H240520   6.078   6.026   1.150  0.8523 -2.8014 -0.9470
 6369TIP3   OH240521   6.020   5.673   4.850 -0.4807 -0.2397  0.0976
 6369TIP3    H140522   6.006   5.590   4.895 -1.1280 -1.4342 -2.1613
 6369TIP3    H240523   6.107   5.702   4.879 -0.2134 -1.7316  0.8568
 6370TIP3   OH240524   6.385   0.125   0.080  0.5743  0.4454 -0.0173
 6370TIP3    H140525   6.377   0.031   0.065  1.3546  0.4016 -0.2264
 6370TIP3    H240526   6.470   0.148   0.041 -0.1863  1.4665 -1.1270
 6371TIP3   OH240527   5.007   0.891  10.938 -0.0513 -0.7879  0.2981
 6371TIP3    H140528   4.961   0.973  10.955  0.9360 -0.1471 -0.0146
 6371TIP3    H240529   5.037   0.899  10.847  0.5056 -1.2697  0.4305
 6372TIP3   OH240530   1.202   0.288  17.029 -0.0941 -1.1261  0.7885
 6372TIP3    H140531   1.281   0.334  17.056 -0.5445 -0.8588  1.6816
 6372TIP3    H240532   1.227   0.244  16.948  0.7673 -0.4915  0.6923
 6373TIP3   OH240533   4.304   1.566   4.455 -0.0104 -0.0197  0.0965
 6373TIP3    H140534   4.315   1.607   4.540 -0.0706  2.1503 -0.8764
 6373TIP3    H240535   4.382   1.512   4.444  1.1527  1.4894  0.5987
 6374TIP3   OH240536   5.493   6.268   0.274 -0.9523  0.7231 -0.1157
 6374TIP3    H140537   5.515   6.358   0.250 -0.9853  1.0492  1.0111
 6374TIP3    H240538   5.563   6.241   0.333 -0.5221 -0.2835 -1.0461
 6375TIP3   OH240539   2.776   2.582  16.957 -0.3278  0.3147 -0.6585
 6375TIP3    H140540   2.778   2.677  16.948 -0.3131  0.3979  0.1081
 6375TIP3    H240541   2.861   2.561  16.997  0.7161 -0.2933 -3.0219
 6376TIP3   OH240542   1.616   4.724  15.602  0.3399  0.9042 -0.0346
 6376TIP3    H140543   1.624   4.818  15.585  0.6831  0.9501  0.3536
 6376TIP3    H240544   1.550   4.694  15.540 -1.3963  1.8030  1.2874
 6377TIP3   OH240545   1.149   6.023   0.027 -1.0294  0.0224  0.2153
 6377TIP3    H140546   1.156   6.064   0.113 -0.3934  1.9807 -0.7132
 6377TIP3    H240547   1.229   6.048  -0.019 -1.8123 -0.0994 -1.2957
 6378TIP3   OH240548   6.251   6.622  15.252  0.3157  0.1568 -0.1986
 6378TIP3    H140549   6.173   6.652  15.204 -0.1491 -0.9922 -0.1812
 6378TIP3    H240550   6.236   6.652  15.342 -0.7092 -1.0961  0.0794
 6379TIP3   OH240551   3.720   4.237  15.961 -0.0330 -0.1939  0.6018
 6379TIP3    H140552   3.655   4.255  16.028 -0.1308  0.4334  0.3503
 6379TIP3    H240553   3.689   4.285  15.884  0.8157  0.2709  0.5341
 6380TIP3   OH240554   5.683   5.016  12.888 -0.3093 -0.5692  0.2892
 6380TIP3    H140555   5.723   5.099  12.914 -0.2143  0.3159 -2.4084
 6380TIP3    H240556   5.589   5.036  12.881 -0.2302 -0.5530 -0.8065
 6381TIP3   OH240557   2.420   1.128   3.063 -0.6095 -0.5007 -0.2366
 6381TIP3    H140558   2.374   1.049   3.034 -0.6827 -0.3796 -0.4532
 6381TIP3    H240559   2.488   1.142   2.997 -0.8460 -0.1636 -0.4108
 6382TIP3   OH240560   0.515   3.236  15.467  0.0403  0.3560  0.2263
 6382TIP3    H140561   0.553   3.279  15.390  0.6638 -2.1020 -0.9410
 6382TIP3    H240562   0.435   3.195  15.435 -1.2859  1.7221  1.6313
 6383TIP3   OH240563   5.007   4.223   3.155  0.2176 -0.4351  0.6782
 6383TIP3    H140564   5.095   4.229   3.190 -0.2991 -1.3950  2.2334
 6383TIP3    H240565   5.007   4.142   3.104  0.8497  0.7489 -1.3184
 6384TIP3   OH240566   2.155   3.248   2.455 -0.1656 -0.0204 -0.5374
 6384TIP3    H140567   2.163   3.286   2.368  0.7902  0.5540 -0.2150
 6384TIP3    H240568   2.127   3.158   2.440 -0.3680  0.1803 -1.4112
 6385TIP3   OH240569   4.148   3.791   3.865  0.0012  0.0583 -0.2417
 6385TIP3    H140570   4.213   3.843   3.912  0.2528 -1.0508  0.6696
 6385TIP3    H240571   4.148   3.706   3.909 -0.4333 -0.7147 -1.6652
 6386TIP3   OH240572   0.619   4.833   6.738  0.2481  0.2509 -0.2567
 6386TIP3    H140573   0.659   4.901   6.684  0.8624  0.1923  0.1183
 6386TIP3    H240574   0.651   4.750   6.701 -0.9964  0.1230 -1.1087
 6387TIP3   OH240575   2.581   6.686   0.670  1.2554  0.0582 -0.1941
 6387TIP3    H140576   2.603   6.703   0.579 -0.2848 -0.9609 -0.8119
 6387TIP3    H240577   2.575   6.590   0.676  0.1732  0.1516  0.6527
 6388TIP3   OH240578   5.281   2.608   1.630  0.4812  0.4534 -0.4811
 6388TIP3    H140579   5.267   2.619   1.536 -0.1637  0.9520 -0.3305
 6388TIP3    H240580   5.225   2.674   1.670  0.9217  0.3855  0.2476
 6389TIP3   OH240581   3.332   0.718  13.842 -0.0584 -0.5947 -0.1475
 6389TIP3    H140582   3.295   0.781  13.905 -0.4978  0.1975 -1.1759
 6389TIP3    H240583   3.273   0.722  13.767  2.0441  0.7152 -1.8546
 6390TIP3   OH240584   6.588   3.205   2.920  0.5218  0.6708 -0.4092
 6390TIP3    H140585   6.533   3.137   2.883 -0.5728  1.1342  0.2965
 6390TIP3    H240586   6.584   3.191   3.015  3.0894 -0.3677 -0.3608
 6391TIP3   OH240587   6.448   4.279  11.161 -0.5740  0.1578  0.2822
 6391TIP3    H140588   6.423   4.187  11.154 -1.7400  0.3576  1.4255
 6391TIP3    H240589   6.537   4.283  11.125 -0.7514 -1.2929 -0.3582
 6392TIP3   OH240590   6.136   5.022  11.954 -0.0898 -0.1120  0.3622
 6392TIP3    H140591   6.073   4.963  11.912  0.0527 -0.7915  1.0805
 6392TIP3    H240592   6.102   5.109  11.937 -0.1001 -0.3568 -1.0701
 6393TIP3   OH240593   4.112   6.624   1.343  0.1791  0.2336  0.0833
 6393TIP3    H140594   4.057   6.549   1.322 -1.2337  1.0004  0.9086
 6393TIP3    H240595   4.194   6.608   1.295  0.0531 -1.9845  0.5096
 6394TIP3   OH240596   1.397   5.736   2.440  0.1537 -0.2144  0.9431
 6394TIP3    H140597   1.465   5.800   2.417  0.3356 -0.6064  0.3682
 6394TIP3    H240598   1.349   5.722   2.359 -0.2216 -0.4140  1.1976
 6395TIP3   OH240599   6.213   5.265  11.244  0.1792 -0.0540 -0.0951
 6395TIP3    H140600   6.257   5.182  11.228 -0.6782 -0.6937  0.7628
 6395TIP3    H240601   6.237   5.320  11.169  1.3559 -0.8102 -0.3069
 6396TIP3   OH240602   1.064   3.771  15.816  0.2045  0.0696  0.0825
 6396TIP3    H140603   1.038   3.679  15.825 -0.4507  0.2434  0.0718
 6396TIP3    H240604   0.983   3.816  15.791  0.5474  0.6297 -0.0378
 6397TIP3   OH240605   0.994   0.967   1.324  0.2061 -0.4717  0.6506
 6397TIP3    H140606   0.946   1.014   1.257  0.0964 -0.2839  0.8618
 6397TIP3    H240607   0.939   0.891   1.344 -0.1334 -0.1158  1.0840
 6398TIP3   OH240608   5.984   2.198  14.070 -0.8771  0.2457  0.1797
 6398TIP3    H140609   6.039   2.211  13.994  0.1000  0.9564  0.9899
 6398TIP3    H240610   5.987   2.281  14.117 -2.1945  0.1159  0.5374
 6399TIP3   OH240611   3.620   3.481  15.379 -0.8135  0.2528 -0.5386
 6399TIP3    H140612   3.689   3.540  15.349 -0.9552  0.4239 -0.5250
 6399TIP3    H240613   3.544   3.537  15.395 -0.9962  0.0493 -0.6757
 6400TIP3   OH240614   2.272   3.555   3.468  1.0086  0.3959  0.4075
 6400TIP3    H140615   2.262   3.471   3.422 -0.7954  0.0199  1.3906
 6400TIP3    H240616   2.337   3.537   3.537  0.0393 -0.4561  1.1274
 6401TIP3   OH240617   1.744   2.390   0.839 -0.4427 -0.4205  0.1573
 6401TIP3    H140618   1.700   2.319   0.884  0.4016 -0.2285  1.3435
 6401TIP3    H240619   1.758   2.358   0.750 -1.2931 -1.1878  0.2939
 6402TIP3   OH240620   5.535   5.540  14.236  0.1941 -0.4000 -0.3137
 6402TIP3    H140621   5.513   5.452  14.205 -2.2060 -1.2495  3.2335
 6402TIP3    H240622   5.563   5.527  14.327 -0.6717  2.5304  0.4630
 6403TIP3   OH240623   2.687   3.687  13.096 -0.5127  0.0258 -0.3116
 6403TIP3    H140624   2.765   3.735  13.122  0.3393 -0.1773 -2.3060
 6403TIP3    H240625   2.616   3.751  13.098 -0.0156  0.5627  0.1341
 6404TIP3   OH240626   1.176   5.819  10.479  0.1700 -0.0676 -0.1293
 6404TIP3    H140627   1.093   5.807  10.524 -0.1379  0.5996 -0.5040
 6404TIP3    H240628   1.218   5.733  10.482 -0.5958 -0.4429 -0.0627
 6405TIP3   OH240629   5.505   0.127  16.478 -0.2684  0.2675 -0.0787
 6405TIP3    H140630   5.499   0.213  16.436  1.1945 -0.4808 -1.9302
 6405TIP3    H240631   5.434   0.076  16.440  1.5324 -0.6594 -2.4233
 6406TIP3   OH240632   4.287   3.678  16.747  0.1536  0.3832  0.1276
 6406TIP3    H140633   4.252   3.644  16.830 -0.1089  0.5829  0.1010
 6406TIP3    H240634   4.249   3.765  16.739 -0.8082 -0.0977 -0.7962
 6407TIP3   OH240635   5.529   5.734   4.241  0.1615  0.5581 -0.1320
 6407TIP3    H140636   5.594   5.671   4.275 -0.5755 -0.1033  0.0927
 6407TIP3    H240637   5.452   5.719   4.296 -0.0454  1.6330 -0.1207
 6408TIP3   OH240638   5.600   2.478   1.945  0.2633  0.3472 -0.6479
 6408TIP3    H140639   5.563   2.522   1.868 -0.0012 -1.9715 -1.9132
 6408TIP3    H240640   5.641   2.399   1.911  0.1413 -0.7702  1.5952
 6409TIP3   OH240641   3.316   5.821  15.222 -0.5727  0.2276  0.5358
 6409TIP3    H140642   3.229   5.861  15.216 -0.1359  1.7066  2.8137
 6409TIP3    H240643   3.371   5.888  15.261  0.7661 -1.8377  2.4619
 6410TIP3   OH240644   0.532   2.299   3.200  0.0350  0.0750 -0.8298
 6410TIP3    H140645   0.578   2.383   3.201 -1.2507  0.8549  1.4670
 6410TIP3    H240646   0.602   2.234   3.194  1.3138  1.2503  0.3505
 6411TIP3   OH240647   0.793   2.213  16.141  0.1370 -0.1091  0.1820
 6411TIP3    H140648   0.738   2.292  16.146 -0.2095 -0.2980 -0.4991
 6411TIP3    H240649   0.838   2.210  16.225  1.0701  1.4849 -0.2129
 6412TIP3   OH240650   6.657   0.207  16.781 -0.0495  0.6094  0.0752
 6412TIP3    H140651   6.670   0.224  16.874 -0.2549  1.2785 -0.0111
 6412TIP3    H240652   6.668   0.293  16.740  0.7325  0.1976 -0.5944
 6413TIP3   OH240653   2.664   4.131  13.650 -0.1561  0.3034  0.7095
 6413TIP3    H140654   2.701   4.050  13.685  0.5421  1.0088  1.6630
 6413TIP3    H240655   2.586   4.147  13.703 -1.5448 -0.8424 -0.8808
 6414TIP3   OH240656   3.683   2.682  12.065 -0.1878 -0.4283  0.0092
 6414TIP3    H140657   3.691   2.589  12.089 -0.3028 -0.3938  0.1844
 6414TIP3    H240658   3.727   2.729  12.136 -0.5711 -0.3225  0.1805
 6415TIP3   OH240659   0.154   2.268   1.307 -0.6329 -0.4045  0.1595
 6415TIP3    H140660   0.228   2.326   1.323 -0.5489 -0.7634  1.1646
 6415TIP3    H240661   0.130   2.234   1.394 -1.2916 -1.1217 -0.2779
 6416TIP3   OH240662   4.101   3.491  14.926 -0.2816  0.2711  0.2654
 6416TIP3    H140663   4.100   3.474  14.832  0.8320 -1.4267  0.5048
 6416TIP3    H240664   4.169   3.558  14.938  1.0113 -0.9348  0.0051
 6417TIP3   OH240665   5.628   1.759   3.109  0.2802  0.2015 -0.4225
 6417TIP3    H140666   5.680   1.680   3.093 -0.6077 -0.4155 -0.3142
 6417TIP3    H240667   5.666   1.797   3.188  0.5190 -0.2717 -0.3090
 6418TIP3   OH240668   1.006   0.552   2.860 -0.4308 -0.5983 -0.0746
 6418TIP3    H140669   1.058   0.529   2.937  1.6073 -0.8848 -1.4409
 6418TIP3    H240670   0.981   0.468   2.822 -0.4384 -0.4775 -0.3408
 6419TIP3   OH240671   4.510   4.576  15.643 -0.1240  0.5280 -0.1697
 6419TIP3    H140672   4.544   4.659  15.610  3.1887 -1.0134 -1.0383
 6419TIP3    H240673   4.568   4.552  15.715  1.3831 -2.6277 -2.2097
 6420TIP3   OH240674   2.155   3.663   5.498 -0.1473 -0.3678 -0.1206
 6420TIP3    H140675   2.189   3.589   5.448 -1.6014 -1.9585  1.1358
 6420TIP3    H240676   2.223   3.681   5.564  1.1728  0.8821 -1.7381
 6421TIP3   OH240677   3.597   2.067  15.008 -0.0613  0.2149  0.8506
 6421TIP3    H140678   3.619   2.148  14.962 -0.5616  0.2075  0.5902
 6421TIP3    H240679   3.508   2.083  15.042  0.1442  0.0719  1.4730
 6422TIP3   OH240680   3.852   3.971   0.693  0.2456  0.3702  0.1618
 6422TIP3    H140681   3.778   3.945   0.748  1.6642  0.4116  2.1920
 6422TIP3    H240682   3.873   3.893   0.643  1.3264 -0.9711  2.5564
 6423TIP3   OH240683   6.386   1.439   2.713 -0.0339 -0.1269 -0.2764
 6423TIP3    H140684   6.397   1.491   2.633  2.9765 -0.2800 -0.0680
 6423TIP3    H240685   6.432   1.488   2.781  1.3485 -2.1102  0.3203
 6424TIP3   OH240686   4.171   0.132  11.431 -0.6494  0.0582 -0.2698
 6424TIP3    H140687   4.205   0.213  11.392 -0.4842  0.0142 -0.2176
 6424TIP3    H240688   4.136   0.082  11.356  0.2558 -0.3169 -0.4596
 6425TIP3   OH240689   4.230   1.840  13.933 -0.1155 -0.5795  0.4271
 6425TIP3    H140690   4.283   1.761  13.946  0.7727 -0.2443 -0.9268
 6425TIP3    H240691   4.277   1.909  13.980  0.3937 -0.3966 -0.3230
 6426TIP3   OH240692   5.714   0.347  12.806  0.2592 -0.9677 -0.3682
 6426TIP3    H140693   5.774   0.397  12.751  0.3211  0.5599  0.9942
 6426TIP3    H240694   5.632   0.396  12.802  0.1609 -1.0277  0.5690
 6427TIP3   OH240695   6.585   0.302  10.642 -0.0677  0.4859 -0.0330
 6427TIP3    H140696   6.565   0.209  10.654  1.3246  0.4101  2.0150
 6427TIP3    H240697   6.680   0.306  10.632  0.0720  1.8111  1.4850
 6428TIP3   OH240698   5.450   5.138   3.013  0.1377  0.2625  0.2652
 6428TIP3    H140699   5.485   5.216   2.971  1.6279  0.9646  2.6067
 6428TIP3    H240700   5.356   5.154   3.022 -0.7239 -0.7897 -4.3504
 6429TIP3   OH240701   2.144   2.842  14.890  0.2318 -0.4171 -0.1923
 6429TIP3    H140702   2.065   2.827  14.941  0.9592 -1.7009  0.6473
 6429TIP3    H240703   2.133   2.788  14.812 -0.4090  0.6778 -0.8633
 6430TIP3   OH240704   3.027   1.549   5.431  0.9139  0.0290 -0.3384
 6430TIP3    H140705   2.992   1.608   5.499  0.4426 -0.0170 -0.5339
 6430TIP3    H240706   3.120   1.543   5.450  0.5963 -0.9969  1.0960
 6431TIP3   OH240707   4.546   6.320   0.000 -0.0132  0.1710 -0.4825
 6431TIP3    H140708   4.633   6.298   0.036 -0.0434  1.7764  0.6695
 6431TIP3    H240709   4.552   6.413  -0.019 -0.4690 -0.3385 -3.4850
 6432TIP3   OH240710   3.122   1.867   5.333 -0.2494 -0.1398  0.0450
 6432TIP3    H140711   3.173   1.896   5.409 -0.5570 -0.7256  0.4830
 6432TIP3    H240712   3.178   1.887   5.258  0.0384  0.4909  0.4170
 6433TIP3   OH240713   4.077   0.048   2.336  0.1985 -0.3372 -0.3040
 6433TIP3    H140714   4.109   0.098   2.261 -1.8761  0.9687 -0.3926
 6433TIP3    H240715   4.134   0.074   2.408 -0.9704  2.5308 -0.2650
 6434TIP3   OH240716   2.788   0.625   4.570 -0.1985 -0.2802 -0.2541
 6434TIP3    H140717   2.865   0.629   4.514  0.9850 -1.1382  1.2313
 6434TIP3    H240718   2.735   0.700   4.544  1.1988  0.4159 -1.2132
 6435TIP3   OH240719   6.164   1.200  11.386  0.0343 -0.3020 -0.1008
 6435TIP3    H140720   6.168   1.128  11.449 -0.0651  1.3900  1.9489
 6435TIP3    H240721   6.245   1.249  11.399 -0.7710  1.0817  0.0243
 6436TIP3   OH240722   0.641   6.014  15.959  0.0712  0.4734  0.1537
 6436TIP3    H140723   0.575   6.002  15.891  1.1297 -1.3326 -0.6294
 6436TIP3    H240724   0.658   6.109  15.960 -1.0987  0.7180 -0.9916
 6437TIP3   OH240725   4.246   4.221  11.057 -0.4482 -0.5995 -0.0053
 6437TIP3    H140726   4.268   4.169  10.979  0.8335 -0.2797  0.1235
 6437TIP3    H240727   4.157   4.194  11.079 -0.8616 -0.6701 -1.6067
 6438TIP3   OH240728   2.725   2.789   0.179  0.8152  0.1305 -0.0753
 6438TIP3    H140729   2.732   2.751   0.091  1.9210  0.4643 -0.1587
 6438TIP3    H240730   2.641   2.759   0.212  0.5165 -0.2510 -1.1359
 6439TIP3   OH240731   1.947   5.545   2.489 -0.8623  0.0049 -0.4691
 6439TIP3    H140732   1.872   5.556   2.432 -0.9409  0.2750 -0.3113
 6439TIP3    H240733   2.007   5.490   2.439 -1.2139 -0.3114 -0.5478
 6440TIP3   OH240734   6.187   6.118   2.313  0.0664  0.5121  0.7410
 6440TIP3    H140735   6.168   6.185   2.248 -1.5755  0.0559  0.7063
 6440TIP3    H240736   6.218   6.166   2.390  0.7871  1.1360  0.0784
 6441TIP3   OH240737   5.344   3.650  15.471  0.1034  0.1941 -0.4734
 6441TIP3    H140738   5.264   3.647  15.418  0.6578  0.1661 -1.3316
 6441TIP3    H240739   5.339   3.572  15.526  0.0849 -0.4257 -1.3414
 6442TIP3   OH240740   2.550   2.087  14.306 -0.0599 -0.0178  0.0814
 6442TIP3    H140741   2.538   2.092  14.211  0.6503  1.7805  0.0550
 6442TIP3    H240742   2.462   2.066  14.340 -0.9970  2.1753 -0.8096
 6443TIP3   OH240743   3.380   4.875  13.509  0.1144  0.7578 -0.8115
 6443TIP3    H140744   3.451   4.858  13.447 -0.3952 -0.4590 -1.0885
 6443TIP3    H240745   3.425   4.891  13.592  0.7254  0.1871 -1.0212
 6444TIP3   OH240746   3.005   5.255  12.336 -0.7086  0.1550  0.1573
 6444TIP3    H140747   3.034   5.324  12.395 -0.2709  0.9903 -0.9916
 6444TIP3    H240748   3.074   5.189  12.341 -0.6804  0.2133  0.5770
 6445TIP3   OH240749   1.862   4.829  10.715 -0.7455  0.0894  0.1910
 6445TIP3    H140750   1.826   4.742  10.695 -1.4477  0.5585 -0.6625
 6445TIP3    H240751   1.785   4.884  10.728 -0.3048  0.5515  0.9447
 6446TIP3   OH240752   3.930   0.200  13.056 -0.2302  0.4913  0.6131
 6446TIP3    H140753   3.975   0.120  13.081  0.5580  0.7990  0.2256
 6446TIP3    H240754   3.846   0.171  13.021  0.1784 -0.1901  0.1770
 6447TIP3   OH240755   4.921   1.157  14.893  0.2899  0.1388  0.0278
 6447TIP3    H140756   4.927   1.243  14.934  0.9080 -0.8757  2.2150
 6447TIP3    H240757   4.829   1.149  14.866  0.4751  1.8962 -1.2865
 6448TIP3   OH240758   1.213   0.396  12.038  0.1404  0.7550  0.1841
 6448TIP3    H140759   1.197   0.405  11.944  0.1337  0.5096  0.1617
 6448TIP3    H240760   1.147   0.333  12.068 -0.2518  1.2942  0.4626
 6449TIP3   OH240761   4.963   2.665  15.448 -0.0676 -0.2928  0.0683
 6449TIP3    H140762   5.053   2.693  15.432  0.1728 -1.3202 -0.5456
 6449TIP3    H240763   4.952   2.669  15.543 -0.1618  2.0619  0.0123
 6450TIP3   OH240764   5.251   5.018   3.463 -0.0799 -0.6737  0.2732
 6450TIP3    H140765   5.297   5.039   3.382  0.1321 -1.9363  0.0545
 6450TIP3    H240766   5.203   5.098   3.484  1.8655  0.5746  0.2901
 6451TIP3   OH240767   3.108   0.780  14.599 -0.1663  0.0344 -1.1122
 6451TIP3    H140768   3.191   0.731  14.596 -0.2567 -0.2329  0.2018
 6451TIP3    H240769   3.109   0.833  14.520  2.1222  1.4043 -0.2677
 6452TIP3   OH240770   0.859   3.324   4.791  0.4098 -0.0037 -0.1222
 6452TIP3    H140771   0.934   3.384   4.786 -0.3207  0.8320 -2.0086
 6452TIP3    H240772   0.886   3.257   4.853  2.6691  0.3332 -0.6664
 6453TIP3   OH240773   2.990   0.148  13.151  0.6728  0.5487 -0.4444
 6453TIP3    H140774   2.989   0.158  13.056 -2.3890  2.1662 -0.3859
 6453TIP3    H240775   2.936   0.070  13.168  2.0391 -0.3368 -0.0222
 6454TIP3   OH240776   3.952   4.063   2.537 -0.5326  0.0606 -0.2965
 6454TIP3    H140777   3.991   4.144   2.570 -1.0507  0.7712 -1.3719
 6454TIP3    H240778   3.989   3.994   2.592  1.9913  0.7292 -1.0270
 6455TIP3   OH240779   5.894   2.461  16.792 -0.5846  0.1128 -0.3986
 6455TIP3    H140780   5.869   2.375  16.825 -1.1668 -0.1378 -1.4595
 6455TIP3    H240781   5.897   2.517  16.870 -0.2345 -0.8495  0.2917
 6456TIP3   OH240782   2.593   0.858   4.682 -0.1192  0.1387  0.0178
 6456TIP3    H140783   2.594   0.913   4.604  0.0031  0.4246  0.2215
 6456TIP3    H240784   2.548   0.910   4.748 -0.5274 -0.2367  0.0449
 6457TIP3   OH240785   6.665   6.423   2.298 -0.0384 -0.5160  0.1019
 6457TIP3    H140786   6.684   6.499   2.354 -1.2397  0.4286 -0.7091
 6457TIP3    H240787   6.751   6.394   2.267  0.3661  1.6157 -0.9552
 6458TIP3   OH240788   5.963   5.356   0.673 -0.3627 -0.1383 -0.6832
 6458TIP3    H140789   5.907   5.403   0.613 -1.8118  0.1857  0.8402
 6458TIP3    H240790   5.921   5.365   0.759  1.5915 -0.5702  0.4096
 6459TIP3   OH240791   0.956   2.932  15.031 -0.5699  0.1914  0.3740
 6459TIP3    H140792   0.995   2.959  14.948 -2.9845 -1.0940 -1.2762
 6459TIP3    H240793   0.889   2.998  15.049  0.6100  1.0470  1.9348
 6460TIP3   OH240794   4.371   0.378   4.250 -0.1878  0.1581 -0.3065
 6460TIP3    H140795   4.389   0.472   4.238 -0.2692 -0.1277 -3.8756
 6460TIP3    H240796   4.422   0.335   4.181  0.4945 -2.5719  1.7429
 6461TIP3   OH240797   3.075   3.202   6.049  0.0812 -0.5748 -0.4643
 6461TIP3    H140798   3.090   3.122   5.999  0.0613 -1.7475  1.3201
 6461TIP3    H240799   3.157   3.251   6.042  0.1101 -0.7662 -1.5352
 6462TIP3   OH240800   3.964   0.533   1.853  0.1635  0.0616  0.3035
 6462TIP3    H140801   4.020   0.523   1.777 -0.8077 -1.5200 -0.2467
 6462TIP3    H240802   3.884   0.575   1.820 -0.0588 -0.1653  0.5416
 6463TIP3   OH240803   0.658   0.452  11.259  0.9235 -0.2675 -0.3543
 6463TIP3    H140804   0.620   0.370  11.291  1.9194  0.3334  2.6888
 6463TIP3    H240805   0.752   0.437  11.261  1.0650  0.3087 -1.7941
 6464TIP3   OH240806   4.865   6.429   2.135  0.3404  0.5626 -0.3399
 6464TIP3    H140807   4.804   6.356   2.121 -2.0901  2.8124 -2.6388
 6464TIP3    H240808   4.862   6.445   2.229 -1.6072 -0.2597 -0.2217
 6465TIP3   OH240809   3.541   1.139   1.592  0.1504 -0.3427  0.0872
 6465TIP3    H140810   3.629   1.152   1.558  0.5863 -0.2670  1.2073
 6465TIP3    H240811   3.517   1.223   1.630 -1.5600  0.5484 -2.6456
 6466TIP3   OH240812   0.450   6.756   0.352  0.4525  0.2983 -0.2486
 6466TIP3    H140813   0.539   6.777   0.379  0.5570 -0.8459  0.3864
 6466TIP3    H240814   0.397   6.829   0.384  1.1422  0.9563 -0.5774
 6467TIP3   OH240815   2.612   2.346   2.083  0.4316  0.1619  0.6646
 6467TIP3    H140816   2.585   2.282   2.148 -0.9397 -1.4496 -1.3689
 6467TIP3    H240817   2.662   2.411   2.133  1.4593 -2.1821  2.9222
 6468TIP3   OH240818   5.139   6.429  14.095  0.6164 -0.6820 -0.3212
 6468TIP3    H140819   5.063   6.375  14.114 -0.4671  0.2724 -1.7246
 6468TIP3    H240820   5.155   6.478  14.175 -0.9794 -0.0687 -0.3463
 6469TIP3   OH240821   6.659   5.262  13.170  0.0681 -0.1222  0.3970
 6469TIP3    H140822   6.577   5.294  13.132  0.2036  2.0234  1.7056
 6469TIP3    H240823   6.633   5.210  13.245 -0.1270  0.1116  0.4931
 6470TIP3   OH240824   2.769   5.135  12.382 -0.1920  0.3354  0.5456
 6470TIP3    H140825   2.745   5.208  12.440  0.0124  0.0789  0.9559
 6470TIP3    H240826   2.856   5.157  12.350  0.3591 -0.2745  1.5746
 6471TIP3   OH240827   6.407   5.272   3.504 -0.1119  0.3518  0.0816
 6471TIP3    H140828   6.437   5.326   3.578  0.7800 -0.4361  0.3255
 6471TIP3    H240829   6.470   5.291   3.435  0.3462 -0.5242  0.2443
 6472TIP3   OH240830   5.593   4.972  14.416 -0.0676  0.3574 -0.5913
 6472TIP3    H140831   5.670   4.944  14.465 -0.2113  2.6887  1.1805
 6472TIP3    H240832   5.623   5.047  14.364 -1.2430  1.9735  0.9191
 6473TIP3   OH240833   6.042   1.249   0.439  0.0303 -0.0949  0.1498
 6473TIP3    H140834   6.030   1.222   0.530  0.8249 -0.5718  0.1275
 6473TIP3    H240835   6.022   1.172   0.387 -0.9400  0.3274 -0.1231
 6474TIP3   OH240836   0.954   4.414  13.274 -0.4017  0.1095  0.2567
 6474TIP3    H140837   0.881   4.396  13.333 -0.3781  0.0998  0.2831
 6474TIP3    H240838   1.032   4.394  13.326 -0.3936 -0.5563  0.0058
 6475TIP3   OH240839   4.475   1.960   5.745  0.3106  0.0015 -0.3134
 6475TIP3    H140840   4.490   1.993   5.834 -1.2648  0.8370 -0.3284
 6475TIP3    H240841   4.521   2.021   5.688  0.0057  0.3760 -0.1594
 6476TIP3   OH240842   4.634   0.057   1.896 -0.4784 -0.2233 -0.0254
 6476TIP3    H140843   4.573   0.090   1.963  0.1983  2.1820 -0.4981
 6476TIP3    H240844   4.682  -0.013   1.940 -1.1540  0.2343  1.5159
 6477TIP3   OH240845   0.257   2.223   3.196  0.3082  0.2737 -0.2291
 6477TIP3    H140846   0.206   2.283   3.250 -0.9287 -0.8281 -0.1175
 6477TIP3    H240847   0.347   2.256   3.202 -0.3992  2.4324 -0.6541
 6478TIP3   OH240848   1.923   5.855   3.449 -0.2063  0.6722  0.2413
 6478TIP3    H140849   1.947   5.878   3.539 -0.5369 -0.4916  0.6592
 6478TIP3    H240850   1.851   5.792   3.460 -0.4620  0.7569 -0.8544
 6479TIP3   OH240851   0.378   2.584  13.514 -0.5485 -0.2366 -0.3504
 6479TIP3    H140852   0.448   2.631  13.469  0.2887 -0.9638  0.1637
 6479TIP3    H240853   0.325   2.653  13.555  1.6443  0.2557  1.8645
 6480TIP3   OH240854   6.017   5.555   4.325  0.3058 -0.1043  0.7004
 6480TIP3    H140855   5.968   5.634   4.304 -0.5679 -1.3374 -2.4269
 6480TIP3    H240856   5.954   5.499   4.371 -1.0252 -1.1606 -2.1653
 6481TIP3   OH240857   4.560   1.138  16.674 -0.7140 -0.6392 -0.5275
 6481TIP3    H140858   4.636   1.127  16.617 -1.2625 -2.1588 -1.0171
 6481TIP3    H240859   4.559   1.058  16.727 -3.3877 -1.8716 -2.2725
 6482TIP3   OH240860   0.451   5.831   1.614 -0.1479 -0.8923 -0.2796
 6482TIP3    H140861   0.375   5.889   1.608  0.5456 -0.0490 -1.2365
 6482TIP3    H240862   0.500   5.864   1.690  0.7900  0.5094 -1.4319
 6483TIP3   OH240863   5.407   4.391  11.643 -0.4965  0.6715  0.3799
 6483TIP3    H140864   5.414   4.435  11.558 -1.8031 -0.9185 -0.6203
 6483TIP3    H240865   5.446   4.305  11.628 -0.1358  0.6042  1.6114
 6484TIP3   OH240866   3.303   4.051   1.208 -0.0399  0.0128  0.7936
 6484TIP3    H140867   3.209   4.050   1.224  0.2611  0.0979  2.7810
 6484TIP3    H240868   3.323   3.963   1.176 -0.9021  0.2760 -0.5418
 6485TIP3   OH240869   4.903   5.865   3.586  0.1390  0.4042 -0.3131
 6485TIP3    H140870   4.894   5.816   3.504  0.9753 -0.7366  0.2481
 6485TIP3    H240871   4.911   5.956   3.558  0.6990  0.0170 -1.5193
 6486TIP3   OH240872   6.214   5.708   2.043  0.1429  0.2296  0.1436
 6486TIP3    H140873   6.231   5.614   2.040 -1.2961 -0.0439 -0.5284
 6486TIP3    H240874   6.240   5.735   2.131  1.8167 -0.5183 -0.0980
 6487TIP3   OH240875   5.346   0.212  12.023  0.4670  0.5098 -0.7298
 6487TIP3    H140876   5.390   0.176  11.946 -0.2537 -1.3054 -0.3577
 6487TIP3    H240877   5.416   0.249  12.077  1.1456  0.4896 -1.5827
 6488TIP3   OH240878   1.616   4.384   1.891  0.1054 -0.5208  0.4861
 6488TIP3    H140879   1.672   4.459   1.868 -1.2216  0.0721 -1.0144
 6488TIP3    H240880   1.586   4.404   1.979  1.5613 -0.4303  0.9914
 6489TIP3   OH240881   2.611   1.372   0.519 -0.7325  0.1431  0.0157
 6489TIP3    H140882   2.562   1.300   0.559 -1.1848 -1.6659 -3.4080
 6489TIP3    H240883   2.687   1.329   0.478  0.2273  1.9790 -0.2080
 6490TIP3   OH240884   1.472   0.711   2.572 -0.4754 -0.0186 -0.0850
 6490TIP3    H140885   1.442   0.627   2.536  0.9919 -0.2588 -0.8075
 6490TIP3    H240886   1.508   0.758   2.496 -1.5745  1.4211  0.2496
 6491TIP3   OH240887   5.130   5.335  13.367  1.0172  0.2475  0.0869
 6491TIP3    H140888   5.151   5.297  13.453  0.5737  0.5640  0.3386
 6491TIP3    H240889   5.137   5.429  13.381  2.2964  0.2649 -0.5832
 6492TIP3   OH240890   1.439   1.472   1.563  0.6733 -0.1117 -0.5811
 6492TIP3    H140891   1.520   1.521   1.547  2.3389 -2.6225 -0.3786
 6492TIP3    H240892   1.389   1.528   1.622  0.8373  2.8524 -2.9782
 6493TIP3   OH240893   3.293   5.297  12.270 -0.0554 -0.8364 -0.6169
 6493TIP3    H140894   3.361   5.267  12.209  1.1062  0.4683  0.0029
 6493TIP3    H240895   3.245   5.364  12.222  1.7269  1.1885  0.2746
 6494TIP3   OH240896   4.058   3.813  14.757 -0.1598 -0.0077 -0.1582
 6494TIP3    H140897   4.008   3.802  14.838 -1.3828 -0.8365 -1.0051
 6494TIP3    H240898   4.144   3.844  14.787 -0.7838  0.3238  1.4067
 6495TIP3   OH240899   3.056   5.717  11.500 -0.1621  0.4901  0.0705
 6495TIP3    H140900   3.014   5.658  11.562  0.7227  0.7047  0.8926
 6495TIP3    H240901   3.140   5.676  11.480 -0.2584  0.6318 -0.6725
 6496TIP3   OH240902   5.709   5.159   2.750 -0.1580 -0.1931  0.3944
 6496TIP3    H140903   5.741   5.158   2.839  1.1726  0.1787 -0.0664
 6496TIP3    H240904   5.742   5.078   2.711 -0.2490 -0.0790  0.0739
 6497TIP3   OH240905   3.427   1.252  14.014  0.2967 -0.7667  0.4375
 6497TIP3    H140906   3.503   1.277  14.067  2.3715 -2.5942 -1.4903
 6497TIP3    H240907   3.435   1.304  13.934 -2.1251  1.0503  1.2358
 6498TIP3   OH240908   2.285   6.178   1.417 -0.3292 -0.1295  0.5999
 6498TIP3    H140909   2.238   6.253   1.380 -2.0434 -1.9402 -1.1960
 6498TIP3    H240910   2.344   6.150   1.348  2.3943  1.1163  2.2578
 6499TIP3   OH240911   4.576   1.169   3.752 -0.1448  0.3943  0.5156
 6499TIP3    H140912   4.591   1.082   3.789  0.5435  0.9893  1.6891
 6499TIP3    H240913   4.543   1.221   3.825  0.8128  1.4884  0.2086
 6500TIP3   OH240914   2.502   5.024   2.922 -0.0715  0.3899  0.0333
 6500TIP3    H140915   2.545   5.102   2.956 -0.5318  0.4694  0.4457
 6500TIP3    H240916   2.545   5.007   2.839 -2.3071  3.2053 -1.9280
 6501TIP3   OH240917   0.968   5.327  13.590 -0.1689  0.3609  0.3871
 6501TIP3    H140918   0.976   5.249  13.534  0.6572  1.5190 -1.2019
 6501TIP3    H240919   0.918   5.297  13.666 -0.5253 -1.5219 -0.5226
 6502TIP3   OH240920   3.532   5.611  11.828  0.1841 -0.2266 -0.4170
 6502TIP3    H140921   3.525   5.519  11.803  0.8079 -0.3322 -0.2135
 6502TIP3    H240922   3.527   5.659  11.746 -2.0612 -0.3109 -0.3927
 6503TIP3   OH240923   6.104   6.399  16.155  0.3246 -0.0610  0.4559
 6503TIP3    H140924   6.137   6.385  16.244  1.8394  1.3321  0.1636
 6503TIP3    H240925   6.174   6.369  16.098 -0.1178  0.2269 -0.2559
 6504TIP3   OH240926   6.229   2.263  15.830  0.6941  0.5159 -0.1186
 6504TIP3    H140927   6.285   2.243  15.905  1.4003 -0.3271 -0.8568
 6504TIP3    H240928   6.162   2.322  15.866  0.5906 -0.4240  1.3478
 6505TIP3   OH240929   2.675   1.642  12.706  0.4239  0.1967  0.4302
 6505TIP3    H140930   2.664   1.737  12.709 -0.7041  0.1544 -1.1680
 6505TIP3    H240931   2.767   1.629  12.683  0.4743  0.9137  0.2220
 6506TIP3   OH240932   2.015   2.803  13.638  0.0350 -0.2824  0.1425
 6506TIP3    H140933   2.016   2.707  13.647  0.4268 -0.5669 -2.2417
 6506TIP3    H240934   1.927   2.823  13.606  0.0125  0.1299  0.4656
 6507TIP3   OH240935   2.562   5.695   3.628 -0.6640 -0.1713  0.1770
 6507TIP3    H140936   2.637   5.681   3.686  0.0524 -1.4542 -1.0006
 6507TIP3    H240937   2.544   5.609   3.590 -0.8851  0.6713 -1.7445
 6508TIP3   OH240938   2.083   0.926  16.826 -0.4290  0.2250  0.0936
 6508TIP3    H140939   2.097   0.843  16.779 -1.3865  0.9716 -1.6083
 6508TIP3    H240940   2.154   0.983  16.796 -0.6805  0.5076  0.0296
 6509TIP3   OH240941   5.737   1.902  14.913 -0.2748 -0.2876  0.0446
 6509TIP3    H140942   5.683   1.824  14.927 -1.5915  0.3997 -1.0131
 6509TIP3    H240943   5.752   1.904  14.819 -1.2952  1.3743 -0.1128
 6510TIP3   OH240944   4.338   3.233   5.985  0.1663 -0.2739  0.2610
 6510TIP3    H140945   4.417   3.282   6.007  1.2835 -0.9486 -1.9330
 6510TIP3    H240946   4.291   3.224   6.068  1.4650  1.7343  1.2926
 6511TIP3   OH240947   6.591   5.528   0.344 -0.1989  0.0788  0.2067
 6511TIP3    H140948   6.658   5.473   0.385  0.8595  0.6771 -0.6396
 6511TIP3    H240949   6.518   5.527   0.405  0.4318 -0.9125  0.9878
 6512TIP3   OH240950   5.774   0.869  15.599  0.0375  0.1943 -0.2283
 6512TIP3    H140951   5.710   0.935  15.622  1.0956  0.3137  2.8664
 6512TIP3    H240952   5.744   0.789  15.643  1.9354  0.2622  1.3325
 6513TIP3   OH240953   0.734   4.009   3.552 -0.5292  0.0841  0.1081
 6513TIP3    H140954   0.650   3.964   3.538 -1.8107  1.0745  3.6022
 6513TIP3    H240955   0.723   4.093   3.507 -0.8110 -0.3460 -0.6545
 6514TIP3   OH240956   2.454   1.841  14.958  0.0399 -0.0634  0.4428
 6514TIP3    H140957   2.490   1.891  14.885 -0.3984 -1.0766 -0.4939
 6514TIP3    H240958   2.513   1.767  14.968  0.6230  0.5399  1.7523
 6515TIP3   OH240959   3.732   0.453  13.231 -0.6224 -0.8377 -0.3028
 6515TIP3    H140960   3.666   0.492  13.289  0.0185  0.0040 -0.1296
 6515TIP3    H240961   3.756   0.524  13.172  1.4125 -0.6019  0.7420
 6516TIP3   OH240962   6.063   0.554  13.545 -0.5762 -0.0351  0.1477
 6516TIP3    H140963   6.102   0.578  13.629  0.7557 -0.8333 -0.2244
 6516TIP3    H240964   6.137   0.544  13.485 -1.5543  1.5863 -1.4370
 6517TIP3   OH240965   4.807   2.576  11.377  0.3331 -0.1250 -0.1156
 6517TIP3    H140966   4.868   2.649  11.381 -0.4750  0.5586 -0.1483
 6517TIP3    H240967   4.758   2.589  11.296 -0.2088 -0.3810  0.1658
 6518TIP3   OH240968   3.556   1.739   2.612 -0.1046 -0.8815 -0.3853
 6518TIP3    H140969   3.540   1.802   2.682 -0.6091 -1.4797  0.0480
 6518TIP3    H240970   3.475   1.737   2.562 -0.0252 -1.0425 -0.5094
 6519TIP3   OH240971   2.277   2.518   6.009 -0.0136  0.1241  0.0365
 6519TIP3    H140972   2.221   2.441   6.008  0.4140 -0.2426 -2.7642
 6519TIP3    H240973   2.361   2.486   6.043 -0.5394 -0.0158  1.2728
 6520TIP3   OH240974   0.163   3.227  14.119 -0.0990  0.4941 -0.2539
 6520TIP3    H140975   0.071   3.212  14.142 -0.0996 -0.4691 -0.8063
 6520TIP3    H240976   0.212   3.203  14.197 -0.3440  1.6281  0.2618
 6521TIP3   OH240977   4.918   5.557   6.046  0.5194  0.0247 -0.2793
 6521TIP3    H140978   5.006   5.591   6.031  0.4352  0.5864  0.4814
 6521TIP3    H240979   4.929   5.489   6.112  0.2298  0.9617  0.7686
 6522TIP3   OH240980   6.683   4.061   2.389  0.4881  0.3765  0.3962
 6522TIP3    H140981   6.656   4.151   2.373  0.6455  0.9957  3.1848
 6522TIP3    H240982   6.606   4.009   2.364  0.7636  1.0791 -2.2780
 6523TIP3   OH240983   1.962   2.051   0.727 -0.2405 -0.1794  0.5468
 6523TIP3    H140984   1.958   1.965   0.684 -0.4032 -0.7369  1.6309
 6523TIP3    H240985   2.033   2.042   0.791 -0.0330  0.6174  0.4428
 6524TIP3   OH240986   3.979   6.718  11.738 -0.2105 -0.4502  0.2027
 6524TIP3    H140987   3.979   6.784  11.669  1.1538 -0.2416  0.3777
 6524TIP3    H240988   3.894   6.728  11.781 -0.0448  1.1907  0.2111
 6525TIP3   OH240989   1.072   0.159  15.888 -0.3224  0.1101  0.7683
 6525TIP3    H140990   0.997   0.100  15.884 -0.2437  0.0775 -0.8775
 6525TIP3    H240991   1.118   0.145  15.805  2.0476 -0.5497  2.1009
 6526TIP3   OH240992   2.640   5.163  12.694  0.2304  0.2185  0.2567
 6526TIP3    H140993   2.712   5.180  12.754  0.9847 -1.2386 -0.1791
 6526TIP3    H240994   2.651   5.228  12.624 -1.2812  2.6456  2.0843
 6527TIP3   OH240995   2.391   5.456  13.824  0.3543 -0.5419 -0.0539
 6527TIP3    H140996   2.356   5.379  13.781  0.9412 -0.7514 -0.1732
 6527TIP3    H240997   2.483   5.460  13.795  0.2020  0.4823 -0.4620
 6528TIP3   OH240998   0.349   0.624  12.538  0.6041  0.1894 -0.0757
 6528TIP3    H140999   0.393   0.708  12.523  0.2080  0.3728 -0.2266
 6528TIP3    H241000   0.339   0.619  12.633  0.0429  0.6186 -0.1082
 6529TIP3   OH241001   3.342   2.713   2.129 -0.6138  0.0304  0.6439
 6529TIP3    H141002   3.355   2.664   2.210  1.6611  0.7434  0.7741
 6529TIP3    H241003   3.426   2.756   2.113 -0.9048 -0.2932 -2.2516
 6530TIP3   OH241004   4.856   0.376   0.790 -0.0106 -0.6753  0.4234
 6530TIP3    H141005   4.764   0.398   0.775  0.1846  0.4199  0.7449
 6530TIP3    H241006   4.877   0.313   0.722 -0.5460  0.3210 -0.6902
 6531TIP3   OH241007   6.289   2.519   3.315  0.0108  0.1437  0.6084
 6531TIP3    H141008   6.316   2.557   3.231 -0.5459 -0.4693  0.1397
 6531TIP3    H241009   6.371   2.492   3.356  0.2110 -0.8523 -0.3899
 6532TIP3   OH241010   0.934   4.644   5.006 -0.9745  0.3991  0.0377
 6532TIP3    H141011   0.982   4.689   5.075  0.1668 -0.2217 -0.3346
 6532TIP3    H241012   0.918   4.556   5.040  1.1815 -0.5110 -1.1317
 6533TIP3   OH241013   4.304   6.586   2.487 -0.0474  0.1210 -0.7316
 6533TIP3    H141014   4.218   6.595   2.445  0.0544 -0.3298 -1.0401
 6533TIP3    H241015   4.340   6.504   2.452  0.6521  0.4741 -0.8683
 6534TIP3   OH241016   3.664   4.725  12.239  0.2205  0.3689  0.4158
 6534TIP3    H141017   3.661   4.744  12.146 -1.8619 -0.0734  0.3466
 6534TIP3    H241018   3.631   4.635  12.247  1.8246 -0.1819  1.4688
 6535TIP3   OH241019   0.191   4.322   1.369  0.5376  0.2264 -0.3497
 6535TIP3    H141020   0.114   4.269   1.354  0.2416  0.3627  0.6073
 6535TIP3    H241021   0.223   4.295   1.455  1.0196  0.8192 -0.3299
 6536TIP3   OH241022   0.903   0.204  12.782 -0.2609 -0.3542 -0.0510
 6536TIP3    H141023   0.941   0.291  12.777  4.1311 -2.0731 -0.7521
 6536TIP3    H241024   0.885   0.181  12.691  0.9488 -1.0270 -0.1402
 6537TIP3   OH241025   4.106   4.201   5.015 -0.4280  0.3523 -0.5677
 6537TIP3    H141026   4.024   4.170   5.052 -0.2962  0.8042  0.1219
 6537TIP3    H241027   4.081   4.253   4.939 -0.9136  2.1449  0.7824
 6538TIP3   OH241028   0.296   0.203   0.711 -0.9390  0.1770  0.5610
 6538TIP3    H141029   0.282   0.117   0.671 -0.4265 -1.1435  3.0000
 6538TIP3    H241030   0.370   0.240   0.663 -1.3169 -0.6168 -0.6901
 6539TIP3   OH241031   1.211   0.171   0.839 -0.3992  0.3080 -0.3221
 6539TIP3    H141032   1.247   0.258   0.854  2.5523 -0.9966  0.8207
 6539TIP3    H241033   1.239   0.149   0.750  1.7387 -0.6632  0.5279
 6540TIP3   OH241034   5.955   6.355   3.285  0.0344 -0.1777  0.4622
 6540TIP3    H141035   5.989   6.265   3.287  0.5369  0.0163  1.4462
 6540TIP3    H241036   5.860   6.345   3.295 -0.1049 -0.6609 -1.0196
 6541TIP3   OH241037   3.891   3.036  15.599  0.2158 -0.4865 -0.0464
 6541TIP3    H141038   3.804   3.015  15.566  1.2490 -1.5781 -2.3363
 6541TIP3    H241039   3.913   2.964  15.659 -0.3712 -0.2964  0.4009
 6542TIP3   OH241040   2.556   5.976  13.189  0.2699 -0.0199  0.0189
 6542TIP3    H141041   2.602   5.969  13.273  0.3554 -1.8806 -0.1418
 6542TIP3    H241042   2.592   5.904  13.136 -2.1015 -0.9303 -0.4584
 6543TIP3   OH241043   1.550   2.621   3.298 -0.1266  0.2910 -0.1682
 6543TIP3    H141044   1.572   2.560   3.368  0.7093 -0.7464 -1.2994
 6543TIP3    H241045   1.632   2.637   3.252 -0.4190  1.9256 -0.1835
 6544TIP3   OH241046   3.953   2.838   1.963 -0.7358 -0.4322 -0.1528
 6544TIP3    H141047   4.001   2.786   1.898 -0.6156  2.5052 -2.6562
 6544TIP3    H241048   3.901   2.900   1.911  0.0422  2.7604  2.4743
 6545TIP3   OH241049   0.728   3.624  13.740  0.2112 -0.2900 -0.1182
 6545TIP3    H141050   0.789   3.550  13.747 -0.3948 -1.0017 -1.6904
 6545TIP3    H241051   0.784   3.701  13.731  0.8700 -0.7552 -0.0804
 6546TIP3   OH241052   5.021   5.850  15.595  0.4017  0.6720  0.2580
 6546TIP3    H141053   5.055   5.884  15.678  0.2810 -2.2371  1.6299
 6546TIP3    H241054   5.099   5.819  15.548  0.4270  1.9363 -0.5811
 6547TIP3   OH241055   0.394   4.123   0.088  0.0136 -0.3994  0.4433
 6547TIP3    H141056   0.465   4.077   0.044  0.8504 -1.3216  2.6348
 6547TIP3    H241057   0.349   4.055   0.138 -1.5660  0.4303  0.2213
 6548TIP3   OH241058   1.167   0.009  13.700 -0.2275 -0.0786  0.3431
 6548TIP3    H141059   1.124   0.065  13.636 -2.1230 -0.1338  1.4875
 6548TIP3    H241060   1.237   0.063  13.736 -0.3914  0.6295 -0.3676
 6549TIP3   OH241061   6.364   3.946  13.782 -0.8311  0.0586  0.8949
 6549TIP3    H141062   6.429   3.897  13.732 -0.5322  1.6630 -0.3569
 6549TIP3    H241063   6.289   3.952  13.724 -0.9755  0.8066  1.1530
 6550TIP3   OH241064   3.767   2.964  12.576 -0.1771  0.0035 -0.5125
 6550TIP3    H141065   3.712   2.975  12.498 -0.2755  3.8197 -0.0864
 6550TIP3    H241066   3.707   2.972  12.650  0.1773 -1.9014  0.0575
 6551TIP3   OH241067   0.829   4.602  12.628  0.0645 -0.2702 -0.4712
 6551TIP3    H141068   0.843   4.696  12.643 -2.1967  0.1453 -0.7167
 6551TIP3    H241069   0.844   4.591  12.534 -0.6083  0.0457 -0.6203
 6552TIP3   OH241070   1.793   5.060  10.352  0.4018 -0.5133 -0.1687
 6552TIP3    H141071   1.847   5.103  10.419  0.7426 -0.5907 -0.3873
 6552TIP3    H241072   1.837   4.976  10.337  0.6693 -0.2520 -0.9086
 6553TIP3   OH241073   6.517   0.359  15.372 -0.2442 -0.1970  0.1969
 6553TIP3    H141074   6.432   0.394  15.346 -0.4694 -1.4704 -0.8713
 6553TIP3    H241075   6.497   0.276  15.415  0.3910  0.0752  1.0397
 6554TIP3   OH241076   0.050   3.509   6.152 -0.2240 -0.1747  0.1792
 6554TIP3    H141077   0.084   3.591   6.117 -1.3652 -0.2999 -1.3035
 6554TIP3    H241078   0.121   3.446   6.139 -0.4201 -0.0981 -1.5381
 6555TIP3   OH241079   2.202   2.524   5.179  0.7127  0.4448  0.0092
 6555TIP3    H141080   2.257   2.453   5.214 -2.6327 -2.6842 -0.4535
 6555TIP3    H241081   2.185   2.497   5.089 -2.5606  0.4808  0.5227
 6556TIP3   OH241082   6.479   1.765  11.324 -0.3030  0.4414 -0.6528
 6556TIP3    H141083   6.473   1.734  11.414 -1.3494 -0.7610 -1.1057
 6556TIP3    H241084   6.409   1.719  11.278 -0.5809  1.9595 -1.8276
 6557TIP3   OH241085   3.483   5.560  11.210  0.1090 -0.1987  0.0883
 6557TIP3    H141086   3.441   5.514  11.137  1.0825 -1.3457  0.2355
 6557TIP3    H241087   3.546   5.498  11.246  2.5683  1.7141 -0.6193
 6558TIP3   OH241088   0.149   4.893  15.844 -0.3238 -0.5102  0.3454
 6558TIP3    H141089   0.155   4.922  15.935  1.3357 -2.9196  1.1090
 6558TIP3    H241090   0.101   4.810  15.849 -1.2162 -0.1166 -1.1476
 6559TIP3   OH241091   0.560   5.665   4.342 -0.5176 -0.3870 -0.5692
 6559TIP3    H141092   0.497   5.606   4.302 -1.2215  0.2415 -0.4200
 6559TIP3    H241093   0.624   5.682   4.273 -0.9211 -0.4588 -0.9693
 6560TIP3   OH241094   2.700   6.440   1.919  0.0098  0.2994 -0.3300
 6560TIP3    H141095   2.636   6.414   1.986  1.3483 -1.3625  0.3541
 6560TIP3    H241096   2.750   6.361   1.901  1.8347  1.5256 -0.9138
 6561TIP3   OH241097   3.537   1.043  15.617 -0.0136 -0.0252 -0.0403
 6561TIP3    H141098   3.519   1.089  15.535  0.9442  0.6446  0.1113
 6561TIP3    H241099   3.619   1.081  15.649 -0.8020  0.3559  1.6626
 6562TIP3   OH241100   4.186   0.244  16.992  0.2919 -0.1814 -0.5558
 6562TIP3    H141101   4.215   0.309  16.929 -1.4588 -0.8206 -2.0890
 6562TIP3    H241102   4.109   0.204  16.953 -0.0808 -1.5499  1.3996
 6563TIP3   OH241103   4.811   4.493  17.292 -0.4376  0.3257 -0.4958
 6563TIP3    H141104   4.768   4.425  17.344  0.8672  1.1338  1.7706
 6563TIP3    H241105   4.744   4.519  17.228 -1.7760 -1.4231  0.1032
 6564TIP3   OH241106   5.287   5.488  16.437 -0.1709 -0.5266 -0.5033
 6564TIP3    H141107   5.305   5.396  16.459  0.8155 -0.1510  0.3267
 6564TIP3    H241108   5.367   5.518  16.393  0.0390  0.2866  0.3978
 6565TIP3   OH241109   1.688   4.915   0.078  0.6181  0.9503 -0.4195
 6565TIP3    H141110   1.742   4.901   0.155  0.2868  0.0857 -0.3291
 6565TIP3    H241111   1.600   4.928   0.113 -0.0031 -1.8717 -0.6878
 6566TIP3   OH241112   0.755   5.388  14.042  0.0828 -0.4806  0.1740
 6566TIP3    H141113   0.708   5.324  14.096  0.5808  0.1207  1.3601
 6566TIP3    H241114   0.711   5.386  13.958 -1.5287 -0.5596  0.9851
 6567TIP3   OH241115   5.567   5.646   2.554 -0.1706 -0.2920  0.5037
 6567TIP3    H141116   5.581   5.711   2.623  0.2225  0.6967 -0.4932
 6567TIP3    H241117   5.482   5.608   2.574  1.3418 -2.5457  3.5573
 6568TIP3   OH241118   5.470   1.176   0.003  0.3926  0.5808 -0.1007
 6568TIP3    H141119   5.385   1.220  -0.006  0.1123 -0.2561 -2.2274
 6568TIP3    H241120   5.533   1.238  -0.033  0.4388  0.5275 -0.1122
 6569TIP3   OH241121   4.266   4.905  16.568  0.3688  0.1073  0.3637
 6569TIP3    H141122   4.244   4.910  16.475  0.3260  2.2733  0.4445
 6569TIP3    H241123   4.185   4.928  16.614  1.2411  2.6723  0.7890
 6570TIP3   OH241124   0.683   6.276  15.996 -0.2398 -0.8189 -0.0652
 6570TIP3    H141125   0.751   6.332  16.032 -0.2732  0.8786 -2.3710
 6570TIP3    H241126   0.602   6.326  16.006 -0.5454 -1.1841 -0.6089
 6571TIP3   OH241127   1.229   3.568  11.412 -0.1342  0.1722 -0.2375
 6571TIP3    H141128   1.247   3.640  11.352  0.6488  0.3030  0.1445
 6571TIP3    H241129   1.147   3.592  11.454  0.3500  1.0594  0.2135
 6572TIP3   OH241130   0.047   0.765   1.605 -0.2032 -0.3603  0.2538
 6572TIP3    H141131   0.107   0.755   1.679 -0.3510  0.4455  0.4942
 6572TIP3    H241132   0.076   0.844   1.560 -0.1625 -0.8005 -0.5155
 6573TIP3   OH241133   2.272   2.765   3.977 -0.3392 -0.5314  0.1627
 6573TIP3    H141134   2.297   2.761   3.885 -2.3451 -0.4865 -0.4230
 6573TIP3    H241135   2.335   2.826   4.016 -0.4991  0.8326 -1.5728
 6574TIP3   OH241136   5.054   5.344  12.753  0.3210  0.0003  0.1958
 6574TIP3    H141137   5.025   5.280  12.688  0.0108 -0.3643  0.6851
 6574TIP3    H241138   5.016   5.427  12.724  0.3085 -0.1303 -0.1674
 6575TIP3   OH241139   0.475   4.413  15.464  0.1786 -0.2739  0.1133
 6575TIP3    H141140   0.448   4.353  15.395 -0.6664  0.7141 -0.4347
 6575TIP3    H241141   0.555   4.373  15.500  1.0428 -0.4575 -1.8705
 6576TIP3   OH241142   3.482   1.113  16.220  0.0097 -0.6411 -0.3178
 6576TIP3    H141143   3.416   1.047  16.200 -0.2056 -0.5445  0.0550
 6576TIP3    H241144   3.557   1.089  16.166 -0.5951 -0.2977 -1.3406
 6577TIP3   OH241145   4.855   2.105   1.823  0.0748  0.2539  0.0035
 6577TIP3    H141146   4.848   2.090   1.917 -2.0634 -0.0140 -0.1337
 6577TIP3    H241147   4.940   2.070   1.799 -0.5258 -2.4726  1.3937
 6578TIP3   OH241148   0.508   4.324   4.190  0.6950 -0.2609  0.8950
 6578TIP3    H141149   0.532   4.352   4.102  0.8280 -0.3446  0.9037
 6578TIP3    H241150   0.472   4.236   4.178  1.5673 -0.6531  1.0278
 6579TIP3   OH241151   2.605   4.419   3.821  0.1753  0.4886 -0.1069
 6579TIP3    H141152   2.623   4.409   3.727 -1.5260 -1.4071 -0.2816
 6579TIP3    H241153   2.552   4.498   3.827  0.9050  1.0365 -0.6206
 6580TIP3   OH241154   2.227   4.644  12.456  0.3649 -0.0024 -0.8998
 6580TIP3    H141155   2.281   4.586  12.403  0.0307  1.9620 -3.5765
 6580TIP3    H241156   2.290   4.703  12.498  0.6210 -1.4972  0.9650
 6581TIP3   OH241157   3.125   1.348  15.610  0.3819  0.3038  0.3475
 6581TIP3    H141158   3.116   1.276  15.673  1.9620 -0.2287  0.0072
 6581TIP3    H241159   3.217   1.373  15.614  0.3141  0.8989 -1.0569
 6582TIP3   OH241160   3.869   4.858  11.372  0.1532 -0.3323  0.3171
 6582TIP3    H141161   3.799   4.908  11.413 -0.2231  0.6214 -1.3878
 6582TIP3    H241162   3.827   4.813  11.299  1.2985  0.3133 -0.7898
 6583TIP3   OH241163   5.908   1.416   4.822  0.1607  0.3919 -0.6664
 6583TIP3    H141164   5.963   1.420   4.744  0.0615 -2.4043 -0.9949
 6583TIP3    H241165   5.822   1.445   4.793  0.6146  1.4020 -1.0380
 6584TIP3   OH241166   0.168   4.967   2.807 -0.6639 -0.3582  0.0347
 6584TIP3    H141167   0.148   5.046   2.858 -0.9825  2.2232 -3.6779
 6584TIP3    H241168   0.247   4.990   2.759 -1.3339 -1.9175 -1.9172
 6585TIP3   OH241169   2.290   2.102  13.508 -0.0029 -0.4031  0.0042
 6585TIP3    H141170   2.369   2.051  13.526 -0.2720 -1.0118 -0.4893
 6585TIP3    H241171   2.222   2.036  13.493 -0.7797  0.1162  1.1277
 6586TIP3   OH241172   4.719   4.870  11.799  0.0598 -0.1613  0.2377
 6586TIP3    H141173   4.650   4.864  11.734  0.0707  1.7264 -0.0091
 6586TIP3    H241174   4.800   4.878  11.748 -0.0954  3.3467  0.3005
 6587TIP3   OH241175   5.221   4.321   1.342  0.1877 -0.1071  0.6343
 6587TIP3    H141176   5.289   4.302   1.406 -1.3133 -0.5945  2.1709
 6587TIP3    H241177   5.181   4.403   1.373 -0.7174 -0.4743  0.4761
 6588TIP3   OH241178   6.668   2.008   2.222 -0.0165 -0.0685 -0.5411
 6588TIP3    H141179   6.624   2.026   2.305  0.1210 -0.7786 -0.3022
 6588TIP3    H241180   6.662   1.913   2.212  1.7782 -0.2556 -0.3118
 6589TIP3   OH241181   4.535   6.584  17.328  0.2622 -0.0959 -0.2213
 6589TIP3    H141182   4.608   6.642  17.306 -0.3725  0.7130 -0.2513
 6589TIP3    H241183   4.468   6.605  17.263 -0.7467  0.6157  1.0099
 6590TIP3   OH241184   6.664   0.249  16.220  0.0679  0.0966 -0.3354
 6590TIP3    H141185   6.610   0.276  16.145 -0.4445  0.4701  0.1599
 6590TIP3    H241186   6.734   0.197  16.181 -0.5820 -0.2985 -1.0028
 6591TIP3   OH241187   4.314   4.647   4.741 -0.1584 -0.8865  0.1976
 6591TIP3    H141188   4.283   4.609   4.824 -0.3781 -1.5038 -0.1595
 6591TIP3    H241189   4.235   4.665   4.692 -0.0983  0.7970  0.6663
 6592TIP3   OH241190   0.548   3.511   3.808  0.0489 -0.2310 -0.2601
 6592TIP3    H141191   0.578   3.510   3.717 -0.0959  1.1352 -0.3448
 6592TIP3    H241192   0.503   3.595   3.818 -0.2224 -0.4961  0.9861
 6593TIP3   OH241193   4.139   3.429  12.265 -0.8378  0.4843  0.2934
 6593TIP3    H141194   4.232   3.407  12.257 -1.2167 -0.6915 -1.3251
 6593TIP3    H241195   4.123   3.492  12.195 -1.3447  0.3243  0.2584
 6594TIP3   OH241196   6.717   5.451  12.519  0.4617  0.0274 -0.4954
 6594TIP3    H141197   6.660   5.404  12.458  0.9901 -1.4697  0.1106
 6594TIP3    H241198   6.704   5.543  12.498 -0.9598 -0.3546 -1.4418
 6595TIP3   OH241199   0.786   0.924  11.647 -0.4005 -0.4627  0.8817
 6595TIP3    H141200   0.857   0.924  11.582 -1.3009 -0.4434 -0.1326
 6595TIP3    H241201   0.761   1.016  11.655  0.9485 -0.2025  2.6974
 6596TIP3   OH241202   2.583   6.107  12.559  0.7426 -0.2806  0.0225
 6596TIP3    H141203   2.566   6.084  12.468 -1.1592 -0.5384  0.4003
 6596TIP3    H241204   2.639   6.184  12.554  0.3360 -0.0428 -1.3642
 6597TIP3   OH241205   2.921   1.073  11.686  0.4727  0.4099 -0.1778
 6597TIP3    H141206   2.964   1.157  11.706  2.0659 -0.4874  0.3188
 6597TIP3    H241207   2.975   1.008  11.731 -2.4749 -0.6563  2.0668
 6598TIP3   OH241208   5.201   0.052  15.598 -0.5533  0.0815  0.1056
 6598TIP3    H141209   5.288   0.036  15.562  0.2420  3.0967  0.4243
 6598TIP3    H241210   5.205   0.141  15.633 -2.4496 -1.1967  4.1928
 6599TIP3   OH241211   0.726   3.728   5.860  0.1292 -0.2919  0.0308
 6599TIP3    H141212   0.646   3.679   5.879  0.1472 -0.9426 -1.4365
 6599TIP3    H241213   0.781   3.666   5.812  1.2654  0.3456  0.4728
 6600TIP3   OH241214   1.111   3.995  10.606 -0.0347 -0.1066 -0.1144
 6600TIP3    H141215   1.107   4.070  10.665  1.3578  2.0835 -2.5284
 6600TIP3    H241216   1.021   3.966  10.596 -0.4987  0.6826  1.5638
 6601TIP3   OH241217   3.712   6.536   1.195  0.1256  0.2309 -0.1956
 6601TIP3    H141218   3.652   6.584   1.138 -0.6799  0.1101  0.5217
 6601TIP3    H241219   3.799   6.552   1.158 -0.1840  1.7035 -0.3404
 6602TIP3   OH241220   5.912   1.811   5.480  0.3075  0.5764  0.1953
 6602TIP3    H141221   5.864   1.782   5.557 -0.4458  0.6468 -0.2402
 6602TIP3    H241222   5.976   1.874   5.513  0.4032  0.1507  0.8371
 6603TIP3   OH241223   5.013   3.429  13.317 -0.0674 -0.4483 -0.2460
 6603TIP3    H141224   5.092   3.426  13.262  0.6958  0.0925  0.7799
 6603TIP3    H241225   4.988   3.337  13.328  0.1295 -0.5973 -0.9859
 6604TIP3   OH241226   2.287   5.764   1.382 -0.0777 -0.4678 -0.9266
 6604TIP3    H141227   2.283   5.672   1.357  1.6105 -0.7315 -0.3389
 6604TIP3    H241228   2.309   5.763   1.475 -0.9975  0.5330 -0.6818
 6605TIP3   OH241229   2.407   6.089   0.664  0.6308 -0.2970 -0.0176
 6605TIP3    H141230   2.487   6.065   0.617  0.4015 -0.6753 -0.2151
 6605TIP3    H241231   2.419   6.052   0.751 -0.1091 -1.9496 -0.5781
 6606TIP3   OH241232   2.887   4.979   3.215  0.1458 -0.2358  0.1901
 6606TIP3    H141233   2.963   4.967   3.157 -0.6587 -1.3461 -0.6636
 6606TIP3    H241234   2.906   5.060   3.262  0.8729  0.6633 -1.5559
 6607TIP3   OH241235   5.089   3.154   3.838  0.0117  0.0162  0.0787
 6607TIP3    H141236   5.019   3.208   3.803  0.2504 -0.3394 -0.9642
 6607TIP3    H241237   5.132   3.210   3.903  0.4751  1.2396 -1.2249
 6608TIP3   OH241238   2.972   5.126   0.608 -0.8096 -0.0762  0.5440
 6608TIP3    H141239   3.056   5.172   0.600 -0.5460 -0.5682  0.4591
 6608TIP3    H241240   2.914   5.172   0.548  0.0203 -1.1457 -1.1448
 6609TIP3   OH241241   3.818   4.901   3.105  0.0182  0.3647  0.0453
 6609TIP3    H141242   3.793   4.993   3.108 -0.6574  0.1708  1.2091
 6609TIP3    H241243   3.907   4.899   3.140 -0.3132  0.4888  0.9226
 6610TIP3   OH241244   0.242   6.080   2.303 -0.3163  0.3121 -0.3618
 6610TIP3    H141245   0.326   6.104   2.342 -1.5838 -0.4627  3.1737
 6610TIP3    H241246   0.199   6.164   2.285 -0.1465  0.7271  1.0974
 6611TIP3   OH241247   5.832   5.439   4.561 -0.0623 -0.3728 -0.2029
 6611TIP3    H141248   5.813   5.498   4.635  1.5478  0.2705 -0.2662
 6611TIP3    H241249   5.920   5.405   4.580 -0.9467 -2.8114 -0.1608
 6612TIP3   OH241250   3.911   2.560   0.501 -0.5396 -0.6305  0.5239
 6612TIP3    H141251   3.915   2.551   0.406  0.0121  0.0058  0.4772
 6612TIP3    H241252   3.977   2.499   0.534  1.1143  0.9639  0.3513
 6613TIP3   OH241253   3.085   2.870   1.318 -0.3557  0.5533  0.4503
 6613TIP3    H141254   3.134   2.788   1.326  1.1484  1.2459 -1.0307
 6613TIP3    H241255   3.024   2.854   1.247 -0.2710  0.6028  0.3653
 6614TIP3   OH241256   4.358   0.585  12.297 -0.3229  0.1723 -0.1086
 6614TIP3    H141257   4.326   0.567  12.208  0.1662 -1.7541  0.0638
 6614TIP3    H241258   4.306   0.528  12.353  2.5375 -2.2306  0.3013
 6615TIP3   OH241259   5.675   5.364   2.336 -0.3494 -0.7678 -0.7058
 6615TIP3    H141260   5.676   5.277   2.376  0.6885 -0.5741 -0.2850
 6615TIP3    H241261   5.611   5.413   2.388  1.1863 -0.4354  0.9465
 6616TIP3   OH241262   2.683   6.104  13.717 -0.0567 -0.2683 -0.0135
 6616TIP3    H141263   2.772   6.103  13.683 -0.5037 -0.5388 -1.2313
 6616TIP3    H241264   2.690   6.147  13.802  1.1860 -0.0171 -0.2266
 6617TIP3   OH241265   2.773   6.129   5.809 -0.4606  0.5495  0.2856
 6617TIP3    H141266   2.790   6.207   5.862 -1.6804  0.2018  1.2340
 6617TIP3    H241267   2.856   6.081   5.810  0.4156  1.9983 -0.6300
 6618TIP3   OH241268   6.008   3.740   4.996 -0.2164 -0.2123 -0.3143
 6618TIP3    H141269   5.999   3.678   5.069 -1.3615  1.9461  1.5174
 6618TIP3    H241270   5.957   3.816   5.024  3.2068  2.6439 -1.2159
 6619TIP3   OH241271   5.729   0.559   5.022 -0.3783 -0.9393  0.1069
 6619TIP3    H141272   5.645   0.530   5.059 -0.8723  0.3302  0.0078
 6619TIP3    H241273   5.725   0.533   4.930 -1.2242  0.2499 -0.2127
 6620TIP3   OH241274   3.573   2.094  14.297  0.8037 -0.5379 -0.4228
 6620TIP3    H141275   3.488   2.098  14.340  1.2203 -1.6710  0.5653
 6620TIP3    H241276   3.623   2.165  14.336  0.3922 -0.0006 -0.8541
 6621TIP3   OH241277   0.157   1.841   6.048 -0.6066  0.0646 -0.2407
 6621TIP3    H141278   0.140   1.864   5.957  1.0247  1.2280 -0.2822
 6621TIP3    H241279   0.070   1.821   6.084 -1.3649  0.3881 -1.8253
 6622TIP3   OH241280   4.406   2.764   4.472  0.0682  0.4022  0.0169
 6622TIP3    H141281   4.450   2.771   4.557 -1.7609  0.6942  1.0030
 6622TIP3    H241282   4.356   2.845   4.464 -1.0528 -0.3133 -0.5685
 6623TIP3   OH241283   4.126   0.005   4.763 -0.4597  0.2419 -0.2220
 6623TIP3    H141284   4.114   0.087   4.714  0.0531  0.7500  0.4836
 6623TIP3    H241285   4.037  -0.018   4.792 -0.4450  1.2580  0.6810
 6624TIP3   OH241286   0.240   0.527  16.759  0.2325  0.1773  0.2464
 6624TIP3    H141287   0.294   0.599  16.793 -0.4081  0.4212  0.7722
 6624TIP3    H241288   0.290   0.448  16.779  0.6640  0.4334  0.2000
 6625TIP3   OH241289   4.767   5.415  15.259 -0.4521  0.2216  0.7281
 6625TIP3    H141290   4.702   5.473  15.221  0.3980 -0.3022 -1.6848
 6625TIP3    H241291   4.798   5.462  15.337 -0.6017  2.4973 -0.4887
 6626TIP3   OH241292   1.852   1.360  16.003 -0.1574  0.1486 -0.3687
 6626TIP3    H141293   1.872   1.391  15.915 -1.9048 -0.1969 -0.9286
 6626TIP3    H241294   1.784   1.293  15.991  0.8786 -1.2507  1.1089
 6627TIP3   OH241295   4.903   6.042  13.090 -0.5157  0.1722  0.9189
 6627TIP3    H141296   4.893   6.105  13.162  0.4919 -0.4821  1.6534
 6627TIP3    H241297   4.829   6.060  13.032 -1.1946  0.8917  1.9838
 6628TIP3   OH241298   6.638   1.876   3.472 -0.0224 -0.1297  0.5090
 6628TIP3    H141299   6.650   1.858   3.565 -2.0034 -0.2593  0.7752
 6628TIP3    H241300   6.637   1.789   3.431 -1.2690 -0.1985  0.6669
 6629TIP3   OH241301   4.456   5.660  13.129  0.1747  0.0990  0.0401
 6629TIP3    H141302   4.481   5.702  13.047 -1.0934 -0.3483 -0.5974
 6629TIP3    H241303   4.463   5.729  13.195 -1.0238  1.0946 -0.8341
 6630TIP3   OH241304   2.700   4.913   1.410 -0.3869  0.0294 -0.3013
 6630TIP3    H141305   2.618   4.886   1.369 -1.3832 -0.3985  1.8438
 6630TIP3    H241306   2.690   5.008   1.421 -0.5296  0.0004 -0.1764
 6631TIP3   OH241307   6.646   5.720   0.660 -0.2761  0.6187  0.1046
 6631TIP3    H141308   6.630   5.712   0.754 -0.4499  0.4181  0.0576
 6631TIP3    H241309   6.593   5.651   0.621 -0.1609  0.6678 -0.1367
 6632TIP3   OH241310   1.407   4.358   5.398 -0.2534  0.7735  0.1598
 6632TIP3    H141311   1.360   4.434   5.433 -0.9561  0.8269 -0.8534
 6632TIP3    H241312   1.443   4.314   5.475 -0.2414  1.8640  0.7985
 6633TIP3   OH241313   2.722   6.306  11.890 -0.3488  0.2265 -0.5153
 6633TIP3    H141314   2.754   6.334  11.804 -0.7760  1.7005 -0.2267
 6633TIP3    H241315   2.687   6.386  11.929 -0.6086 -0.5278  0.8378
 6634TIP3   OH241316   5.399   5.059  12.010  0.3714 -0.1399 -0.5225
 6634TIP3    H141317   5.361   5.007  11.938  0.6200 -0.0711 -0.7025
 6634TIP3    H241318   5.367   5.015  12.089 -0.7425  0.3824 -0.6595
 6635TIP3   OH241319   3.895   5.209   5.229  0.1263  0.2839 -0.0005
 6635TIP3    H141320   3.810   5.233   5.191 -0.1933  0.0393  0.5494
 6635TIP3    H241321   3.894   5.114   5.231  1.0426  0.2222 -1.3769
 6636TIP3   OH241322   5.929   3.586   2.891  0.0375 -0.6682 -0.3126
 6636TIP3    H141323   5.949   3.508   2.840  0.0989 -1.7061  1.2222
 6636TIP3    H241324   5.904   3.552   2.977  1.3512  1.0362  0.8111
 6637TIP3   OH241325   5.484   5.917  15.814 -0.0830  0.4918  0.0331
 6637TIP3    H141326   5.523   5.934  15.728  1.3408 -0.9294  0.3477
 6637TIP3    H241327   5.524   5.835  15.842 -1.1268  0.5227  1.7136
 6638TIP3   OH241328   5.487   0.654  15.493  0.0609 -0.9257  0.9504
 6638TIP3    H141329   5.486   0.749  15.483 -0.5138 -0.8413  1.7588
 6638TIP3    H241330   5.432   0.637  15.569  0.2656 -1.8994  0.8924
 6639TIP3   OH241331   1.781   1.806  16.259  0.3755 -0.0633 -0.2280
 6639TIP3    H141332   1.776   1.742  16.330 -2.6925 -0.2446 -0.4718
 6639TIP3    H241333   1.706   1.863  16.274  1.0085  1.3063 -2.0382
 6640TIP3   OH241334   0.196   1.556   5.979  0.5706 -0.1033 -0.1485
 6640TIP3    H141335   0.221   1.646   6.003  1.6526 -0.1256 -1.1138
 6640TIP3    H241336   0.188   1.558   5.884  1.4125 -1.2021 -0.2686
 6641TIP3   OH241337   0.349   1.658  16.327 -0.3765 -0.3589  0.0853
 6641TIP3    H141338   0.382   1.729  16.382 -1.3393 -0.3360  0.6552
 6641TIP3    H241339   0.310   1.704  16.252  0.5176 -0.3721 -0.4048
 6642TIP3   OH241340   3.806   4.093   3.426 -0.0469 -0.2820 -0.3650
 6642TIP3    H141341   3.831   4.183   3.409 -2.4884  0.6816  0.6314
 6642TIP3    H241342   3.737   4.074   3.362 -0.7331 -0.8313  0.5075
 6643TIP3   OH241343   3.836   6.036   0.782  0.5532 -0.0527 -0.1207
 6643TIP3    H141344   3.909   6.039   0.720  1.1572  0.3332  0.5876
 6643TIP3    H241345   3.812   5.944   0.788 -0.1847  0.0088 -1.6793
 6644TIP3   OH241346   1.899   3.411  13.112  0.2565 -0.3087  0.2861
 6644TIP3    H141347   1.913   3.470  13.187 -0.0389 -1.1901  1.0517
 6644TIP3    H241348   1.988   3.386  13.085  0.3584 -0.2002  0.5154
 6645TIP3   OH241349   3.292   1.515   0.020 -0.3547 -0.5295 -0.5557
 6645TIP3    H141350   3.252   1.592   0.060  0.7089 -0.3090  0.1285
 6645TIP3    H241351   3.351   1.550  -0.046  0.0444 -0.7534 -0.3234
 6646TIP3   OH241352   2.679   2.923  11.547  0.1032 -0.4109 -0.0280
 6646TIP3    H141353   2.680   2.828  11.548 -1.8312 -0.5198 -1.9053
 6646TIP3    H241354   2.628   2.947  11.625 -1.4982 -1.0534 -0.8359
 6647TIP3   OH241355   1.743   2.958  13.949 -0.0783  0.6193  0.2041
 6647TIP3    H141356   1.792   3.026  13.903  3.4461 -2.0569 -0.3994
 6647TIP3    H241357   1.772   2.965  14.040  0.6525 -0.3197  0.0505
 6648TIP3   OH241358   2.132   5.090   5.790 -0.2542  0.5002  0.5656
 6648TIP3    H141359   2.045   5.120   5.766 -1.7304 -2.5728  1.4812
 6648TIP3    H241360   2.129   4.995   5.777  4.0267  0.4774 -2.4367
 6649TIP3   OH241361   0.098   6.289  11.250 -0.6101 -0.3275  0.3917
 6649TIP3    H141362   0.009   6.288  11.284 -0.0628 -1.2389  1.9053
 6649TIP3    H241363   0.124   6.197  11.247  0.4809 -0.0402  0.5379
 6650TIP3   OH241364   2.471   4.136   4.303 -0.6130 -0.2406 -0.7310
 6650TIP3    H141365   2.548   4.192   4.317 -1.8284  1.1452  0.8479
 6650TIP3    H241366   2.470   4.077   4.378 -0.3934 -1.1290 -1.4171
 6651TIP3   OH241367   0.561   2.016   6.414  0.0938 -0.2629 -0.4817
 6651TIP3    H141368   0.601   1.940   6.458 -0.3409  0.8252  1.9726
 6651TIP3    H241369   0.629   2.083   6.415 -1.0759  1.0190  2.1242
 6652TIP3   OH241370   1.500   6.226  13.219  0.0989 -0.0116 -0.0130
 6652TIP3    H141371   1.560   6.264  13.155 -2.1426  0.9415 -1.6582
 6652TIP3    H241372   1.419   6.275  13.208 -0.6876 -0.4830  2.9320
 6653TIP3   OH241373   4.631   5.458   1.359 -0.3373 -0.6711 -1.0294
 6653TIP3    H141374   4.552   5.438   1.308  1.1750 -2.0142 -2.9768
 6653TIP3    H241375   4.675   5.526   1.309  0.4186 -0.9017 -0.6891
 6654TIP3   OH241376   6.085   0.247  10.559  0.2849 -0.0008  0.1334
 6654TIP3    H141377   6.027   0.320  10.584  0.7887  0.5811 -0.3533
 6654TIP3    H241378   6.056   0.224  10.471 -0.0233 -0.5554  0.3749
 6655TIP3   OH241379   3.189   1.272  16.372 -0.4886  0.0054  0.3445
 6655TIP3    H141380   3.177   1.179  16.353 -2.2334  0.2358  0.1483
 6655TIP3    H241381   3.107   1.313  16.344  1.0269  1.9450 -1.5915
 6656TIP3   OH241382   2.957   0.518   5.831 -0.1679  0.5574  0.0848
 6656TIP3    H141383   2.981   0.428   5.808  2.2356  1.5520 -1.6188
 6656TIP3    H241384   2.897   0.545   5.761  0.8399  0.9810 -0.6223
 6657TIP3   OH241385   6.204   2.227   1.938  0.2431 -0.6084 -0.0884
 6657TIP3    H141386   6.282   2.218   1.993  1.0655  1.4541 -0.7948
 6657TIP3    H241387   6.136   2.258   1.997  0.9728  1.0686 -0.0587
 6658TIP3   OH241388   0.099   0.743  16.329 -0.2265  0.5287 -0.2915
 6658TIP3    H141389   0.133   0.696  16.253  0.9101 -1.8541  1.5551
 6658TIP3    H241390   0.160   0.817  16.340  1.6936 -1.0244  0.1904
 6659TIP3   OH241391   0.480   5.258  13.654 -0.6103 -0.2876  0.3248
 6659TIP3    H141392   0.454   5.182  13.707 -1.7512  0.2919  0.6314
 6659TIP3    H241393   0.402   5.279  13.604  0.5397 -1.0265 -1.8842
 6660TIP3   OH241394   4.748   4.571   4.555 -0.1304  0.7025  0.4197
 6660TIP3    H141395   4.694   4.585   4.633  0.0695  1.3174  0.4561
 6660TIP3    H241396   4.835   4.552   4.590 -0.4448 -0.9818  0.3781
 6661TIP3   OH241397   5.619   4.574   0.784  0.4867  0.0899  0.4721
 6661TIP3    H141398   5.635   4.488   0.746 -1.7689  0.3833 -1.3225
 6661TIP3    H241399   5.586   4.555   0.872  0.1719 -0.8889  0.1568
 6662TIP3   OH241400   6.553   0.041   1.158  0.3786  0.7650  0.2458
 6662TIP3    H141401   6.580   0.116   1.105  1.0577  1.8385  2.0187
 6662TIP3    H241402   6.523   0.080   1.240 -0.2751 -0.8613  0.8152
 6663TIP3   OH241403   3.568   1.786  14.525 -0.7937 -0.0337  0.0025
 6663TIP3    H141404   3.613   1.741  14.596 -2.5253 -1.1000  0.4688
 6663TIP3    H241405   3.586   1.732  14.448  0.0907  0.4774 -0.1720
 6664TIP3   OH241406   4.535   1.725  12.962  0.1891 -0.1831 -0.5610
 6664TIP3    H141407   4.527   1.719  13.057  1.5418  0.2586 -0.3956
 6664TIP3    H241408   4.628   1.708  12.944  0.1015  0.4296 -1.7370
 6665TIP3   OH241409   5.972   0.018   3.575 -0.1660  0.3506 -0.1579
 6665TIP3    H141410   5.987  -0.077   3.584 -0.8581 -0.0589 -2.6421
 6665TIP3    H241411   6.028   0.057   3.642 -0.3838 -1.8230  1.4063
 6666TIP3   OH241412   3.010   4.318  14.150 -0.2608 -0.5619 -0.6504
 6666TIP3    H141413   3.106   4.328  14.152 -0.3818  0.5466  0.4777
 6666TIP3    H241414   2.990   4.314  14.056  0.6160  2.5612 -1.0782
 6667TIP3   OH241415   1.656   0.242  12.888  0.4870 -0.2416  0.4836
 6667TIP3    H141416   1.592   0.253  12.959  0.3820  0.9020  0.2273
 6667TIP3    H241417   1.614   0.179  12.829 -0.2431  0.2000  0.5112
 6668TIP3   OH241418   2.150   1.133   3.644  0.3357  0.1281  0.2261
 6668TIP3    H141419   2.231   1.087   3.666  0.4851  1.2229  2.3001
 6668TIP3    H241420   2.147   1.206   3.706 -1.6029  0.8629 -0.6511
 6669TIP3   OH241421   1.220   1.773   5.768  0.0904 -0.4868 -0.6156
 6669TIP3    H141422   1.180   1.859   5.783  3.2282  1.0046  0.0011
 6669TIP3    H241423   1.213   1.760   5.674  0.7626  1.1525 -0.9347
 6670TIP3   OH241424   5.341   0.743  16.724  0.0263 -0.0340  0.6582
 6670TIP3    H141425   5.279   0.718  16.792  0.0697  1.3019  1.2128
 6670TIP3    H241426   5.360   0.835  16.741  0.4864  0.1700 -0.8138
 6671TIP3   OH241427   5.459   1.497  11.531  0.2184 -0.0448 -0.5147
 6671TIP3    H141428   5.393   1.530  11.470  1.0326  0.8131 -0.9539
 6671TIP3    H241429   5.410   1.477  11.611 -0.1626  3.7416  0.3703
 6672TIP3   OH241430   2.036   2.814  12.195  0.3974 -0.1051  0.5771
 6672TIP3    H141431   2.034   2.749  12.265  1.4846  0.2861  0.9979
 6672TIP3    H241432   2.129   2.833  12.183  0.4436 -1.5245 -2.2772
 6673TIP3   OH241433   2.699   6.659  14.861 -0.1429  0.2496  0.1974
 6673TIP3    H141434   2.743   6.679  14.778  1.1632  0.9987  1.0389
 6673TIP3    H241435   2.757   6.694  14.928 -1.5606  0.3643  1.4149
 6674TIP3   OH241436   6.540   6.493   2.013  0.2463 -0.0544  0.1707
 6674TIP3    H141437   6.621   6.532   1.980  0.0080  0.3895  0.1105
 6674TIP3    H241438   6.567   6.446   2.092  0.2172  1.8327  1.3654
 6675TIP3   OH241439   3.979   5.846  15.949 -0.2867  0.0639  0.4996
 6675TIP3    H141440   4.012   5.800  16.027 -0.5001 -0.6498  0.1840
 6675TIP3    H241441   4.050   5.840  15.886 -1.1605 -2.0178 -0.3979
 6676TIP3   OH241442   1.530   2.470  13.298  0.1038 -0.3272 -0.2265
 6676TIP3    H141443   1.479   2.513  13.367  0.2579 -1.5129  0.6575
 6676TIP3    H241444   1.611   2.443  13.341  0.9041  0.3219 -1.2838
 6677TIP3   OH241445   4.141   0.204   4.171  0.0957 -0.3389 -0.0373
 6677TIP3    H141446   4.213   0.260   4.200 -0.0691 -0.9281  1.6046
 6677TIP3    H241447   4.163   0.117   4.206 -0.1253 -1.1093 -1.7256
 6678TIP3   OH241448   5.560   1.655  14.375  0.0854  0.5608  0.1646
 6678TIP3    H141449   5.467   1.635  14.361 -0.2737  1.7210  0.7360
 6678TIP3    H241450   5.578   1.728  14.316  1.0087 -0.5128 -0.9211
 6679TIP3   OH241451   4.363   6.727  14.022  0.9062  0.1814 -0.2508
 6679TIP3    H141452   4.414   6.649  14.045  0.3580 -1.5512 -4.0189
 6679TIP3    H241453   4.383   6.741  13.929 -0.7983  3.2147 -0.2830
 6680TIP3   OH241454   0.143   1.834   1.695 -0.0762  0.0912 -0.5383
 6680TIP3    H141455   0.149   1.876   1.781  2.5569  1.0543 -1.0944
 6680TIP3    H241456   0.085   1.890   1.644 -0.4756  0.3244  0.1649
 6681TIP3   OH241457   6.231   4.062   4.906  0.2976 -0.0371  0.1871
 6681TIP3    H141458   6.175   4.096   4.976  2.3133  1.4981  1.1626
 6681TIP3    H241459   6.174   4.004   4.856 -1.6915  0.1513  2.0736
 6682TIP3   OH241460   2.254   4.392   2.761 -0.2724  0.1721  0.0671
 6682TIP3    H141461   2.221   4.478   2.736 -1.1846  0.4187  1.8829
 6682TIP3    H241462   2.175   4.342   2.784  0.3543 -0.4865  0.8756
 6683TIP3   OH241463   5.083   5.998  13.859 -0.1691  0.1558 -0.2787
 6683TIP3    H141464   5.154   6.049  13.819  0.6815 -1.4220 -0.8350
 6683TIP3    H241465   5.120   5.911  13.872 -0.6754  0.2972  3.1292
 6684TIP3   OH241466   0.044   4.406   1.988  0.5319  0.1208 -0.0947
 6684TIP3    H141467   0.006   4.489   2.016 -2.9710 -1.5643  0.7304
 6684TIP3    H241468   0.042   4.410   1.892  0.5905  1.0420 -0.0667
 6685TIP3   OH241469   5.486   0.590  16.183 -0.0386 -0.6209 -0.3455
 6685TIP3    H141470   5.528   0.523  16.129  1.2186  1.0913 -1.6029
 6685TIP3    H241471   5.558   0.645  16.213 -1.2245  2.1661 -2.2049
 6686TIP3   OH241472   5.242   6.157   1.781  0.0766  0.5940  0.0543
 6686TIP3    H141473   5.249   6.064   1.804 -1.8827 -0.0216 -1.4994
 6686TIP3    H241474   5.211   6.199   1.861 -0.0505 -0.2871  0.4839
 6687TIP3   OH241475   3.638   1.559   0.374  0.5901 -0.2024 -0.1790
 6687TIP3    H141476   3.729   1.536   0.355  0.9122  0.2471  0.7537
 6687TIP3    H241477   3.639   1.584   0.467  0.0756  2.5355 -0.8186
 6688TIP3   OH241478   1.169   4.693   4.464  1.1964 -0.0016  0.1700
 6688TIP3    H141479   1.226   4.650   4.528  1.7620  0.3503 -0.0888
 6688TIP3    H241480   1.123   4.621   4.420 -0.0880 -0.1989  1.7685
 6689TIP3   OH241481   2.749   6.571   1.306 -0.1843  0.0154  0.3266
 6689TIP3    H141482   2.824   6.605   1.356  0.1755  0.4600 -0.4935
 6689TIP3    H241483   2.734   6.483   1.342  0.9862 -0.2315  0.2591
 6690TIP3   OH241484   5.992   4.191  13.127  0.2341  0.2841  0.7984
 6690TIP3    H141485   5.911   4.232  13.098 -0.0639  0.6566  2.1339
 6690TIP3    H241486   5.967   4.103  13.153  0.3097  0.3017  0.9313
 6691TIP3   OH241487   4.327   6.240   4.149 -0.6651  0.2976  0.3112
 6691TIP3    H141488   4.388   6.204   4.085 -1.8119  0.0405 -0.6839
 6691TIP3    H241489   4.243   6.199   4.128 -2.0120  3.2452 -0.7163
 6692TIP3   OH241490   5.548   2.628  12.138 -0.2838 -0.2186  0.0496
 6692TIP3    H141491   5.638   2.661  12.131 -0.2960  0.2381  1.7606
 6692TIP3    H241492   5.516   2.628  12.048  2.0502 -2.2103 -0.9002
 6693TIP3   OH241493   1.162   6.736   2.691  0.5715 -0.3353 -0.2188
 6693TIP3    H141494   1.093   6.670   2.697  1.9491 -1.7843  0.1389
 6693TIP3    H241495   1.166   6.775   2.778 -1.2501  1.3585 -0.8043
 6694TIP3   OH241496   1.362   4.856  14.497  0.0625 -0.2501 -0.6731
 6694TIP3    H141497   1.363   4.907  14.578 -1.7082 -2.5199  0.8894
 6694TIP3    H241498   1.453   4.857  14.468  0.6226  1.2285  0.9173
 6695TIP3   OH241499   0.449   4.375   5.840 -0.1043 -0.1235  0.1423
 6695TIP3    H141500   0.364   4.417   5.833 -0.4422 -0.2986  2.3785
 6695TIP3    H241501   0.512   4.447   5.833 -0.4635  0.1216 -0.6222
 6696TIP3   OH241502   4.120   4.941   3.261  0.2212 -0.2782  0.0690
 6696TIP3    H141503   4.202   4.893   3.270 -0.0488 -1.3814 -2.6137
 6696TIP3    H241504   4.133   5.020   3.313  2.8515 -0.5663 -0.0370
 6697TIP3   OH241505   3.147   3.946  13.252 -0.2641 -0.0546 -0.2666
 6697TIP3    H141506   3.106   3.916  13.171 -0.8544  0.5438 -0.2009
 6697TIP3    H241507   3.183   4.032  13.230 -1.8046  0.8289  0.5031
 6698TIP3   OH241508   0.878   3.620   3.858 -0.0812 -0.0396 -0.3106
 6698TIP3    H141509   0.843   3.532   3.871 -0.8141  0.1236 -1.1615
 6698TIP3    H241510   0.938   3.611   3.784  0.9911 -0.1110  0.5255
 6699TIP3   OH241511   2.150   0.613  15.841 -0.6406 -0.6924  0.2949
 6699TIP3    H141512   2.230   0.630  15.792 -0.8560 -0.0426  0.1647
 6699TIP3    H241513   2.171   0.537  15.896 -0.1970 -1.0292 -0.3297
 6700TIP3   OH241514   2.314   1.268  16.545 -0.2081  0.5286  0.6424
 6700TIP3    H141515   2.221   1.259  16.523 -0.1380  1.5823 -0.1380
 6700TIP3    H241516   2.356   1.291  16.463  0.9066 -0.8572  0.7915
 6701TIP3   OH241517   0.124   3.963   3.008 -0.8001  0.3775 -0.2162
 6701TIP3    H141518   0.191   3.955   2.940  0.0599  1.2376  0.5004
 6701TIP3    H241519   0.114   3.874   3.042 -0.0711  0.2204 -0.3809
 6702TIP3   OH241520   5.531   0.859   3.619 -0.1585 -0.2670  0.4551
 6702TIP3    H141521   5.502   0.944   3.587  0.0075 -0.3973 -0.0576
 6702TIP3    H241522   5.516   0.861   3.713  1.8878  1.1634  0.8128
 6703TIP3   OH241523   0.808   5.643   5.421  0.2861 -0.3224 -0.0177
 6703TIP3    H141524   0.883   5.626   5.365 -0.0943 -0.8379 -0.3807
 6703TIP3    H241525   0.749   5.570   5.405 -0.4418  0.2430  0.0067
 6704TIP3   OH241526   2.690   5.390  12.493  0.3915  0.0583  0.1202
 6704TIP3    H141527   2.656   5.401  12.404 -0.0303 -0.3348  0.2281
 6704TIP3    H241528   2.722   5.477  12.518  0.2680  0.2298 -0.3156
 6705TIP3   OH241529   2.927   0.072  15.546  0.1953 -0.0484 -0.2444
 6705TIP3    H141530   2.910   0.056  15.453 -1.0868  0.4399 -0.1029
 6705TIP3    H241531   2.891  -0.004  15.591 -0.3658  0.3278 -0.0502
 6706TIP3   OH241532   4.855   1.939  17.230  0.3669  0.0043 -0.5278
 6706TIP3    H141533   4.874   1.846  17.223  1.9003  0.2512 -0.0068
 6706TIP3    H241534   4.895   1.967  17.312 -0.0211  1.1434 -0.6983
 6707TIP3   OH241535   4.099   5.023  11.771 -0.2406 -0.2884 -0.6138
 6707TIP3    H141536   4.062   4.935  11.771  1.2587 -0.9735  1.3544
 6707TIP3    H241537   4.049   5.070  11.704 -1.6899 -2.3554 -1.0565
 6708TIP3   OH241538   0.135   0.390  13.361  0.3264 -0.8631 -0.1815
 6708TIP3    H141539   0.112   0.480  13.385 -1.7045 -1.1849 -0.6874
 6708TIP3    H241540   0.222   0.396  13.322  0.5326  0.7572  0.4608
 6709TIP3   OH241541   3.112   3.203  12.082  0.0716 -0.1794 -0.0170
 6709TIP3    H141542   3.115   3.171  12.173 -1.1864  0.9532  0.4571
 6709TIP3    H241543   3.062   3.284  12.087 -0.6919 -0.4900 -1.8575
 6710TIP3   OH241544   5.230   6.479   3.296  0.1523  0.4665  0.8538
 6710TIP3    H141545   5.309   6.529   3.277 -0.9149  1.9437  0.1929
 6710TIP3    H241546   5.226   6.412   3.228  0.4539  0.8245  0.4866
 6711TIP3   OH241547   6.626   3.114  17.255  0.1048 -0.2288  0.2688
 6711TIP3    H141548   6.610   3.027  17.218  1.4753 -1.6375  2.7490
 6711TIP3    H241549   6.671   3.162  17.185 -1.3428 -1.2169 -1.4094
 6712TIP3   OH241550   1.670   2.454   3.472 -0.2667 -0.6338 -0.3606
 6712TIP3    H141551   1.599   2.398   3.441 -0.7230  0.9757 -2.4519
 6712TIP3    H241552   1.742   2.436   3.413  0.4901 -0.9134  0.6198
 6713TIP3   OH241553   4.648   4.988  13.890 -0.1490 -0.1280  0.3385
 6713TIP3    H141554   4.649   4.940  13.973 -2.6818  1.5551  1.4354
 6713TIP3    H241555   4.725   5.044  13.894 -0.8050  0.6937  2.0618
 6714TIP3   OH241556   5.302   6.199   1.257  0.3868  0.1107 -0.4680
 6714TIP3    H141557   5.261   6.284   1.242 -1.4824 -0.7264 -0.3784
 6714TIP3    H241558   5.298   6.188   1.352  1.4437  0.2839 -0.3907
 6715TIP3   OH241559   3.124   4.294  13.660 -0.4245 -0.7129  0.1297
 6715TIP3    H141560   3.181   4.366  13.632 -0.4342 -0.4076  0.8795
 6715TIP3    H241561   3.177   4.215  13.648 -0.1839 -0.5213 -0.0759
 6716TIP3   OH241562   0.975   2.084   4.888 -0.1028 -0.0452  0.5019
 6716TIP3    H141563   0.917   2.131   4.947 -0.9727 -0.0592 -0.3165
 6716TIP3    H241564   0.964   1.992   4.912  1.1990  0.0914  1.7483
 6717TIP3   OH241565   6.357   0.213   0.911  0.8187 -0.2161  0.2528
 6717TIP3    H141566   6.346   0.132   0.962 -0.4681 -0.2936 -0.1207
 6717TIP3    H241567   6.319   0.281   0.966  0.2129 -0.1644 -0.2223
 6718TIP3   OH241568   4.547   4.282   6.420  0.1497 -0.2329 -0.6501
 6718TIP3    H141569   4.532   4.188   6.430 -0.4505  0.0099  0.9941
 6718TIP3    H241570   4.643   4.291   6.417  0.5444 -0.5843  3.9614
 6719TIP3   OH241571   3.781   3.166   0.427  0.1016  0.0825  0.1505
 6719TIP3    H141572   3.772   3.137   0.518  0.2775 -1.4368 -0.2925
 6719TIP3    H241573   3.875   3.187   0.418  0.5866 -2.0936 -0.3076
 6720TIP3   OH241574   6.144   3.028  12.031 -0.4307 -0.7521  0.1372
 6720TIP3    H141575   6.126   2.937  12.007 -1.0338 -0.4005 -0.7943
 6720TIP3    H241576   6.131   3.031  12.126 -0.3336 -1.6443  0.1930
 6721TIP3   OH241577   3.317   4.510   1.799  0.6038  0.4177 -0.1542
 6721TIP3    H141578   3.385   4.445   1.781  0.5522  0.3728 -0.1890
 6721TIP3    H241579   3.312   4.563   1.720 -1.3305 -1.3067 -1.2899
 6722TIP3   OH241580   4.991   4.127   3.861 -0.2846  0.0597  0.4004
 6722TIP3    H141581   4.989   4.222   3.869 -0.3676  0.3197 -2.0079
 6722TIP3    H241582   4.908   4.098   3.899 -1.7098  1.2798 -1.6119
 6723TIP3   OH241583   1.379   1.117  17.124 -0.0950 -0.1534  0.3542
 6723TIP3    H141584   1.458   1.120  17.177  1.1494  0.4058 -1.4334
 6723TIP3    H241585   1.337   1.034  17.149  1.1557 -0.5661  1.1912
 6724TIP3   OH241586   0.324   1.771   0.191  0.5418  0.2665  0.2941
 6724TIP3    H141587   0.236   1.794   0.220 -0.4760 -0.3057 -2.0697
 6724TIP3    H241588   0.369   1.855   0.179 -0.1094  0.6159  0.2851
 6725TIP3   OH241589   0.289   2.560   4.635 -0.3704  0.5590 -0.4621
 6725TIP3    H141590   0.335   2.492   4.685 -1.8107  0.1476  0.3729
 6725TIP3    H241591   0.359   2.615   4.599  0.7859 -0.5868 -0.0482
 6726TIP3   OH241592   3.479   5.481   0.010 -0.2450 -0.5994  0.6665
 6726TIP3    H141593   3.435   5.535  -0.056 -1.2515 -1.6793  0.4197
 6726TIP3    H241594   3.431   5.398   0.009  2.8810 -2.5517 -0.9161
 6727TIP3   OH241595   0.947   3.222  16.663 -0.2728  0.2571 -0.0158
 6727TIP3    H141596   0.902   3.188  16.586  1.1938  1.1255 -1.3236
 6727TIP3    H241597   0.908   3.176  16.737 -1.6509 -0.6807 -1.2831
 6728TIP3   OH241598   0.526   1.907  14.495  0.1569  0.1469  0.3807
 6728TIP3    H141599   0.534   1.935  14.404  0.7075 -0.9739  0.0623
 6728TIP3    H241600   0.524   1.988  14.545 -0.5773  0.7971 -0.6487
 6729TIP3   OH241601   3.737   4.392  15.733  0.2534  0.0433  0.9027
 6729TIP3    H141602   3.679   4.467  15.750 -0.3570  0.1052 -1.2311
 6729TIP3    H241603   3.822   4.432  15.713  0.1567  0.1342  0.6649
 6730TIP3   OH241604   0.143   1.674  12.910  0.2360  0.0723  0.4114
 6730TIP3    H141605   0.133   1.761  12.871  1.8516  0.2940  0.4259
 6730TIP3    H241606   0.104   1.614  12.847 -0.0591  0.7114 -0.0256
 6731TIP3   OH241607   4.940   5.109   2.390  0.2416 -0.0078 -0.0152
 6731TIP3    H141608   5.023   5.108   2.437 -0.1673 -0.1580  0.7346
 6731TIP3    H241609   4.946   5.038   2.327  0.8560  0.2783 -0.2846
 6732TIP3   OH241610   3.270   5.179   2.655 -0.2963  0.0657 -0.0590
 6732TIP3    H141611   3.211   5.248   2.687  0.8717  0.9034  0.3578
 6732TIP3    H241612   3.346   5.227   2.622 -0.0994 -0.9665 -1.1536
 6733TIP3   OH241613   5.294   2.062  14.622 -0.0162 -0.4112 -0.0149
 6733TIP3    H141614   5.373   2.016  14.650 -0.1852 -1.5341 -1.2631
 6733TIP3    H241615   5.245   1.996  14.573 -1.9544  0.1356  1.1167
 6734TIP3   OH241616   3.366   0.375  15.779  0.5903 -0.6479 -0.1538
 6734TIP3    H141617   3.359   0.467  15.802 -0.7102 -0.6343 -0.5476
 6734TIP3    H241618   3.444   0.370  15.724  0.5398  0.2545 -0.3255
 6735TIP3   OH241619   2.336   2.390   4.984  0.3141  0.0816 -0.2954
 6735TIP3    H141620   2.431   2.385   4.997  0.3048 -1.3329 -0.6366
 6735TIP3    H241621   2.316   2.316   4.926 -0.9865  0.4286 -0.3134
 6736TIP3   OH241622   3.976   2.975   4.257  0.1147 -0.0697  0.6900
 6736TIP3    H141623   4.039   2.914   4.217 -0.5627 -0.9719  0.9705
 6736TIP3    H241624   3.985   2.962   4.351  0.7172  1.0524  0.8080
 6737TIP3   OH241625   6.632   0.872  17.083  0.4737  0.0297  0.0160
 6737TIP3    H141626   6.679   0.866  17.166 -1.3634  0.7869  1.1896
 6737TIP3    H241627   6.596   0.961  17.082 -2.2777 -0.9787  0.0159
 6738TIP3   OH241628   5.593   0.740   5.558 -0.0526 -0.0454 -0.0154
 6738TIP3    H141629   5.664   0.780   5.607 -0.8385 -0.1040  1.2032
 6738TIP3    H241630   5.622   0.744   5.467  1.3597  0.2079  0.4260
 6739TIP3   OH241631   5.750   0.948  11.777 -0.6920  0.6640 -0.3038
 6739TIP3    H141632   5.696   0.872  11.755  0.8550 -0.2900 -0.9739
 6739TIP3    H241633   5.800   0.919  11.854 -0.4956  1.2102 -0.2259
 6740TIP3   OH241634   5.281   1.210   1.465  0.4317  0.3925 -0.1242
 6740TIP3    H141635   5.295   1.231   1.557  1.8378 -0.1301 -0.2042
 6740TIP3    H241636   5.293   1.115   1.460  0.8382  0.4793 -0.9325
 6741TIP3   OH241637   5.167   4.408  15.898  0.0005 -0.1891 -0.2479
 6741TIP3    H141638   5.154   4.352  15.822  0.2019 -0.2038 -0.2717
 6741TIP3    H241639   5.242   4.463  15.876 -1.2832  1.3539 -0.9627
 6742TIP3   OH241640   4.724   6.658  14.594 -0.1773  0.5547  0.2082
 6742TIP3    H141641   4.701   6.703  14.675 -0.3770  2.1804 -0.7063
 6742TIP3    H241642   4.644   6.612  14.567 -0.6975  1.5659 -0.0276
 6743TIP3   OH241643   6.099   0.200  10.266  0.0265  0.7325 -0.6274
 6743TIP3    H141644   6.153   0.275  10.243 -0.4486  1.1851 -0.2913
 6743TIP3    H241645   6.140   0.126  10.221 -0.7280  1.5264 -2.7798
 6744TIP3   OH241646   6.131   2.250   1.661  0.1093  0.5296 -0.2435
 6744TIP3    H141647   6.092   2.334   1.686 -0.8552 -0.5307  2.0746
 6744TIP3    H241648   6.178   2.222   1.739  0.2217 -1.2060 -0.9041
 6745TIP3   OH241649   1.237   4.026  12.690 -1.2350  0.5282  0.9893
 6745TIP3    H141650   1.184   3.976  12.753 -2.2318 -0.4953 -0.5819
 6745TIP3    H241651   1.312   3.969  12.672 -1.6025  0.2460  0.3211
 6746TIP3   OH241652   1.945   4.000  11.515 -0.6992  0.4106  0.1286
 6746TIP3    H141653   2.006   3.935  11.549  1.1491  2.0923  0.2595
 6746TIP3    H241654   1.866   3.951  11.493  0.7053 -1.8907 -0.0771
 6747TIP3   OH241655   4.155   5.909  14.327 -0.2699 -0.2531 -0.6028
 6747TIP3    H141656   4.210   5.830  14.328  1.2783  0.7151 -2.6515
 6747TIP3    H241657   4.122   5.913  14.238  1.6647  2.6791 -1.2944
 6748TIP3   OH241658   5.904   2.104   2.378 -0.1141 -0.8824 -0.5214
 6748TIP3    H141659   5.915   2.027   2.321  2.7884  0.0167 -1.3540
 6748TIP3    H241660   5.814   2.099   2.408 -0.8096 -3.1593 -2.6669
 6749TIP3   OH241661   5.563   3.130   4.776  0.2814  0.0890 -0.2131
 6749TIP3    H141662   5.583   3.224   4.774  0.8435  0.0645  1.7968
 6749TIP3    H241663   5.497   3.121   4.845  1.9253 -1.2095  1.3005
 6750TIP3   OH241664   2.514   6.205   5.794  0.7118  0.3595 -0.3293
 6750TIP3    H141665   2.491   6.255   5.873 -0.0651 -0.8606  0.2492
 6750TIP3    H241666   2.601   6.169   5.813 -0.2262 -1.4908  0.8391
 6751TIP3   OH241667   0.184   4.663   0.615  0.7785  0.4649 -0.0195
 6751TIP3    H141668   0.205   4.600   0.685  0.3009 -0.9032 -1.0643
 6751TIP3    H241669   0.109   4.624   0.570  0.5052  1.7789 -0.7309
 6752TIP3   OH241670   3.371   5.221  12.924  0.8309 -0.3973  0.3242
 6752TIP3    H141671   3.430   5.173  12.983  0.6441 -0.0868  0.7750
 6752TIP3    H241672   3.285   5.214  12.965  1.0672  1.7111  1.3222
 6753TIP3   OH241673   0.992   4.699  12.370  0.4388  0.3941 -0.0220
 6753TIP3    H141674   1.030   4.782  12.343 -0.7095  1.2056  0.7717
 6753TIP3    H241675   1.046   4.670  12.444  1.9820 -0.5357 -1.4465
 6754TIP3   OH241676   6.114   3.548  11.224 -0.4747 -0.1367 -0.1792
 6754TIP3    H141677   6.055   3.557  11.299  1.1561  1.2344  1.0073
 6754TIP3    H241678   6.167   3.471  11.244 -0.0167  0.2491  0.0994
 6755TIP3   OH241679   2.251   3.625  15.600  0.5456 -0.3922 -0.5798
 6755TIP3    H141680   2.228   3.533  15.613 -0.3745 -0.2906 -1.3655
 6755TIP3    H241681   2.331   3.623  15.548  1.6918 -0.7451  1.1295
 6756TIP3   OH241682   1.443   5.265  14.640  0.5161 -0.4200  0.0271
 6756TIP3    H141683   1.496   5.209  14.583  0.9446  0.3026 -0.3035
 6756TIP3    H241684   1.361   5.276  14.593  1.4598  1.5126 -1.2851
 6757TIP3   OH241685   4.575   3.199  15.186 -0.1139  0.3293 -0.8282
 6757TIP3    H141686   4.583   3.147  15.107 -0.4337 -0.1101 -0.5769
 6757TIP3    H241687   4.555   3.136  15.255  1.4002  0.5351 -0.1473
 6758TIP3   OH241688   1.781   0.232   4.917 -0.0108 -0.2314 -0.7906
 6758TIP3    H141689   1.732   0.271   4.845 -0.7634  1.4436  0.5225
 6758TIP3    H241690   1.864   0.281   4.920 -0.4042  0.4282  0.0508
 6759TIP3   OH241691   1.920   5.256   3.262 -0.1083 -0.3094  0.1217
 6759TIP3    H141692   1.977   5.265   3.186 -0.2827  1.6130  0.1574
 6759TIP3    H241693   1.903   5.162   3.269  1.2971 -0.6965 -1.1653
 6760TIP3   OH241694   1.634   0.779  14.117  0.1883 -0.2782  0.7831
 6760TIP3    H141695   1.631   0.807  14.025  1.5384  1.0707  1.1073
 6760TIP3    H241696   1.669   0.690  14.114  0.7264 -0.0508  0.0184
 6761TIP3   OH241697   5.034   4.561   2.698  0.4287 -0.4951 -0.0006
 6761TIP3    H141698   5.037   4.656   2.716  2.5173 -0.7835  1.6092
 6761TIP3    H241699   5.114   4.544   2.649 -0.1254 -1.3786 -0.6022
 6762TIP3   OH241700   0.686   4.370   2.292 -0.5744 -0.2659  0.4462
 6762TIP3    H141701   0.630   4.293   2.305 -2.3762  0.1762 -3.4140
 6762TIP3    H241702   0.627   4.444   2.299  0.1912  0.4515 -0.4891
 6763TIP3   OH241703   4.186   5.115  15.203 -0.9663 -0.1414  0.6858
 6763TIP3    H141704   4.271   5.077  15.225 -0.2858 -1.0000 -2.8170
 6763TIP3    H241705   4.199   5.209  15.213  0.7056 -0.1957 -0.5060
 6764TIP3   OH241706   1.523   2.523  12.573 -0.2170  0.0915  0.3887
 6764TIP3    H141707   1.581   2.519  12.650  0.2050  1.5590  0.1871
 6764TIP3    H241708   1.440   2.553  12.608 -0.0747  0.5886  0.3127
 6765TIP3   OH241709   4.547   0.580   4.876  0.0673  0.2006 -0.0770
 6765TIP3    H141710   4.634   0.614   4.858  0.6280 -1.0827  0.0774
 6765TIP3    H241711   4.561   0.510   4.939 -0.7105 -1.8488 -2.0288
 6766TIP3   OH241712   1.777   5.287   6.031  0.2769 -1.0454 -0.4864
 6766TIP3    H141713   1.716   5.283   5.957  0.2032 -1.3049 -0.4139
 6766TIP3    H241714   1.729   5.334   6.099  0.4328 -0.5964 -0.6840
 6767TIP3   OH241715   5.574   1.363  13.668 -0.5774  0.0456  0.0339
 6767TIP3    H141716   5.554   1.323  13.753 -1.5794  0.1332 -0.1446
 6767TIP3    H241717   5.573   1.290  13.607 -1.0380  0.1353 -0.0755
 6768TIP3   OH241718   6.585   6.460  11.801  0.3286 -0.2513  0.4242
 6768TIP3    H141719   6.669   6.493  11.833  0.6214 -1.9693  1.6033
 6768TIP3    H241720   6.608   6.382  11.749 -0.3582  0.9403 -1.8194
 6769TIP3   OH241721   5.759   2.877  13.702  0.5214  0.0102  0.3073
 6769TIP3    H141722   5.742   2.863  13.609  1.6579  1.8743 -0.2349
 6769TIP3    H241723   5.687   2.933  13.731  1.3398  1.3088 -0.0530
 6770TIP3   OH241724   0.660   1.781   5.831 -0.1483  0.4974 -0.2720
 6770TIP3    H141725   0.660   1.686   5.824 -0.5938  0.5839 -1.5721
 6770TIP3    H241726   0.742   1.809   5.789 -0.2017  0.7153 -0.2332
 6771TIP3   OH241727   0.864   5.668   0.240 -0.0089 -0.2114  0.2548
 6771TIP3    H141728   0.887   5.758   0.217  1.9337 -0.5454  0.6975
 6771TIP3    H241729   0.789   5.678   0.299 -0.4119  1.0485 -0.4203
 6772TIP3   OH241730   0.020   5.000  14.106 -0.1163 -0.0449 -0.0544
 6772TIP3    H141731  -0.024   4.971  14.026  2.1516 -1.6962 -0.7919
 6772TIP3    H241732   0.077   5.071  14.079  1.3268 -1.1940 -0.1439
 6773TIP3   OH241733   0.339   0.741   5.050  0.0981  0.5621  0.2397
 6773TIP3    H141734   0.253   0.716   5.016 -0.1762 -1.5738  2.2426
 6773TIP3    H241735   0.324   0.825   5.094 -0.4753  1.1740 -1.0647
 6774TIP3   OH241736   1.339   4.553  14.322 -0.6126  0.2274 -1.1423
 6774TIP3    H141737   1.366   4.611  14.251  0.3217  0.6834 -0.4411
 6774TIP3    H241738   1.321   4.611  14.395  1.0207 -0.3762 -0.2071
 6775TIP3   OH241739   1.582   1.157  11.866  0.3976 -0.8085 -0.7655
 6775TIP3    H141740   1.519   1.164  11.794  0.9152 -2.5895 -1.4364
 6775TIP3    H241741   1.535   1.111  11.935  1.1726 -2.9162 -1.5884
 6776TIP3   OH241742   1.944   4.357   4.677  0.5053  0.3648 -0.1527
 6776TIP3    H141743   1.863   4.345   4.629 -0.6848  0.1026  1.8079
 6776TIP3    H241744   1.917   4.376   4.767  2.4748 -3.3076  1.4889
 6777TIP3   OH241745   1.210   3.183   1.230 -0.1360 -0.1455 -0.1811
 6777TIP3    H141746   1.220   3.216   1.319  0.4207 -1.1726  0.1543
 6777TIP3    H241747   1.183   3.092   1.241  2.7134 -1.1976 -0.9890
 6778TIP3   OH241748   5.486   3.116   5.912  0.2455 -0.0500 -0.1194
 6778TIP3    H141749   5.431   3.039   5.894  1.0680 -0.5418 -0.6009
 6778TIP3    H241750   5.480   3.169   5.833 -0.1737  0.2951  0.1414
 6779TIP3   OH241751   4.273   5.817   1.097 -0.0748  0.0534  0.3415
 6779TIP3    H141752   4.197   5.835   1.152 -0.2888 -0.1981  0.1273
 6779TIP3    H241753   4.332   5.768   1.155  0.4772  1.3454  0.8993
 6780TIP3   OH241754   4.078   4.559  16.712  0.5017 -0.3319  0.2406
 6780TIP3    H141755   4.029   4.607  16.779  0.2040 -0.4469  0.1062
 6780TIP3    H241756   4.013   4.500  16.672  0.0777  1.3732 -1.7601
 6781TIP3   OH241757   0.729   4.608   6.641 -0.0474  0.4851  0.1580
 6781TIP3    H141758   0.737   4.520   6.604 -0.9790  0.9795 -1.2941
 6781TIP3    H241759   0.797   4.612   6.708  0.5925 -1.0242 -0.3607
 6782TIP3   OH241760   0.982   1.853   3.480  0.1952 -0.3406  0.7236
 6782TIP3    H141761   0.903   1.874   3.529 -0.6459 -2.2541  0.2644
 6782TIP3    H241762   0.951   1.820   3.396  1.5086 -0.1717  0.1463
 6783TIP3   OH241763   4.748   6.451   5.811 -0.0485 -0.3434 -0.1109
 6783TIP3    H141764   4.704   6.487   5.733  1.6268 -0.1329 -0.9996
 6783TIP3    H241765   4.830   6.416   5.778  0.5571 -0.5504  1.5360
 6784TIP3   OH241766   6.249   6.673  12.631 -0.0377 -0.0045 -0.0130
 6784TIP3    H141767   6.240   6.622  12.550  0.6203  0.2374 -0.2481
 6784TIP3    H241768   6.277   6.608  12.696 -1.3357 -0.3496  0.2173
 6785TIP3   OH241769   3.472   2.594  10.737 -0.1238  0.2832 -0.3751
 6785TIP3    H141770   3.462   2.500  10.724  1.6556 -0.0288  0.2721
 6785TIP3    H241771   3.506   2.603  10.826  1.0441  1.4408 -0.9081
 6786TIP3   OH241772   0.106   3.770   1.690  0.4485 -0.1539 -0.4550
 6786TIP3    H141773   0.031   3.721   1.724  0.6379 -1.2729 -1.5590
 6786TIP3    H241774   0.072   3.815   1.613  0.3537  1.2403  0.3832
 6787TIP3   OH241775   2.468   2.189  13.779  0.7728  0.0259  0.1130
 6787TIP3    H141776   2.561   2.211  13.770  0.7577 -0.5755 -2.1036
 6787TIP3    H241777   2.443   2.156  13.692 -0.9823 -1.8462  1.2472
 6788TIP3   OH241778   0.272   3.839   4.065 -0.4090 -0.2947 -0.6566
 6788TIP3    H141779   0.242   3.749   4.069  1.8738 -1.1148  2.9214
 6788TIP3    H241780   0.195   3.889   4.039 -2.7992 -2.8841  0.8913
 6789TIP3   OH241781   1.409   4.744   1.601 -0.2270  0.0414 -0.1030
 6789TIP3    H141782   1.433   4.774   1.514 -2.1317  0.6603 -0.4654
 6789TIP3    H241783   1.406   4.823   1.654  0.9237 -0.3315  0.5618
 6790TIP3   OH241784   0.513   6.700  16.908 -0.3505  0.2248 -0.6918
 6790TIP3    H141785   0.523   6.609  16.934 -0.0374  0.3400 -0.4004
 6790TIP3    H241786   0.549   6.705  16.820 -3.0857 -0.5657 -1.9747
 6791TIP3   OH241787   3.301   4.143  17.013 -0.5471  0.7083 -0.1864
 6791TIP3    H141788   3.293   4.048  17.022 -1.5561  0.8715  0.7908
 6791TIP3    H241789   3.264   4.162  16.927 -0.5687  0.2529 -0.2847
 6792TIP3   OH241790   1.367   0.829  14.775 -0.0440 -0.1655 -0.4122
 6792TIP3    H141791   1.373   0.811  14.869 -0.3463  0.6273 -0.2340
 6792TIP3    H241792   1.423   0.763  14.735 -0.4079 -0.9277  0.2731
 6793TIP3   OH241793   3.722   1.894   1.078  0.0226  0.2851  0.4161
 6793TIP3    H141794   3.690   1.846   1.002  0.2793 -0.1833  0.5999
 6793TIP3    H241795   3.747   1.979   1.043 -0.4800  0.3093  0.0954
 6794TIP3   OH241796   2.298   4.405   1.595  0.2976 -0.4025 -0.3029
 6794TIP3    H141797   2.336   4.465   1.530  1.0077  0.6062  0.9948
 6794TIP3    H241798   2.354   4.415   1.672 -1.4622 -0.3281  1.0182
 6795TIP3   OH241799   3.156   6.332   4.645  0.3542 -0.1467  0.0961
 6795TIP3    H141800   3.228   6.371   4.595  0.5536  2.6130  2.2406
 6795TIP3    H241801   3.196   6.257   4.689  0.7326 -1.2466 -1.9949
 6796TIP3   OH241802   6.491   3.613  15.273  0.1792  0.0251 -0.3282
 6796TIP3    H141803   6.404   3.588  15.306  0.9337 -1.4873  0.6565
 6796TIP3    H241804   6.552   3.576  15.337  1.6164 -0.4075 -1.8738
 6797TIP3   OH241805   1.831   0.199  16.778 -0.1303  0.3037  0.3740
 6797TIP3    H141806   1.836   0.268  16.844 -2.5792  0.8512  0.0974
 6797TIP3    H241807   1.742   0.206  16.743 -0.0248 -2.1824 -0.5839
 6798TIP3   OH241808   3.762   2.706   5.081 -0.0051 -0.0333  0.3258
 6798TIP3    H141809   3.755   2.764   5.005 -2.5153 -0.7424 -0.0846
 6798TIP3    H241810   3.701   2.744   5.145  0.6299 -0.5313  1.2366
 6799TIP3   OH241811   6.075   2.921   3.410  0.5927 -0.6232  0.6305
 6799TIP3    H141812   5.985   2.892   3.399  1.7614 -3.8913 -1.9425
 6799TIP3    H241813   6.123   2.843   3.437  2.9647  0.4408 -0.2049
 6800TIP3   OH241814   4.305   6.706  12.134 -0.4034 -0.0918 -0.7524
 6800TIP3    H141815   4.269   6.794  12.121  2.2394  1.3378  0.6593
 6800TIP3    H241816   4.372   6.698  12.067  0.0454 -0.5941 -0.2526
 6801TIP3   OH241817   0.981   3.961   3.624  0.0834  0.3224  0.2850
 6801TIP3    H141818   0.892   3.974   3.593 -0.2075 -1.0593  0.4707
 6801TIP3    H241819   1.024   4.046   3.610 -0.4987  0.2678 -2.2888
 6802TIP3   OH241820   1.494   5.215  12.406  0.0801 -0.7230 -0.2560
 6802TIP3    H141821   1.560   5.245  12.342 -0.5460 -1.1489 -1.1145
 6802TIP3    H241822   1.510   5.121  12.414  0.0827 -0.6907  0.1476
 6803TIP3   OH241823   4.269   1.369  15.432 -0.2767  0.0309  0.6037
 6803TIP3    H141824   4.260   1.357  15.526  0.2422  0.2180  0.6795
 6803TIP3    H241825   4.335   1.437  15.422 -0.0298 -0.2719  0.1014
 6804TIP3   OH241826   2.477   6.139   1.232  0.0027  0.2063 -0.4086
 6804TIP3    H141827   2.476   6.044   1.219  0.3224 -0.5509  3.6967
 6804TIP3    H241828   2.569   6.161   1.246 -0.2714  0.7063  0.7324
 6805TIP3   OH241829   2.854   6.129   2.918  0.2361  0.0909 -0.1311
 6805TIP3    H141830   2.785   6.071   2.951 -1.4755  2.7693  1.3550
 6805TIP3    H241831   2.931   6.108   2.970  0.3980 -2.3950 -1.2553
 6806TIP3   OH241832   4.495   3.499   1.669  0.3230  0.0341 -0.1176
 6806TIP3    H141833   4.567   3.524   1.728  1.2504  1.6220 -1.7996
 6806TIP3    H241834   4.529   3.516   1.581 -2.2227  1.2100 -0.9846
 6807TIP3   OH241835   4.934   3.906   4.903 -0.2444 -0.4064 -0.0349
 6807TIP3    H141836   4.914   3.981   4.848 -1.9543 -1.0314 -0.3399
 6807TIP3    H241837   5.004   3.936   4.961  1.5608  0.3236 -2.4208
 6808TIP3   OH241838   2.348   2.892  17.155 -0.4579  0.1806  0.5892
 6808TIP3    H141839   2.318   2.823  17.095  0.0677 -0.7642  1.3837
 6808TIP3    H241840   2.267   2.934  17.186 -0.9615 -1.5743  1.8166
 6809TIP3   OH241841   3.038   1.363   1.475 -0.4134 -0.2514 -0.1921
 6809TIP3    H141842   3.110   1.400   1.527  0.9687  0.3704 -2.4098
 6809TIP3    H241843   3.031   1.422   1.400 -0.6322 -2.4562 -1.9975
 6810TIP3   OH241844   3.388   1.548   6.148  0.3553  0.1862 -0.0333
 6810TIP3    H141845   3.349   1.461   6.160  1.6496 -0.3820  0.2311
 6810TIP3    H241846   3.464   1.548   6.206  1.5106  0.7520 -1.4916
 6811TIP3   OH241847   1.314   0.109  16.507  0.3935 -0.3532 -0.3575
 6811TIP3    H141848   1.271   0.026  16.486  0.2960 -0.3176 -0.3028
 6811TIP3    H241849   1.273   0.173  16.449  1.6786 -0.6366 -1.6336
 6812TIP3   OH241850   0.740   0.816  15.583 -0.1605  0.4458 -0.2390
 6812TIP3    H141851   0.780   0.871  15.650 -1.1013  0.0202  0.7096
 6812TIP3    H241852   0.664   0.777  15.627  0.5261 -1.7006 -0.8268
 6813TIP3   OH241853   5.690   1.880   5.839  0.1690  0.2590  0.5191
 6813TIP3    H141854   5.749   1.848   5.770 -0.9408  0.3729 -0.5184
 6813TIP3    H241855   5.728   1.963   5.867  1.7059 -0.7064  1.4589
 6814TIP3   OH241856   5.205   4.944  15.144  0.3078 -0.3715  0.1108
 6814TIP3    H141857   5.249   4.981  15.067  0.0982  2.4110  1.2329
 6814TIP3    H241858   5.269   4.952  15.214 -0.5383 -0.0733  0.8635
 6815TIP3   OH241859   4.831   6.164  14.738 -0.1311 -0.3509  0.2275
 6815TIP3    H141860   4.737   6.182  14.746  0.1011  0.2340  2.2546
 6815TIP3    H241861   4.872   6.227  14.797  1.6012 -0.2391 -1.0256
 6816TIP3   OH241862   0.001   5.594   5.190  0.1728 -0.2802  0.3465
 6816TIP3    H141863   0.065   5.532   5.157 -0.6397 -0.7487 -0.3914
 6816TIP3    H241864   0.049   5.648   5.253  1.6337  0.2621 -1.1652
 6817TIP3   OH241865   4.011   2.276   2.897 -0.0696 -0.6124 -0.4739
 6817TIP3    H141866   4.006   2.233   2.812  0.5593  0.4667 -1.0772
 6817TIP3    H241867   4.088   2.332   2.892 -0.9051  0.6700  0.2324
 6818TIP3   OH241868   1.245   1.041  16.375  0.8246  0.4209 -0.0775
 6818TIP3    H141869   1.240   0.988  16.295  2.2892 -0.2937  0.2635
 6818TIP3    H241870   1.216   1.128  16.349 -0.5875 -0.2792 -0.9221
 6819TIP3   OH241871   3.131   1.053  14.647 -0.1555  0.2131 -0.5642
 6819TIP3    H141872   3.107   1.060  14.554 -1.0056 -0.5590 -0.4172
 6819TIP3    H241873   3.134   0.959  14.664 -2.4196  0.3085  0.7694
 6820TIP3   OH241874   4.901   5.600   5.462  0.0253  0.2394  0.0834
 6820TIP3    H141875   4.983   5.559   5.490 -0.3124 -0.2141  0.4379
 6820TIP3    H241876   4.927   5.684   5.425  0.6947 -0.1008 -0.2413
 6821TIP3   OH241877   2.146   3.137  15.751 -0.6038  0.4174 -0.3251
 6821TIP3    H141878   2.087   3.062  15.759 -1.8211  1.2952 -0.8674
 6821TIP3    H241879   2.132   3.187  15.831  0.9736 -0.4189  0.5345
 6822TIP3   OH241880   0.592   0.762   1.613  0.0274 -0.4068  0.3350
 6822TIP3    H141881   0.659   0.697   1.595 -0.7779 -0.9661 -0.7317
 6822TIP3    H241882   0.535   0.722   1.678  0.4021 -0.1583  0.8167
 6823TIP3   OH241883   1.328   2.655   4.693  0.1944 -0.3274 -0.2382
 6823TIP3    H141884   1.404   2.686   4.645  0.0653 -0.3385 -0.4499
 6823TIP3    H241885   1.261   2.722   4.680  0.0766 -0.4526 -0.2869
 6824TIP3   OH241886   4.559   0.444  13.985 -0.5503  0.6750 -0.2567
 6824TIP3    H141887   4.545   0.516  13.923  0.2194  0.1978 -1.0064
 6824TIP3    H241888   4.475   0.400  13.991 -0.8655  1.2680 -0.2701
 6825TIP3   OH241889   0.756   5.712   1.334  0.3600  0.0216 -0.2377
 6825TIP3    H141890   0.799   5.796   1.318  0.0130  0.3619  0.5468
 6825TIP3    H241891   0.815   5.665   1.394  0.8759 -0.5824 -1.1872
 6826TIP3   OH241892   6.438   6.023   2.558  0.2316 -0.5200  0.5172
 6826TIP3    H141893   6.458   5.940   2.515  0.1963  0.0252 -0.5776
 6826TIP3    H241894   6.439   6.088   2.488 -0.3112  0.3232  1.2614
 6827TIP3   OH241895   0.979   2.326  14.187 -0.1132 -0.6488 -0.0273
 6827TIP3    H141896   1.041   2.386  14.146  0.4708  0.2212  2.0185
 6827TIP3    H241897   0.932   2.286  14.114  0.7159  0.9750 -1.5058
 6828TIP3   OH241898   5.559   6.567  13.558  0.0533  0.4850 -0.3673
 6828TIP3    H141899   5.570   6.561  13.653  0.8761 -1.3096 -0.5316
 6828TIP3    H241900   5.641   6.607  13.527  0.4814 -0.4161 -0.4353
 6829TIP3   OH241901   2.755   6.406  14.572 -0.2371  0.5240  0.3836
 6829TIP3    H141902   2.840   6.442  14.546 -1.0380  1.4004 -1.1088
 6829TIP3    H241903   2.699   6.482  14.584 -1.5644 -0.1027 -1.4045
 6830TIP3   OH241904   1.320   5.250   3.943  0.5788  0.3976  0.4272
 6830TIP3    H141905   1.326   5.293   4.029  3.8878  2.1195 -0.5224
 6830TIP3    H241906   1.272   5.313   3.888  2.1531  1.2607 -0.0052
 6831TIP3   OH241907   4.711   5.027   4.997  0.1662  0.3390  0.3855
 6831TIP3    H141908   4.620   5.003   4.976  0.4091  0.0592 -0.3597
 6831TIP3    H241909   4.706   5.060   5.087 -0.6536  0.2003  0.4032
 6832TIP3   OH241910   5.162   6.692  10.225  0.1428 -0.0595  0.2290
 6832TIP3    H141911   5.232   6.695  10.160 -0.3619  0.6655 -0.2941
 6832TIP3    H241912   5.114   6.612  10.205  0.1335  0.0370 -0.1383
 6833TIP3   OH241913   0.241   5.240  12.368  0.4256  0.2024  0.1134
 6833TIP3    H141914   0.227   5.308  12.303  0.1941 -0.0473 -0.1049
 6833TIP3    H241915   0.330   5.254  12.401  0.0183  1.2560  0.8384
 6834TIP3   OH241916   6.489   3.134   0.162 -0.2559  0.1504  0.3516
 6834TIP3    H141917   6.571   3.128   0.211  0.1305  2.4007  0.1203
 6834TIP3    H241918   6.512   3.112   0.072  0.1742  1.0014  0.2439
 6835TIP3   OH241919   5.335   2.659  11.598 -0.3486 -1.0687  0.5616
 6835TIP3    H141920   5.424   2.625  11.606 -0.1769 -0.9494 -0.6640
 6835TIP3    H241921   5.346   2.754  11.602 -0.0238 -0.8807 -2.3633
 6836TIP3   OH241922   0.619   2.210   1.225  0.0274 -0.0522 -0.3814
 6836TIP3    H141923   0.569   2.172   1.297 -1.0565  2.7177  0.4742
 6836TIP3    H241924   0.653   2.293   1.260  0.5943  0.7499 -2.6369
 6837TIP3   OH241925   5.467   4.570   1.742  0.0731 -0.2505  0.2101
 6837TIP3    H141926   5.397   4.505   1.750 -0.8547  0.5796 -0.9548
 6837TIP3    H241927   5.546   4.522   1.769 -1.0285 -0.9025  2.6208
 6838TIP3   OH241928   6.524   6.258   3.991  0.2955  0.1733 -0.2034
 6838TIP3    H141929   6.558   6.168   3.994  0.0292  0.0789  0.0334
 6838TIP3    H241930   6.568   6.297   3.916  0.6531 -0.0584 -0.1187
 6839TIP3   OH241931   1.864   0.952  14.946 -0.2600  0.3303 -0.8743
 6839TIP3    H141932   1.943   0.994  14.913  0.5411  1.3110  2.0298
 6839TIP3    H241933   1.801   1.023  14.957 -0.1732  0.2280  0.5023
 6840TIP3   OH241934   1.616   5.481  16.030 -0.0012  0.2318  0.0684
 6840TIP3    H141935   1.606   5.389  16.005 -0.5372  0.2937  0.0408
 6840TIP3    H241936   1.710   5.496  16.031  0.1304  0.6714 -3.5709
 6841TIP3   OH241937   5.017   5.108  16.592 -0.1106 -0.0035 -0.9327
 6841TIP3    H141938   4.929   5.073  16.606 -0.5815  1.2819 -0.5688
 6841TIP3    H241939   5.055   5.051  16.526 -0.8681 -1.1607 -0.3986
 6842TIP3   OH241940   6.255   4.174  11.818  0.0208 -0.1758  0.1633
 6842TIP3    H141941   6.186   4.217  11.869  0.6766 -0.8388  1.6944
 6842TIP3    H241942   6.231   4.081  11.819 -0.3244 -0.1310 -1.3931
 6843TIP3   OH241943   1.427   1.334  17.300  0.2453  0.2377  0.0320
 6843TIP3    H141944   1.377   1.325  17.219  0.4715 -1.8244  0.0799
 6843TIP3    H241945   1.470   1.419  17.292  0.3425  0.0384 -2.0486
 6844TIP3   OH241946   4.150   0.554   4.355  0.5208 -0.1074 -0.3075
 6844TIP3    H141947   4.074   0.504   4.324  0.8329 -0.7026 -0.1221
 6844TIP3    H241948   4.187   0.500   4.424  0.1074  0.9836  0.8040
 6845TIP3   OH241949   2.223   5.173  13.182  0.3911 -0.2123  0.4036
 6845TIP3    H141950   2.177   5.203  13.104 -0.3479 -0.5089  0.7161
 6845TIP3    H241951   2.239   5.079  13.166 -0.9838 -0.5977  1.1776
 6846TIP3   OH241952   3.417   4.351  15.440 -0.3527  0.0272  0.3167
 6846TIP3    H141953   3.493   4.298  15.461 -1.5627 -0.9031  2.6809
 6846TIP3    H241954   3.453   4.430  15.398  1.8527 -0.5258  1.0597
 6847TIP3   OH241955   2.959   4.851   1.491  0.1331  0.2748 -0.3262
 6847TIP3    H141956   2.938   4.929   1.543  1.8582  1.3282 -1.1463
 6847TIP3    H241957   2.887   4.844   1.428 -0.5250  0.6204  0.3753
 6848TIP3   OH241958   1.889   1.126  13.069  0.5749 -0.3310  0.1318
 6848TIP3    H141959   1.878   1.202  13.125  1.6544  1.1605 -1.5727
 6848TIP3    H241960   1.982   1.106  13.073  0.8322  0.3283 -1.7023
 6849TIP3   OH241961   6.512   4.910   5.448 -0.0612 -0.0911  0.3226
 6849TIP3    H141962   6.603   4.935   5.461  0.1323 -0.5424 -0.1422
 6849TIP3    H241963   6.466   4.950   5.521  0.3446  1.0265 -0.0019
 6850TIP3   OH241964   6.274   4.937   4.536 -0.4343 -0.2845 -0.2318
 6850TIP3    H141965   6.222   4.891   4.470 -0.8178 -1.5116  0.9021
 6850TIP3    H241966   6.286   4.873   4.606 -2.0425  1.7123  1.9939
 6851TIP3   OH241967   6.108   3.340  12.656 -0.6805  0.3060 -0.1087
 6851TIP3    H141968   6.191   3.379  12.631 -0.8814  2.8097  2.5090
 6851TIP3    H241969   6.043   3.409  12.640 -2.7118 -2.0685 -3.5908
 6852TIP3   OH241970   4.310   1.168   2.919 -0.2529  0.2851  0.0417
 6852TIP3    H141971   4.390   1.219   2.909 -0.2623  0.7828  2.0399
 6852TIP3    H241972   4.340   1.081   2.947 -0.3796  0.7021  1.5941
 6853TIP3   OH241973   0.268   1.379  13.212  0.0262  0.1042 -0.2877
 6853TIP3    H141974   0.361   1.396  13.232 -0.3442  0.6629  1.1044
 6853TIP3    H241975   0.255   1.287  13.234  0.5691 -0.4027 -1.9100
 6854TIP3   OH241976   5.903   5.492  15.418 -0.4029 -0.0291 -0.0263
 6854TIP3    H141977   5.860   5.576  15.406  0.5395  0.5856  0.7527
 6854TIP3    H241978   5.975   5.491  15.355 -0.5463 -0.3518 -0.1907
 6855TIP3   OH241979   6.301   4.491  13.801 -0.2847 -0.4655 -0.1647
 6855TIP3    H141980   6.284   4.579  13.836  0.6091 -0.4500  0.2419
 6855TIP3    H241981   6.250   4.488  13.720 -1.2239  0.0128  0.3917
 6856TIP3   OH241982   4.383   5.264  13.886 -0.9023 -0.4844 -0.0763
 6856TIP3    H141983   4.462   5.259  13.939 -0.2837  0.4020 -0.8763
 6856TIP3    H241984   4.325   5.197  13.922  0.1464 -1.0324  0.6289
 6857TIP3   OH241985   2.129   1.840   5.060  0.6936 -0.1663 -0.2423
 6857TIP3    H141986   2.151   1.891   5.138 -0.8274  0.4371 -0.1750
 6857TIP3    H241987   2.117   1.906   4.991  1.4573 -0.6584 -0.8734
 6858TIP3   OH241988   6.655   4.126  13.742  0.5921 -0.1288  0.0680
 6858TIP3    H141989   6.641   4.121  13.836 -1.0615 -1.3961 -0.2106
 6858TIP3    H241990   6.743   4.090  13.729  0.1967 -1.5175  0.9858
 6859TIP3   OH241991   2.218   6.462  12.503  0.0275  0.2793  0.1576
 6859TIP3    H141992   2.310   6.483  12.484  0.1304  1.3913  1.6568
 6859TIP3    H241993   2.186   6.538  12.551 -1.3304 -0.6282  0.7448
 6860TIP3   OH241994   3.313   2.229  11.360  0.4036  0.6414 -0.0172
 6860TIP3    H141995   3.275   2.143  11.342 -2.1708  1.6582  0.1377
 6860TIP3    H241996   3.345   2.259  11.275 -0.1861  0.2194 -0.3916
 6861TIP3   OH241997   3.447   1.137   4.253 -0.4555  0.1866  0.0504
 6861TIP3    H141998   3.357   1.167   4.244 -0.3086  0.1890 -1.8648
 6861TIP3    H241999   3.496   1.186   4.187  1.2029  0.9917  1.7493
 6862TIP3   OH242000   3.149   5.028   5.003 -0.1757 -0.4878  0.1085
 6862TIP3    H142001   3.083   5.092   4.974 -0.9449 -0.9394  0.8008
 6862TIP3    H242002   3.171   4.980   4.923 -1.7242 -1.2403  0.0866
 6863TIP3   OH242003   5.515   6.500  16.245 -0.1093  0.0742  0.2994
 6863TIP3    H142004   5.494   6.429  16.185  0.7616 -0.1954  0.2984
 6863TIP3    H242005   5.610   6.506  16.242 -0.0051 -0.2401  1.9662
 6864TIP3   OH242006   4.985   3.500   1.874 -0.3722  0.2944  0.1320
 6864TIP3    H142007   4.925   3.436   1.836  0.0635 -0.0575  0.0208
 6864TIP3    H242008   4.957   3.509   1.965  0.3984 -1.0864  0.5297
 6865TIP3   OH242009   1.272   2.958  15.776  0.3438  0.4803  0.0564
 6865TIP3    H142010   1.244   2.874  15.740  0.8922  0.3278 -0.0237
 6865TIP3    H242011   1.258   3.021  15.704  1.6931  0.1299 -0.5371
 6866TIP3   OH242012   5.248   2.783   3.008  0.1158 -0.0919  0.2169
 6866TIP3    H142013   5.330   2.828   2.985  0.8428 -1.5862 -0.2592
 6866TIP3    H242014   5.239   2.715   2.941 -0.9073 -0.6824  0.9424
 6867TIP3   OH242015   5.604   2.325   3.212 -0.3110 -0.4139 -0.2218
 6867TIP3    H142016   5.661   2.251   3.234  0.0398 -0.0169  0.2339
 6867TIP3    H242017   5.515   2.290   3.218 -0.1435 -0.8622 -0.2705
 6868TIP3   OH242018   2.386   5.391   6.732  0.0399 -0.2323 -0.0543
 6868TIP3    H142019   2.293   5.367   6.737  0.2221 -0.9164  0.1342
 6868TIP3    H242020   2.433   5.308   6.736  0.7673  0.2229  2.3277
 6869TIP3   OH242021   1.738   5.927  16.016 -0.4652 -0.1264 -0.1716
 6869TIP3    H142022   1.656   5.967  15.986 -0.5864 -1.3421 -1.5736
 6869TIP3    H242023   1.781   5.996  16.067 -0.3318  2.0731 -3.0216
 6870TIP3   OH242024   2.088   2.447   3.986  0.2511  0.7998  0.7225
 6870TIP3    H142025   2.100   2.494   3.903  2.9994  1.6006  1.4733
 6870TIP3    H242026   2.068   2.357   3.959  0.1086  1.2433 -0.7895
 6871TIP3   OH242027   5.790   0.629   4.348 -0.2913 -0.5043 -0.2665
 6871TIP3    H142028   5.835   0.678   4.280  0.0405 -1.1450 -0.5163
 6871TIP3    H242029   5.704   0.609   4.311  0.5228 -2.4121 -1.2369
 6872TIP3   OH242030   4.919   6.195   1.683  0.3017 -0.0757  0.9216
 6872TIP3    H142031   4.986   6.163   1.623  0.7730 -0.6205  1.7060
 6872TIP3    H242032   4.874   6.265   1.636  1.0991 -0.0408  0.2009
 6873TIP3   OH242033   3.722   2.000   6.427  0.0592  0.0865  0.1207
 6873TIP3    H142034   3.699   1.963   6.512  1.4539  1.4016  1.1345
 6873TIP3    H242035   3.732   2.094   6.443 -0.4539  0.4982 -1.6931
 6874TIP3   OH242036   6.720   4.992   0.494 -0.2018 -0.1438  0.0102
 6874TIP3    H142037   6.660   4.919   0.478  0.3292 -0.2894 -1.3600
 6874TIP3    H242038   6.776   4.962   0.565 -1.2783 -0.2765  0.8324
 6875TIP3   OH242039   4.087   2.064   0.675 -0.0685  0.4766 -0.4661
 6875TIP3    H142040   4.108   2.014   0.596  0.0278  2.3190 -1.6759
 6875TIP3    H242041   4.060   1.998   0.739 -0.6912 -1.0466 -2.2111
 6876TIP3   OH242042   0.367   6.151  10.783  0.2756 -0.0022 -0.3076
 6876TIP3    H142043   0.324   6.191  10.858 -0.0333 -1.0904  0.1039
 6876TIP3    H242044   0.313   6.076  10.761  0.7191 -0.0714 -1.2187
 6877TIP3   OH242045   5.095   5.528   0.428  0.4965 -0.6229  0.6804
 6877TIP3    H142046   5.100   5.466   0.501  0.7701 -2.2267 -0.6322
 6877TIP3    H242047   5.183   5.531   0.392  0.3481  0.0986  0.3534
 6878TIP3   OH242048   4.583   4.422  12.829 -0.6685 -0.0123 -0.5409
 6878TIP3    H142049   4.547   4.422  12.918 -0.2363 -0.2729 -0.3588
 6878TIP3    H242050   4.552   4.340  12.790  0.3167 -0.6061 -0.1258
 6879TIP3   OH242051   0.533   5.669  13.850  0.3588 -0.2048 -0.0494
 6879TIP3    H142052   0.477   5.591  13.849  1.0439 -0.7297 -1.7278
 6879TIP3    H242053   0.489   5.729  13.910 -1.9842 -0.6089 -1.2131
 6880TIP3   OH242054   1.532   4.724   4.515 -0.4465  0.0792  0.2927
 6880TIP3    H142055   1.461   4.703   4.455  0.8868 -0.1811 -1.2603
 6880TIP3    H242056   1.496   4.706   4.602 -2.3942  0.3702 -0.4061
 6881TIP3   OH242057   3.834   4.238  12.628  0.0473  0.1467 -0.3218
 6881TIP3    H142058   3.853   4.313  12.572  0.2634 -0.0071 -0.4589
 6881TIP3    H242059   3.917   4.191  12.633  0.0143  0.1308  0.0854
 6882TIP3   OH242060   3.987   1.747  10.491 -0.0648 -0.4316 -0.5043
 6882TIP3    H142061   4.057   1.766  10.428 -0.7137 -0.2492 -1.1829
 6882TIP3    H242062   3.942   1.831  10.502  0.4440 -0.3028  0.7105
 6883TIP3   OH242063   3.358   5.612   1.142 -0.0524 -0.3249 -0.2185
 6883TIP3    H142064   3.279   5.579   1.099 -0.1529 -0.9630  0.4458
 6883TIP3    H242065   3.363   5.563   1.224 -1.2050  2.5623  1.7165
 6884TIP3   OH242066   3.216   0.254   1.626  0.1536 -0.4260 -0.2949
 6884TIP3    H142067   3.192   0.347   1.632  1.7563 -0.0780  1.4838
 6884TIP3    H242068   3.132   0.207   1.630 -0.6239  0.8970 -0.4500
 6885TIP3   OH242069   3.447   3.642   4.211  0.3709  0.1161  0.5782
 6885TIP3    H142070   3.438   3.654   4.116  0.2366 -0.3602  0.5303
 6885TIP3    H242071   3.482   3.725   4.242 -0.9010  0.7747  0.3061
 6886TIP3   OH242072   3.643   5.530   2.605 -0.1651 -0.4952  0.1947
 6886TIP3    H142073   3.705   5.459   2.586  0.5437  0.1179  0.1604
 6886TIP3    H242074   3.687   5.609   2.574 -0.7611  0.0124  0.6159
 6887TIP3   OH242075   1.829   5.568  14.967  0.3315  0.3039  0.0812
 6887TIP3    H142076   1.887   5.644  14.980  0.7682 -0.2748  1.7737
 6887TIP3    H242077   1.744   5.606  14.945  0.9184  1.2253 -0.6842
 6888TIP3   OH242078   3.949   4.043  16.412  0.3620  0.3226 -0.6180
 6888TIP3    H142079   3.882   4.033  16.480 -0.2806  2.9928 -0.7438
 6888TIP3    H242080   3.902   4.029  16.330  1.0406 -2.4338 -0.6343
 6889TIP3   OH242081   6.387   3.851  16.441  0.5291 -0.1290  0.8362
 6889TIP3    H142082   6.425   3.938  16.451 -0.6451  0.6584 -1.0333
 6889TIP3    H242083   6.304   3.855  16.488  1.0208 -0.6735  1.7925
 6890TIP3   OH242084   2.145   5.719  17.237  0.5473  0.5038  0.5499
 6890TIP3    H142085   2.183   5.633  17.220  2.1002  1.1051  0.8097
 6890TIP3    H242086   2.112   5.714  17.327 -1.0421 -0.3673 -0.0418
 6891TIP3   OH242087   2.348   5.775   5.369 -0.5105 -0.5208  0.2240
 6891TIP3    H142088   2.389   5.695   5.400  0.3799 -1.0128 -2.0327
 6891TIP3    H242089   2.263   5.777   5.413  1.2015 -0.2677  3.8336
 6892TIP3   OH242090   6.691   1.810   5.858 -0.1582  0.4092 -0.4422
 6892TIP3    H142091   6.702   1.895   5.815 -0.8035 -0.0282 -1.5151
 6892TIP3    H242092   6.606   1.817   5.902 -0.0268  0.4654 -0.2021
 6893TIP3   OH242093   1.188   5.413  12.953  0.5795 -0.4450  0.1034
 6893TIP3    H142094   1.254   5.426  13.021 -1.1400 -1.9293  2.2003
 6893TIP3    H242095   1.138   5.337  12.982 -1.4883  0.0563 -1.8425
 6894TIP3   OH242096   5.975   1.663   2.258  0.0495 -0.3647  0.3917
 6894TIP3    H142097   5.956   1.741   2.205 -0.7031  0.2340  1.4808
 6894TIP3    H242098   6.021   1.698   2.335 -0.6334 -0.9373  1.0735
 6895TIP3   OH242099   5.684   4.870   4.141  0.1250  0.6683 -0.4958
 6895TIP3    H142100   5.763   4.913   4.172  0.0315  0.9965 -0.7128
 6895TIP3    H242101   5.624   4.941   4.119  0.1304  0.4367 -1.2871
 6896TIP3   OH242102   5.581   1.698  12.275 -0.0729  0.5708  0.5758
 6896TIP3    H142103   5.591   1.646  12.355 -0.4507 -2.0254 -0.9369
 6896TIP3    H242104   5.645   1.660  12.214 -1.3565  0.9374 -1.0771
 6897TIP3   OH242105   0.103   1.755  16.660  0.0732 -0.1453 -0.0232
 6897TIP3    H142106   0.103   1.700  16.582  0.2205 -0.7223  0.3725
 6897TIP3    H242107   0.191   1.745  16.696 -0.7393 -1.9815  1.6417
 6898TIP3   OH242108   1.268   1.144   5.372 -0.6934  0.4460  0.3939
 6898TIP3    H142109   1.302   1.197   5.300  1.2238  0.1684  1.0579
 6898TIP3    H242110   1.322   1.168   5.447  0.2427 -2.3993  0.7438
 6899TIP3   OH242111   6.046   1.742  14.922  0.2088 -0.1289 -0.0619
 6899TIP3    H142112   6.082   1.756  14.834  0.3536  0.1545  0.0409
 6899TIP3    H242113   5.982   1.672  14.910 -0.6943  0.7554 -0.6462
 6900TIP3   OH242114   0.984   1.283  13.113 -0.4669  0.3594 -0.6012
 6900TIP3    H142115   1.001   1.374  13.089 -2.6370  1.2686  0.9441
 6900TIP3    H242116   0.890   1.281  13.133 -0.2199 -1.9385  0.6394
 6901TIP3   OH242117   4.460   5.462  15.938 -0.2943 -0.2154 -0.6717
 6901TIP3    H142118   4.537   5.501  15.896 -0.1915  1.5465  1.0441
 6901TIP3    H242119   4.400   5.445  15.865  1.2585 -0.6642 -1.9267
 6902TIP3   OH242120   3.330   0.670  14.361  0.3689 -0.1573 -0.1281
 6902TIP3    H142121   3.405   0.619  14.389 -0.6142 -0.3447  2.4348
 6902TIP3    H242122   3.354   0.761  14.379  0.7558  0.0160 -1.3683
 6903TIP3   OH242123   6.451   5.556  13.941 -0.2094  0.0704 -0.4009
 6903TIP3    H142124   6.419   5.581  13.854  0.7727 -0.8592 -1.0608
 6903TIP3    H242125   6.389   5.489  13.971 -0.5644  0.4118 -0.3592
 6904TIP3   OH242126   6.711   1.809  15.362  0.0013 -0.3512  0.2312
 6904TIP3    H142127   6.727   1.899  15.391 -1.7598  0.6061 -1.5613
 6904TIP3    H242128   6.763   1.800  15.282 -1.0072 -0.3698 -0.4393
 6905TIP3   OH242129   0.682   5.506   5.006 -0.2192  0.1991  0.1848
 6905TIP3    H142130   0.707   5.584   4.956  1.3866  0.4795  1.3382
 6905TIP3    H242131   0.739   5.437   4.971  0.7255  0.3368  1.3816
 6906TIP3   OH242132   6.724   5.348  13.593  0.4110 -0.1583  0.2260
 6906TIP3    H142133   6.714   5.376  13.684  1.3625 -3.2052  1.3830
 6906TIP3    H242134   6.813   5.374  13.569  0.4906 -0.2006  0.4795
 6907TIP3   OH242135   1.423   1.958   1.607 -0.1898 -0.1235  0.3943
 6907TIP3    H142136   1.392   1.883   1.555 -1.2702  1.2171 -1.0019
 6907TIP3    H242137   1.465   2.016   1.543 -0.7572  1.1644  1.1551
 6908TIP3   OH242138   6.312   2.313   2.504 -0.2826  0.2966 -0.4583
 6908TIP3    H142139   6.256   2.237   2.519 -1.1291  1.1529  0.9622
 6908TIP3    H242140   6.252   2.381   2.473  0.6233  0.1507 -2.7387
 6909TIP3   OH242141   5.149   1.028  11.372  0.2434 -0.0235  0.5875
 6909TIP3    H142142   5.124   1.033  11.464  0.2546 -0.1262  0.5970
 6909TIP3    H242143   5.241   1.003  11.374  0.3417  0.3401  0.5509
 6910TIP3   OH242144   4.590   1.214  16.994 -0.0354 -0.1978  0.0228
 6910TIP3    H142145   4.556   1.299  16.968  1.5105  0.8763  1.3466
 6910TIP3    H242146   4.603   1.167  16.911  0.8920  1.5733 -0.8976
 6911TIP3   OH242147   2.398   4.102   3.960  0.2909 -0.2751 -0.8693
 6911TIP3    H142148   2.313   4.085   4.002  1.0642 -0.2344  0.7999
 6911TIP3    H242149   2.454   4.030   3.990  1.3096  0.6322 -0.5454
 6912TIP3   OH242150   3.890   1.709   5.406  0.1805 -0.1720 -0.3616
 6912TIP3    H142151   3.806   1.667   5.424 -0.3750  0.9449 -0.2504
 6912TIP3    H242152   3.883   1.738   5.315 -0.0160  0.9408 -0.0015
 6913TIP3   OH242153   3.511   4.111   0.294 -0.4828  0.3728 -0.0436
 6913TIP3    H142154   3.441   4.046   0.290 -1.3437  1.3070 -2.1089
 6913TIP3    H242155   3.538   4.122   0.202  0.3489  2.1473  0.3664
 6914TIP3   OH242156   0.057   1.517   0.366  0.2302  0.6547 -0.0649
 6914TIP3    H142157   0.131   1.529   0.425 -0.2604  1.9841  0.2995
 6914TIP3    H242158  -0.002   1.590   0.385 -0.8973 -0.0417 -0.7729
 6915TIP3   OH242159   5.133   1.899   1.117  0.3750  0.0615 -0.3783
 6915TIP3    H142160   5.220   1.882   1.083 -0.1101 -1.5963 -0.8926
 6915TIP3    H242161   5.075   1.842   1.066 -0.5252 -1.7602  2.4513
 6916TIP3   OH242162   5.542   3.640   2.160  0.1412  0.6289  0.5039
 6916TIP3    H142163   5.459   3.639   2.112  0.2829 -0.8017  0.2574
 6916TIP3    H242164   5.598   3.699   2.109 -0.3377  0.6631  0.0075
 6917TIP3   OH242165   1.859   5.996   1.018 -0.0516  0.0633 -0.4980
 6917TIP3    H142166   1.853   5.911   1.061  1.1476 -0.2064 -0.8246
 6917TIP3    H242167   1.899   5.977   0.933  0.7247  1.0089 -0.3634
 6918TIP3   OH242168   4.407   2.342  13.384 -0.0300 -0.6599 -0.6750
 6918TIP3    H142169   4.467   2.413  13.365 -0.7656  0.0796 -0.3039
 6918TIP3    H242170   4.332   2.384  13.426  0.0203 -1.7868  0.6217
 6919TIP3   OH242171   0.162   2.155   6.295 -0.6887 -0.2807 -1.0685
 6919TIP3    H142172   0.092   2.221   6.297  0.9099  1.5255  1.8176
 6919TIP3    H242173   0.236   2.201   6.254 -0.1838 -1.0567 -1.0356
 6920TIP3   OH242174   0.322   2.386   4.372 -0.1374  0.3192 -0.0296
 6920TIP3    H142175   0.334   2.465   4.425  0.9292  0.4843 -0.4919
 6920TIP3    H242176   0.390   2.326   4.402 -0.2438 -0.0069 -0.4270
 6921TIP3   OH242177   3.094   5.292  16.369  0.1687 -0.4058 -0.6171
 6921TIP3    H142178   3.104   5.197  16.371  0.3322 -0.4806  3.1275
 6921TIP3    H242179   3.171   5.325  16.415 -2.4295  0.9910  3.2737
 6922TIP3   OH242180   5.820   6.620   4.336  0.0277 -0.0869  0.0446
 6922TIP3    H142181   5.861   6.542   4.372 -0.0236 -0.2414 -0.2356
 6922TIP3    H242182   5.860   6.631   4.250 -0.4006 -0.1428 -0.1623
 6923TIP3   OH242183   1.682   5.825   2.618 -0.2899 -0.0218  0.5773
 6923TIP3    H142184   1.661   5.897   2.678  0.7848  0.1029  0.8343
 6923TIP3    H242185   1.687   5.747   2.675  1.9980  0.3023  0.9312
 6924TIP3   OH242186   6.533   3.203   1.677 -0.2438 -0.4123 -0.2592
 6924TIP3    H142187   6.544   3.118   1.717 -1.6646 -1.6263 -2.2518
 6924TIP3    H242188   6.480   3.187   1.599 -0.4417  2.2686 -0.8059
 6925TIP3   OH242189   0.429   3.779  14.304  0.0190  0.6251 -0.2081
 6925TIP3    H142190   0.473   3.864  14.310 -2.1812  1.7687  1.2823
 6925TIP3    H242191   0.342   3.800  14.270 -0.5884 -1.0169  0.2569
 6926TIP3   OH242192   2.618   2.482  14.654  0.0150  0.0480  0.1928
 6926TIP3    H142193   2.671   2.533  14.593 -1.2266 -0.6073 -1.5268
 6926TIP3    H242194   2.580   2.413  14.600 -2.3976  0.3744  1.3386
 6927TIP3   OH242195   5.762   4.195  11.758 -0.2472  0.1840  0.1374
 6927TIP3    H142196   5.798   4.236  11.680  0.2129  0.2053  0.3590
 6927TIP3    H242197   5.680   4.243  11.774  0.3909  1.1938  0.5208
 6928TIP3   OH242198   1.182   1.214   4.745  0.5343 -0.0424  0.8830
 6928TIP3    H142199   1.160   1.185   4.833 -1.3289 -1.3230  0.0759
 6928TIP3    H242200   1.208   1.305   4.755 -1.1323  0.3127  2.5994
 6929TIP3   OH242201   3.787   6.595  12.772 -0.0488 -0.3668  0.1457
 6929TIP3    H142202   3.702   6.551  12.772  0.0203 -0.5157  1.0798
 6929TIP3    H242203   3.819   6.585  12.682 -1.5268  0.6990 -0.5348
 6930TIP3   OH242204   1.153   0.803   2.363 -0.2387  0.2099 -0.6998
 6930TIP3    H142205   1.149   0.742   2.437  0.9587  0.9242 -0.0034
 6930TIP3    H242206   1.163   0.746   2.286  1.6223 -0.5191 -0.0024
 6931TIP3   OH242207   2.618   5.116  14.949 -0.0811 -0.1185  0.0157
 6931TIP3    H142208   2.700   5.154  14.979 -0.1243  0.3323 -0.4364
 6931TIP3    H242209   2.612   5.033  14.997 -0.8891  1.2296  2.4229
 6932TIP3   OH242210   6.510   5.131  16.495  0.2259 -0.4511  0.2375
 6932TIP3    H142211   6.599   5.164  16.500 -0.0320  0.5113 -0.9301
 6932TIP3    H242212   6.456   5.210  16.481 -0.7294 -1.0800  0.2497
 6933TIP3   OH242213   5.740   0.037  16.583 -0.0839 -0.3199 -0.8327
 6933TIP3    H142214   5.656   0.060  16.544 -0.9767 -0.8932  0.7110
 6933TIP3    H242215   5.766   0.115  16.632 -0.1043 -0.4293 -0.6488
 6934TIP3   OH242216   0.467   6.211   3.440 -0.4009 -0.0216  0.4320
 6934TIP3    H142217   0.439   6.261   3.363  0.0934  1.1950  1.0080
 6934TIP3    H242218   0.445   6.268   3.514 -0.3098 -0.9093  1.1602
 6935TIP3   OH242219   3.594   5.182  15.532  0.2870 -0.0752 -0.0246
 6935TIP3    H142220   3.529   5.129  15.578  0.2061 -0.5637 -0.6832
 6935TIP3    H242221   3.554   5.269  15.526  0.5439  0.1586  1.3208
 6936TIP3   OH242222   2.514   0.787   3.244  0.5342 -0.3968 -0.3286
 6936TIP3    H142223   2.461   0.850   3.195  0.6472 -0.5961 -0.7142
 6936TIP3    H242224   2.466   0.704   3.236 -0.2937 -0.1141  1.2639
 6937TIP3   OH242225   0.679   5.258  11.781  0.4926  0.4128  0.5282
 6937TIP3    H142226   0.723   5.176  11.802  0.5430  0.1120 -0.6856
 6937TIP3    H242227   0.685   5.310  11.862  4.3314  0.9783  0.0969
 6938TIP3   OH242228   5.495   5.341  12.609 -0.1267  0.1855 -0.0544
 6938TIP3    H142229   5.525   5.253  12.588 -0.5306 -0.1139  0.5818
 6938TIP3    H242230   5.541   5.398  12.548 -0.6395 -0.5612 -1.1612
 6939TIP3   OH242231   0.968   5.382   3.325 -0.1925  0.6073 -0.1392
 6939TIP3    H142232   0.917   5.453   3.365 -3.4533 -2.3120  1.4362
 6939TIP3    H242233   0.905   5.333   3.273  1.5088 -2.0282  0.0909
 6940TIP3   OH242234   2.647   4.970   4.361 -0.2107  0.0986 -0.7574
 6940TIP3    H142235   2.627   5.045   4.417 -1.0451  0.5972 -1.6938
 6940TIP3    H242236   2.580   4.905   4.384  0.9432 -0.6818  0.5721
 6941TIP3   OH242237   2.475   6.730  15.460 -0.2013 -0.0728 -0.4590
 6941TIP3    H142238   2.463   6.751  15.368 -0.4481 -0.5699 -0.5414
 6941TIP3    H242239   2.520   6.807  15.497 -0.9301  0.5127 -0.7873
 6942TIP3   OH242240   1.762   5.009   1.642 -0.2073  0.3331 -0.0987
 6942TIP3    H142241   1.837   4.960   1.676  0.0162  1.5248  1.2423
 6942TIP3    H242242   1.779   5.019   1.549  0.6759 -0.4811 -0.0389
 6943TIP3   OH242243   0.274   6.140   5.130 -0.2330 -0.5770  0.0473
 6943TIP3    H142244   0.305   6.104   5.047  1.2387  2.4082 -0.8513
 6943TIP3    H242245   0.189   6.179   5.109  0.2644  0.4180 -0.1480
 6944TIP3   OH242246   5.400   2.346  11.309  0.1946  0.0019 -0.0210
 6944TIP3    H142247   5.346   2.398  11.368  0.2791  1.2575 -1.0009
 6944TIP3    H242248   5.363   2.258  11.314 -1.6564  0.7160 -0.3214
 6945TIP3   OH242249   4.640   3.472  12.302 -0.5135  0.1458  0.9469
 6945TIP3    H142250   4.660   3.556  12.342 -0.6663 -0.2305  1.8335
 6945TIP3    H242251   4.694   3.470  12.223 -2.7983  2.3941 -0.8339
 6946TIP3   OH242252   5.454   3.146  13.215  0.0423 -0.3483  0.1820
 6946TIP3    H142253   5.478   3.216  13.276  0.3242  0.0838 -0.4151
 6946TIP3    H242254   5.499   3.169  13.134 -1.0268 -0.4567 -0.4453
 6947TIP3   OH242255   4.397   1.387  12.114  0.3223  0.0551 -0.2583
 6947TIP3    H142256   4.421   1.295  12.104 -1.9643 -0.4412 -2.1130
 6947TIP3    H242257   4.421   1.427  12.031 -1.1486  0.4811 -0.5109
 6948TIP3   OH242258   1.212   0.081   4.757  0.2357 -0.9166  0.7764
 6948TIP3    H142259   1.216   0.160   4.703 -1.3113  0.3876  2.4214
 6948TIP3    H242260   1.264   0.016   4.709 -0.9557  0.1517 -2.1840
 6949TIP3   OH242261   3.649   5.366   5.187 -0.3202  0.1208  0.0866
 6949TIP3    H142262   3.677   5.370   5.279  0.3645  0.3474 -0.1323
 6949TIP3    H242263   3.594   5.287   5.183  1.1995 -0.9816  0.2629
 6950TIP3   OH242264   2.715   2.046   1.781 -0.1911 -0.5425 -0.1094
 6950TIP3    H142265   2.636   2.083   1.743 -0.1976 -0.9389 -0.4833
 6950TIP3    H242266   2.703   1.951   1.775  0.0468 -0.6076  0.3778
 6951TIP3   OH242267   0.279   2.796   0.764  0.6515 -0.3227 -0.1757
 6951TIP3    H142268   0.359   2.826   0.721  1.5120 -2.1901  0.0013
 6951TIP3    H242269   0.308   2.773   0.853 -0.2731 -0.2102  0.1605
 6952TIP3   OH242270   1.802   0.558  10.653 -0.3544 -0.1366 -0.2712
 6952TIP3    H142271   1.781   0.644  10.616 -1.5748  0.0269  0.7231
 6952TIP3    H242272   1.897   0.560  10.665 -0.4831  1.5768  0.8770
 6953TIP3   OH242273   1.944   4.630   5.187 -0.5697  0.0414  0.0931
 6953TIP3    H142274   1.992   4.697   5.235 -2.0431  0.7956  0.5590
 6953TIP3    H242275   1.853   4.659   5.190 -1.1942 -1.8171  0.0177
 6954TIP3   OH242276   1.153   4.807  14.327 -0.1263  0.0110  0.2452
 6954TIP3    H142277   1.077   4.861  14.347 -0.1402  0.0182  0.1745
 6954TIP3    H242278   1.218   4.831  14.392  1.3115  2.9654 -2.0294
 6955TIP3   OH242279   1.316   1.917  16.178  0.1103  0.0504 -0.2989
 6955TIP3    H142280   1.262   1.931  16.255  1.0837  1.4536  0.1738
 6955TIP3    H242281   1.343   1.826  16.184 -1.4318 -0.4189 -0.0710
 6956TIP3   OH242282   4.944   5.579   4.434  0.1395  0.4776  0.1817
 6956TIP3    H142283   4.956   5.542   4.522  1.0744 -1.0144 -0.5466
 6956TIP3    H242284   4.932   5.503   4.377  2.6579  1.2097 -1.4643
 6957TIP3   OH242285   6.530   4.613   2.224 -0.3430  0.0886 -0.5927
 6957TIP3    H142286   6.439   4.595   2.202 -0.6500  0.9043 -0.0656
 6957TIP3    H242287   6.532   4.612   2.320 -0.0108  1.0135 -0.5778
 6958TIP3   OH242288   3.806   6.600   1.547 -0.9678  0.1383  0.4926
 6958TIP3    H142289   3.764   6.648   1.476 -1.4806  3.3234  2.7424
 6958TIP3    H242290   3.734   6.561   1.596 -0.7128 -0.6716  0.2513
 6959TIP3   OH242291   5.221   4.285  14.570 -0.6256  0.0400  0.2458
 6959TIP3    H142292   5.175   4.228  14.509 -0.1063 -2.0787  1.7308
 6959TIP3    H242293   5.169   4.281  14.650 -0.0916  0.9712  0.6630
 6960TIP3   OH242294   6.748   4.994   4.623  0.4704 -0.5213  0.0709
 6960TIP3    H142295   6.682   5.062   4.610 -0.1377 -0.9060  1.0939
 6960TIP3    H242296   6.766   4.962   4.535 -0.7829 -0.4816 -0.2186
 6961TIP3   OH242297   6.191   4.252  16.840  0.2966 -0.0219 -0.9345
 6961TIP3    H142298   6.130   4.200  16.787 -0.8413 -0.0554  0.3430
 6961TIP3    H242299   6.149   4.256  16.926  2.0718  0.0564 -0.0387
 6962TIP3   OH242300   5.020   6.539  13.716  0.3602 -0.4629 -0.3882
 6962TIP3    H142301   5.095   6.596  13.699  1.5992 -2.1929 -0.9588
 6962TIP3    H242302   5.059   6.458  13.748 -1.3408 -1.0773  0.1870
 6963TIP3   OH242303   0.642   0.692   6.037 -0.4848 -0.3572  0.2599
 6963TIP3    H142304   0.654   0.762   6.101 -2.0650  0.6220 -0.4575
 6963TIP3    H242305   0.714   0.632   6.054 -0.2797  0.3654  2.2948
 6964TIP3   OH242306   3.353   0.055  14.202  0.5776  0.0568  0.0644
 6964TIP3    H142307   3.424   0.002  14.166 -0.0777 -0.5828 -0.2846
 6964TIP3    H242308   3.397   0.136  14.232  1.9059 -1.3750  2.3256
 6965TIP3   OH242309   2.806   0.108   2.938  0.5237  0.0134  0.0263
 6965TIP3    H142310   2.755   0.028   2.929 -0.1453 -0.1216  3.5842
 6965TIP3    H242311   2.892   0.086   2.903  0.0534 -1.9418 -0.0014
 6966TIP3   OH242312   5.818   0.043   4.539 -0.0209 -0.0702 -0.3011
 6966TIP3    H142313   5.813  -0.010   4.459 -0.1987  0.4199 -0.6219
 6966TIP3    H242314   5.888   0.106   4.521 -0.5580  0.5121 -0.3557
 6967TIP3   OH242315   3.365   2.750   4.286  0.6699  0.2801  0.5034
 6967TIP3    H142316   3.362   2.812   4.213  3.5982  1.0175  0.8742
 6967TIP3    H242317   3.328   2.798   4.360 -0.8768  0.0669 -0.0902
 6968TIP3   OH242318   2.363   6.036   1.683  0.3627 -0.2423 -0.1096
 6968TIP3    H142319   2.402   6.096   1.620  0.3615 -1.2302 -1.0866
 6968TIP3    H242320   2.285   6.002   1.639 -0.7214  0.4754  1.1905
 6969TIP3   OH242321   6.267   6.744   0.640 -0.2136  0.1275 -0.3492
 6969TIP3    H142322   6.261   6.786   0.554  1.0018  0.6009 -0.2255
 6969TIP3    H242323   6.195   6.782   0.690  0.8585  2.1359 -0.2380
 6970TIP3   OH242324   0.852   2.870  14.168 -0.1931  0.2918 -0.7471
 6970TIP3    H142325   0.852   2.946  14.109 -0.0556  0.2174 -0.8440
 6970TIP3    H242326   0.812   2.800  14.117 -0.2818  0.2876 -0.6714
 6971TIP3   OH242327   5.461   2.155   1.687 -0.0717  0.3619  0.1006
 6971TIP3    H142328   5.475   2.132   1.778 -2.2030  0.9136  0.6254
 6971TIP3    H242329   5.525   2.103   1.638 -0.5222 -1.8324  1.7104
 6972TIP3   OH242330   0.071   6.187   1.931 -0.4202  0.2337  0.3978
 6972TIP3    H142331   0.078   6.093   1.950 -0.8291  0.3474  1.1806
 6972TIP3    H242332   0.161   6.214   1.913 -0.0546 -0.0260  1.6625
 6973TIP3   OH242333   3.570   0.543  12.299  0.0779 -0.0170  0.1038
 6973TIP3    H142334   3.578   0.637  12.314 -0.7302  0.3234 -1.4139
 6973TIP3    H242335   3.517   0.511  12.373  0.2514  0.7397  0.5606
 6974TIP3   OH242336   0.878   1.477  14.454  0.4081  0.2197  0.0448
 6974TIP3    H142337   0.950   1.464  14.391  0.2480 -0.8030  0.0500
 6974TIP3    H242338   0.862   1.390  14.490 -0.2350  0.6030  0.7136
 6975TIP3   OH242339   2.134   5.006  13.481  0.8287 -0.8159 -0.5810
 6975TIP3    H142340   2.175   5.087  13.451  0.6833 -1.1990 -1.8845
 6975TIP3    H242341   2.048   5.005  13.439  0.4567 -1.2140  0.1566
 6976TIP3   OH242342   4.608   3.792   5.077 -0.1613 -0.0047  0.0394
 6976TIP3    H142343   4.647   3.824   4.996 -0.8367 -0.2393 -0.3875
 6976TIP3    H242344   4.527   3.748   5.049 -1.2529  1.3177  0.9907
 6977TIP3   OH242345   2.951   3.186  12.904 -0.0274  0.0713  0.5298
 6977TIP3    H142346   2.895   3.167  12.829 -1.6585  0.2261  1.6464
 6977TIP3    H242347   2.943   3.280  12.917 -0.2479 -0.0298  1.2262
 6978TIP3   OH242348   5.122   6.330   4.181  0.2030 -0.0518 -0.4361
 6978TIP3    H142349   5.031   6.316   4.157  0.0442  1.0382 -0.5575
 6978TIP3    H242350   5.126   6.423   4.204  1.3353 -0.0304 -0.6682
 6979TIP3   OH242351   3.595   3.955  14.018  0.0703 -0.9325  0.1795
 6979TIP3    H142352   3.500   3.952  14.023  0.0733 -3.0818 -0.0814
 6979TIP3    H242353   3.615   4.042  13.983 -1.8182 -0.7242 -0.4681
 6980TIP3   OH242354   1.061   3.790   2.200  0.0537 -0.7520 -0.5218
 6980TIP3    H142355   0.981   3.843   2.198 -0.3698 -1.2292  1.5627
 6980TIP3    H242356   1.127   3.844   2.156 -0.3985  1.4914  1.3941
 6981TIP3   OH242357   1.799   3.480  13.445 -0.1219 -0.2442 -0.2210
 6981TIP3    H142358   1.725   3.500  13.388 -0.0294  3.5148  0.7629
 6981TIP3    H242359   1.868   3.452  13.385 -1.5050 -1.3520 -1.3801
 6982TIP3   OH242360   1.879   6.647   5.547  0.1893  0.9057 -0.0876
 6982TIP3    H142361   1.825   6.592   5.604 -1.7879  2.1006 -0.7188
 6982TIP3    H242362   1.917   6.585   5.484 -0.9412  0.0820  0.0056
 6983TIP3   OH242363   4.536   1.779   0.866 -0.5434  0.0522 -0.3423
 6983TIP3    H142364   4.468   1.752   0.927 -1.1557  0.0828 -0.9913
 6983TIP3    H242365   4.487   1.812   0.790  0.1874  1.2785 -0.3015
 6984TIP3   OH242366   2.418   3.573  14.575  0.0981 -0.4160 -0.4390
 6984TIP3    H142367   2.375   3.578  14.661  2.6033  0.5252  0.8840
 6984TIP3    H242368   2.350   3.545  14.515 -1.6617 -1.5757  1.9437
 6985TIP3   OH242369   3.059   6.541   0.968 -0.1126 -0.2109  0.3040
 6985TIP3    H142370   2.965   6.552   0.954 -0.2217 -0.3254  0.9262
 6985TIP3    H242371   3.098   6.558   0.882 -0.6743  0.1685  0.1165
 6986TIP3   OH242372   6.717   5.326  14.884  0.1701 -0.3624  0.4164
 6986TIP3    H142373   6.676   5.400  14.838 -0.1031 -1.3885 -1.0352
 6986TIP3    H242374   6.646   5.289  14.937 -0.2294 -0.8283 -0.4368
 6987TIP3   OH242375   0.167   5.820   3.706 -0.0510  0.3356  0.7738
 6987TIP3    H142376   0.202   5.803   3.793  0.6045 -0.7982  0.3023
 6987TIP3    H242377   0.198   5.909   3.685 -1.3365  1.1761  2.2021
 6988TIP3   OH242378   0.292   5.874  17.086 -0.5189 -0.4060 -0.1605
 6988TIP3    H142379   0.207   5.916  17.090  0.3746  1.9918 -2.8582
 6988TIP3    H242380   0.334   5.895  17.170 -1.3012  1.4049 -0.1921
 6989TIP3   OH242381   0.910   0.432  16.237  0.1607 -0.4191  0.3275
 6989TIP3    H142382   0.851   0.455  16.165 -1.1134  0.9723  1.7288
 6989TIP3    H242383   0.868   0.357  16.279 -2.2021  2.0745  2.8689
 6990TIP3   OH242384   4.075   2.016   4.337 -0.0542  0.4614 -0.2972
 6990TIP3    H142385   4.123   1.990   4.259  0.1455  0.7434 -0.2704
 6990TIP3    H242386   4.035   1.935   4.369  0.5301  0.1964 -0.2345
 6991TIP3   OH242387   2.514   4.919  12.277 -0.0664  0.2732 -0.4431
 6991TIP3    H142388   2.578   4.943  12.209  1.1116 -1.1189  0.1411
 6991TIP3    H242389   2.436   4.895  12.228  0.8578 -0.9828 -1.3561
 6992TIP3   OH242390   3.336   6.733   2.714 -0.4805 -0.1225 -0.0457
 6992TIP3    H142391   3.423   6.767   2.693 -0.6215  0.9150  0.9417
 6992TIP3    H242392   3.343   6.700   2.803 -1.0232 -0.3145 -0.0683
 6993TIP3   OH242393   3.984   5.020   4.627 -0.4930 -0.4038 -0.0257
 6993TIP3    H142394   3.911   4.966   4.656 -0.3723 -0.6997 -0.2656
 6993TIP3    H242395   3.949   5.069   4.552  0.1758 -2.2341 -1.6368
 6994TIP3   OH242396   1.855   2.812   5.523 -0.1742  0.0375  0.0010
 6994TIP3    H142397   1.843   2.777   5.435  0.1433  1.9300 -0.8446
 6994TIP3    H242398   1.917   2.752   5.564  2.3472  0.8893 -2.2464
 6995TIP3   OH242399   4.082   5.366   4.429 -0.5770 -0.5511 -0.1996
 6995TIP3    H142400   4.065   5.446   4.479  0.1929  0.4547 -1.5090
 6995TIP3    H242401   4.001   5.315   4.438 -1.1540  0.4453  0.4839
 6996TIP3   OH242402   5.410   0.076   2.295 -0.2096  0.3245  0.1473
 6996TIP3    H142403   5.336   0.100   2.239 -1.1265  0.9184  1.5468
 6996TIP3    H242404   5.471   0.149   2.287 -0.7522  0.8416  0.5874
 6997TIP3   OH242405   6.173   3.061   3.183  0.2216  0.0435  0.3904
 6997TIP3    H142406   6.229   3.128   3.222 -2.0339  1.6453  1.1139
 6997TIP3    H242407   6.144   3.007   3.257  0.9498 -0.9141 -0.0031
 6998TIP3   OH242408   2.434   4.954   4.021  0.1150  0.2348  0.5125
 6998TIP3    H142409   2.485   4.876   4.043 -0.7643  0.2146  2.6989
 6998TIP3    H242410   2.381   4.928   3.945  0.1753 -1.1342  0.9157
 6999TIP3   OH242411   3.384   0.030   0.165 -0.2182  0.3416 -0.0702
 6999TIP3    H142412   3.451   0.042   0.232  0.2943  0.0939 -0.5328
 6999TIP3    H242413   3.394   0.104   0.107 -0.4788  0.4064 -0.0356
 7000TIP3   OH242414   2.981   6.005  14.762  0.5787 -0.1886  0.0427
 7000TIP3    H142415   2.917   5.965  14.821 -1.4741  1.4304 -0.9564
 7000TIP3    H242416   2.999   5.938  14.697  0.9084 -1.1026  1.0400
 7001TIP3   OH242417   6.430   1.421  15.023 -0.2418 -0.3385  0.2366
 7001TIP3    H142418   6.395   1.510  15.019  0.0631 -0.2685 -2.6497
 7001TIP3    H242419   6.518   1.431  15.058  0.0229  0.5995 -0.6746
 7002TIP3   OH242420   1.609   4.121  14.039 -0.5557  0.3180 -1.0008
 7002TIP3    H142421   1.667   4.125  14.115 -2.0424  1.1143  0.1343
 7002TIP3    H242422   1.606   4.211  14.006 -0.1809  0.0401 -1.8238
 7003TIP3   OH242423   3.469   2.190   2.855 -0.6425  0.0907 -0.2451
 7003TIP3    H142424   3.457   2.245   2.778 -0.6183  1.6914  0.8398
 7003TIP3    H242425   3.382   2.185   2.894 -0.7206 -0.9887 -0.5411
 7004TIP3   OH242426   6.045   0.283  11.774  0.1986 -0.2013  0.0175
 7004TIP3    H142427   6.019   0.316  11.860  0.8914 -0.6400  0.4030
 7004TIP3    H242428   5.971   0.230  11.745 -0.5895  0.9819 -0.2435
 7005TIP3   OH242429   1.167   4.257   1.829  0.1307 -0.3081  0.0610
 7005TIP3    H142430   1.235   4.222   1.772  0.7211 -2.5049  1.9787
 7005TIP3    H242431   1.196   4.346   1.849  2.0155 -0.8999  0.1707
 7006TIP3   OH242432   0.998   5.496   4.211  0.4981  0.3098  0.2817
 7006TIP3    H142433   1.080   5.522   4.253 -0.0342 -0.7174  2.0786
 7006TIP3    H242434   0.932   5.504   4.281 -0.9855  1.2667 -1.1506
 7007TIP3   OH242435   6.570   3.200   0.563 -0.3782  0.4247  0.1979
 7007TIP3    H142436   6.484   3.160   0.554 -0.1069 -0.4998  1.4529
 7007TIP3    H242437   6.554   3.293   0.552 -0.8871  0.0526 -3.8678
 7008TIP3   OH242438   6.425   2.982  15.232  0.5883  0.7171  0.5978
 7008TIP3    H142439   6.518   2.975  15.211  0.3666 -0.3433 -0.1608
 7008TIP3    H242440   6.389   3.041  15.166  0.8701  1.8547  1.4430
 7009TIP3   OH242441   2.624   5.669  15.812  0.0324 -0.1280 -0.0217
 7009TIP3    H142442   2.716   5.697  15.810 -0.0590  0.1680 -0.1493
 7009TIP3    H242443   2.584   5.725  15.879 -0.8385  2.2151 -2.3239
 7010TIP3   OH242444   3.521   4.743   0.358 -0.5256  0.2834  0.5097
 7010TIP3    H142445   3.500   4.818   0.303 -1.9096 -1.7033 -1.8654
 7010TIP3    H242446   3.601   4.707   0.320 -0.4987 -0.1155  0.9340
 7011TIP3   OH242447   6.746   5.505  11.478  0.2012  0.2210 -0.5862
 7011TIP3    H142448   6.793   5.587  11.491  0.5199  0.1232 -1.0663
 7011TIP3    H242449   6.711   5.511  11.389 -1.4812  0.6655  0.0715
 7012TIP3   OH242450   1.241   2.405   0.031  0.4437 -0.2539 -0.3213
 7012TIP3    H142451   1.290   2.481   0.001  0.5212  0.4360  1.4737
 7012TIP3    H242452   1.151   2.420   0.001  0.6122  0.1830 -0.6110
 7013TIP3   OH242453   0.694   0.740   3.227  0.1994 -0.1515  0.0163
 7013TIP3    H142454   0.760   0.731   3.158  0.8518 -4.7726  0.9063
 7013TIP3    H242455   0.612   0.712   3.185 -0.1721  0.5031  0.2793
 7014TIP3   OH242456   5.441   6.328  12.134  0.4639  0.4792  0.0200
 7014TIP3    H142457   5.415   6.418  12.113 -1.1073 -0.1393 -0.9018
 7014TIP3    H242458   5.522   6.337  12.184  0.8997  2.3553 -0.9267
 7015TIP3   OH242459   0.021   4.722   0.879 -0.6008 -0.4574  0.2434
 7015TIP3    H142460  -0.000   4.738   0.787 -1.3334 -1.3214  0.2430
 7015TIP3    H242461  -0.050   4.665   0.910  0.5249 -1.5629  0.8843
 7016TIP3   OH242462   0.587   5.384   1.401  0.1615 -0.3298  0.6953
 7016TIP3    H142463   0.568   5.474   1.429  1.0548  0.1383 -0.1649
 7016TIP3    H242464   0.565   5.384   1.308 -0.5985 -1.2421  0.8607
 7017TIP3   OH242465   0.430   5.411   5.089 -0.3192 -0.0874 -0.0162
 7017TIP3    H142466   0.430   5.332   5.035  2.0498  0.5937 -1.1491
 7017TIP3    H242467   0.492   5.469   5.046  0.4578  1.1391  2.5636
 7018TIP3   OH242468   2.511   6.681  11.122 -0.2950 -0.5636  0.4472
 7018TIP3    H142469   2.549   6.766  11.145  0.6160 -0.4129 -1.4476
 7018TIP3    H242470   2.426   6.681  11.165  0.4901  0.4456  2.1452
 7019TIP3   OH242471   1.449   1.835   2.871  0.4001 -0.0105 -0.3292
 7019TIP3    H142472   1.472   1.838   2.778  1.7497  0.2452 -0.0102
 7019TIP3    H242473   1.442   1.742   2.891  0.2917 -0.0708 -0.6353
 7020TIP3   OH242474   6.318   4.001   0.096 -1.0399 -0.2965 -0.6949
 7020TIP3    H142475   6.241   3.945   0.083 -1.6190  0.6019 -1.2150
 7020TIP3    H242476   6.287   4.071   0.153  0.5821 -2.3174  3.0221
 7021TIP3   OH242477   1.231   2.985   1.942 -0.1801  0.2016 -0.4230
 7021TIP3    H142478   1.203   2.894   1.932  0.0668 -0.1767  1.8066
 7021TIP3    H242479   1.304   2.995   1.880 -0.2752 -1.0766 -0.7653
 7022TIP3   OH242480   0.254   4.535   2.583  0.0054  0.0313 -0.2049
 7022TIP3    H142481   0.270   4.499   2.495 -1.2494  0.1325 -0.4928
 7022TIP3    H242482   0.206   4.466   2.629  0.6458 -0.0156  0.4110
 7023TIP3   OH242483   2.567   4.223   2.298  0.5671 -0.1225  0.4283
 7023TIP3    H142484   2.490   4.212   2.354 -2.0609  2.3339 -2.3413
 7023TIP3    H242485   2.608   4.304   2.328 -0.4400  0.8187 -0.6315
 7024TIP3   OH242486   2.954   0.807   5.402 -0.4042  0.1336 -0.3303
 7024TIP3    H142487   3.032   0.827   5.350 -1.4784  0.3417 -1.9101
 7024TIP3    H242488   2.925   0.722   5.370 -2.3740  1.2694 -1.7139
 7025TIP3   OH242489   5.231   3.917   2.303  0.1199 -0.4945 -0.0689
 7025TIP3    H142490   5.182   3.878   2.230 -0.2445  1.3691 -0.8700
 7025TIP3    H242491   5.166   3.967   2.352  0.4118 -1.5233  1.4224
 7026TIP3   OH242492   5.953   0.957   3.972 -0.4906 -0.8580  0.0496
 7026TIP3    H142493   6.041   0.964   3.935 -0.5049 -0.3006  0.1201
 7026TIP3    H242494   5.918   1.046   3.970 -0.4032 -0.7660  1.6258
 7027TIP3   OH242495   4.562   0.865   1.544  0.2715  0.0234 -0.3203
 7027TIP3    H142496   4.504   0.933   1.580  0.8015  0.1592  0.3010
 7027TIP3    H242497   4.521   0.782   1.569  0.2823  0.1187  0.0130
 7028TIP3   OH242498   2.985   6.663   6.208  0.4464 -0.0591  0.1834
 7028TIP3    H142499   2.949   6.751   6.193  0.6543 -0.1010 -0.5997
 7028TIP3    H242500   3.050   6.675   6.277  0.6907  0.4610 -0.1297
 7029TIP3   OH242501   3.303   3.373   5.017  0.6561 -0.5166 -0.4735
 7029TIP3    H142502   3.317   3.452   5.070  0.6135 -0.8499  0.0401
 7029TIP3    H242503   3.267   3.406   4.935 -0.6662 -0.1090  0.2480
 7030TIP3   OH242504   4.286   3.643   5.545  0.0946 -0.1811 -1.0839
 7030TIP3    H142505   4.232   3.564   5.540  0.9608 -0.7358 -2.2254
 7030TIP3    H242506   4.375   3.610   5.553  0.4454  0.6900 -1.2977
 7031TIP3   OH242507   0.043   1.187   6.072  0.3541 -0.8784 -0.2582
 7031TIP3    H142508   0.057   1.215   6.163 -0.8293 -0.0659 -0.3135
 7031TIP3    H242509   0.084   1.101   6.067  2.2585 -0.0811  0.4833
 7032TIP3   OH242510   3.631   2.786   4.365 -0.2767  0.0612  0.3328
 7032TIP3    H142511   3.658   2.761   4.277 -1.3320  0.2496 -0.0595
 7032TIP3    H242512   3.537   2.769   4.367 -0.1997 -0.3474  1.5699
 7033TIP3   OH242513   5.072   3.128  11.679 -0.2136  0.1909 -0.4533
 7033TIP3    H142514   5.050   3.088  11.595  0.6833 -1.9132  0.2252
 7033TIP3    H242515   5.038   3.066  11.744  0.8235  0.7734  0.6920
 7034TIP3   OH242516   2.278   4.164  17.013  0.2324  0.2463 -0.2623
 7034TIP3    H142517   2.185   4.187  17.020  0.7012  1.9555  0.8774
 7034TIP3    H242518   2.282   4.109  16.934 -1.8042 -0.2975 -0.0605
 7035TIP3   OH242519   4.250   5.112  15.511 -0.0894 -0.3338  0.4512
 7035TIP3    H142520   4.302   5.183  15.548 -2.1913  0.2063  2.6625
 7035TIP3    H242521   4.314   5.048  15.479  1.8573  1.0263  1.4724
 7036TIP3   OH242522   1.285   3.874   1.837 -0.3517 -0.2146  0.0682
 7036TIP3    H142523   1.320   3.948   1.788  2.3112 -0.8984  0.7702
 7036TIP3    H242524   1.274   3.907   1.926  1.4033 -0.7538  0.5193
 7037TIP3   OH242525   4.314   5.556   4.791 -0.4705  0.7018  0.0596
 7037TIP3    H142526   4.279   5.641   4.817 -1.6042  0.3107 -0.1263
 7037TIP3    H242527   4.384   5.576   4.729 -2.0950  1.4640 -1.6187
 7038TIP3   OH242528   5.975   6.055   4.319 -0.7033 -0.3232 -0.8109
 7038TIP3    H142529   6.049   6.089   4.368  0.6799 -4.3558  0.3651
 7038TIP3    H242530   5.898   6.078   4.371  0.0101  1.3026 -0.4351
 7039TIP3   OH242531   2.853   0.559   5.351 -0.3106 -0.1660 -0.2598
 7039TIP3    H142532   2.783   0.567   5.286  0.7003  2.2279 -1.1580
 7039TIP3    H242533   2.920   0.507   5.307  0.4880  1.6787 -1.3240
 7040TIP3   OH242534   4.541   2.597  11.503 -0.5580  0.0404 -0.7733
 7040TIP3    H142535   4.565   2.506  11.521  1.5663  0.5924 -0.5518
 7040TIP3    H242536   4.566   2.644  11.582  0.1957  1.1056 -1.6238
 7041TIP3   OH242537   4.634   3.519  13.215 -0.4465 -0.0766  0.2473
 7041TIP3    H142538   4.540   3.536  13.205 -0.4142  0.4615  0.8222
 7041TIP3    H242539   4.675   3.605  13.209  0.1178 -0.4072 -1.0343
 7042TIP3   OH242540   0.046   2.327   2.379  0.0792  0.0635  0.5303
 7042TIP3    H142541  -0.025   2.317   2.443 -0.5063  2.8039  0.4444
 7042TIP3    H242542   0.001   2.326   2.294  0.2679  0.7240  0.4187
 7043TIP3   OH242543   6.606   6.429   3.816 -0.0167 -0.0658 -0.5224
 7043TIP3    H142544   6.571   6.441   3.728  1.1741  0.4321 -0.9413
 7043TIP3    H242545   6.667   6.501   3.828  0.4862 -0.6198  0.3869
 7044TIP3   OH242546   2.695   5.232  11.879  0.2070 -0.0837 -0.0927
 7044TIP3    H142547   2.628   5.191  11.934 -1.2268  0.8963 -1.0491
 7044TIP3    H242548   2.759   5.267  11.942  0.2686 -1.7230  0.8110
 7045TIP3   OH242549   2.909   6.178   3.532 -0.0535 -0.0344 -0.0522
 7045TIP3    H142550   2.882   6.269   3.527 -0.2010  0.0049  1.0797
 7045TIP3    H242551   2.827   6.128   3.533 -0.0704 -0.0365  1.3261
 7046TIP3   OH242552   2.502   4.384   2.874  1.2511  0.6583  0.0129
 7046TIP3    H142553   2.518   4.440   2.950 -0.2296  3.6448 -1.6713
 7046TIP3    H242554   2.422   4.419   2.835  1.5552 -1.1961 -2.5297
 7047TIP3   OH242555   0.421   0.749  16.337 -0.0085  0.6682  0.0961
 7047TIP3    H142556   0.363   0.673  16.350  0.1953  0.2499 -1.2328
 7047TIP3    H242557   0.453   0.771  16.424  0.0182 -0.8582  0.4944
 7048TIP3   OH242558   0.463   1.890   4.074 -0.3209 -0.1159 -0.9013
 7048TIP3    H142559   0.371   1.897   4.103 -0.2083 -0.3199 -0.4870
 7048TIP3    H242560   0.476   1.796   4.060 -0.4171 -0.0074 -1.7805
 7049TIP3   OH242561   3.015   6.699   1.202 -0.7115 -0.2375  0.1040
 7049TIP3    H142562   3.099   6.726   1.165 -0.5848 -1.9238 -0.9278
 7049TIP3    H242563   2.990   6.621   1.152 -1.4756 -1.4983  2.3173
 7050TIP3   OH242564   4.676   0.884  14.747  0.2384 -0.2821 -0.5461
 7050TIP3    H142565   4.647   0.963  14.791 -0.6161 -1.5246  1.2668
 7050TIP3    H242566   4.686   0.909  14.656 -1.4999  1.5333 -0.3039
 7051TIP3   OH242567   4.922   4.986   3.956  0.9739  0.4414  0.6052
 7051TIP3    H142568   4.886   5.074   3.941  3.4095  1.5757  0.8596
 7051TIP3    H242569   5.012   4.992   3.925  1.5504 -1.6548  1.6971
 7052TIP3   OH242570   4.210   1.342  16.664 -0.3744  0.2640 -0.1222
 7052TIP3    H142571   4.264   1.348  16.585 -1.4922  0.5128 -0.9024
 7052TIP3    H242572   4.199   1.247  16.678  1.6089  0.1562  1.0420
 7053TIP3   OH242573   5.750   6.073  11.719  0.2398 -0.0923 -0.2169
 7053TIP3    H142574   5.696   6.118  11.655 -2.3392 -0.5229  1.5021
 7053TIP3    H242575   5.789   6.000  11.672 -0.7370  0.1939 -1.5085
 7054TIP3   OH242576   3.443   2.019  11.732 -0.6029 -0.4474  0.0399
 7054TIP3    H142577   3.373   1.964  11.695  0.0293 -1.0952 -0.2054
 7054TIP3    H242578   3.467   1.974  11.813 -1.6971  0.7452  1.0706
 7055TIP3   OH242579   2.713   5.823   0.698 -0.0854 -0.0223 -0.0760
 7055TIP3    H142580   2.690   5.907   0.658 -1.3991 -0.7973 -1.0148
 7055TIP3    H242581   2.793   5.797   0.653  0.1523  0.5662 -0.0095
 7056TIP3   OH242582   0.308   1.177   4.500 -0.0685 -0.2965 -0.3736
 7056TIP3    H142583   0.383   1.169   4.558  1.7244 -0.1891 -2.5191
 7056TIP3    H242584   0.306   1.094   4.452 -1.9248 -0.6634  0.2605
 7057TIP3   OH242585   4.339   5.947   3.625  0.5843  0.1132  0.1763
 7057TIP3    H142586   4.318   5.883   3.692 -0.2311  0.0229 -0.1616
 7057TIP3    H242587   4.267   5.943   3.563  0.6440  1.1714  0.0065
 7058TIP3   OH242588   4.641   2.105  17.149 -0.6759  0.2518  0.1738
 7058TIP3    H142589   4.666   2.135  17.062  0.0564  0.8001  0.5576
 7058TIP3    H242590   4.723   2.074  17.187 -1.0089 -0.0703  0.6353
 7059TIP3   OH242591   3.536   0.353   3.822 -0.1396 -0.0820 -0.0343
 7059TIP3    H142592   3.621   0.369   3.863 -0.1063 -1.3943  0.4661
 7059TIP3    H242593   3.487   0.434   3.835  0.9502  0.6138 -0.1311
 7060TIP3   OH242594   5.712   1.403   5.773 -1.1610 -0.2294 -0.5354
 7060TIP3    H142595   5.679   1.328   5.823  0.5002  1.3300  3.3506
 7060TIP3    H242596   5.807   1.399   5.784 -0.8479  1.1179 -2.3561
 7061TIP3   OH242597   5.181   2.077   5.818  0.0464  0.0746  0.3167
 7061TIP3    H142598   5.126   2.027   5.879 -0.2088  0.7066  0.6156
 7061TIP3    H242599   5.262   2.092   5.866 -0.1059  0.4600  0.4624
 7062TIP3   OH242600   4.917   3.428   1.313 -0.0701 -0.0991 -0.1173
 7062TIP3    H142601   4.903   3.523   1.304  2.3307  0.4175  0.7403
 7062TIP3    H242602   4.956   3.402   1.230  1.2861  0.1472  0.4136
 7063TIP3   OH242603   5.095   3.588   0.833  0.1258 -0.5039  0.7205
 7063TIP3    H142604   5.161   3.519   0.825 -0.5841 -1.2136  0.8584
 7063TIP3    H242605   5.027   3.549   0.888 -2.0805 -1.1129 -2.1762
 7064TIP3   OH242606   1.638   2.958   0.928 -0.2359  0.2044 -0.1146
 7064TIP3    H142607   1.631   3.048   0.897 -1.0250 -0.0754 -0.7813
 7064TIP3    H242608   1.556   2.942   0.974  0.0126 -0.0877  0.2328
 7065TIP3   OH242609   2.557   1.984   3.137 -0.2524  0.0896 -0.3884
 7065TIP3    H142610   2.597   1.937   3.210  1.7539  0.4417 -1.1849
 7065TIP3    H242611   2.467   1.998   3.164  0.1303 -0.7618  1.5316
 7066TIP3   OH242612   1.531   3.735   5.134 -0.1365  0.0593  0.1156
 7066TIP3    H142613   1.573   3.782   5.062 -0.3946 -0.6916 -0.5238
 7066TIP3    H242614   1.565   3.779   5.213  0.3301  0.7265 -0.4417
 7067TIP3   OH242615   1.876   1.051   4.933 -0.6306 -0.0283  0.4539
 7067TIP3    H142616   1.832   1.033   4.850 -1.3820  1.4015  0.4998
 7067TIP3    H242617   1.909   1.140   4.923  0.6882 -0.4182  1.1117
 7068TIP3   OH242618   2.547   4.667  17.032 -0.5748 -0.3459 -0.0884
 7068TIP3    H142619   2.480   4.717  16.986 -0.5103 -0.7685 -0.6435
 7068TIP3    H242620   2.618   4.659  16.969  1.0838  2.2135  1.2622
 7069TIP3   OH242621   4.663   3.374   0.007 -0.8671  0.2963 -0.4113
 7069TIP3    H142622   4.588   3.316   0.020 -0.2944 -0.8215 -1.7761
 7069TIP3    H242623   4.671   3.382  -0.088 -0.4655  2.0503 -0.2604
 7070TIP3   OH242624   4.457   5.261  16.139 -0.5872  0.5026 -0.2625
 7070TIP3    H142625   4.424   5.333  16.084 -0.1885  0.1644 -0.9502
 7070TIP3    H242626   4.544   5.290  16.167  0.0398 -0.1663 -1.4441
 7071TIP3   OH242627   4.329   0.634  10.651  0.8878 -0.3122 -0.3957
 7071TIP3    H142628   4.285   0.551  10.633 -1.9320  0.9206  0.1288
 7071TIP3    H242629   4.354   0.629  10.743 -2.3561  0.5132  0.6891
 7072TIP3   OH242630   6.225   6.561  15.873  0.0131 -0.0129  0.0525
 7072TIP3    H142631   6.141   6.582  15.831  0.0547 -2.1050 -1.2109
 7072TIP3    H242632   6.201   6.522  15.957 -0.2432 -0.0960 -0.0596
 7073TIP3   OH242633   4.779   6.589  15.248  0.2133 -0.1140  0.0436
 7073TIP3    H142634   4.788   6.684  15.254  2.5652 -0.2929  0.2971
 7073TIP3    H242635   4.722   6.566  15.321 -1.3740  1.1824 -0.7324
 7074TIP3   OH242636   1.977   1.874   3.565 -0.6334 -0.3355  0.2067
 7074TIP3    H142637   2.043   1.910   3.625  0.3013  1.6331 -1.8613
 7074TIP3    H242638   1.897   1.924   3.585 -0.8150 -0.9129  0.9648
 7075TIP3   OH242639   2.350   4.711  16.421  0.2467  0.5642  0.5141
 7075TIP3    H142640   2.410   4.657  16.473  0.6131  0.5687  0.1003
 7075TIP3    H242641   2.291   4.648  16.381  1.2993  0.3594 -0.7765
 7076TIP3   OH242642   3.863   1.163   5.005 -0.0581  0.2382  0.3588
 7076TIP3    H142643   3.797   1.151   5.073  1.6828 -0.5474  2.0269
 7076TIP3    H242644   3.816   1.149   4.923 -2.4510  2.1093  1.2965
 7077TIP3   OH242645   5.023   4.004  13.203  0.1417  0.5298 -0.4413
 7077TIP3    H142646   5.050   3.932  13.259 -0.1362 -0.7473 -1.8820
 7077TIP3    H242647   4.944   4.039  13.244 -0.3731 -0.7455 -0.3071
 7078TIP3   OH242648   1.262   4.175   4.892 -0.1114 -0.4443  0.7638
 7078TIP3    H142649   1.217   4.259   4.884  1.1949  0.0968 -1.9733
 7078TIP3    H242650   1.279   4.167   4.986 -1.8571  1.4720  1.3177
 7079TIP3   OH242651   2.744   3.316   4.088  0.8449 -0.4306  0.0250
 7079TIP3    H142652   2.808   3.382   4.115  1.1393 -0.6241 -0.1902
 7079TIP3    H242653   2.770   3.292   3.999  0.7902 -0.8973  0.1287
 7080TIP3   OH242654   3.211   3.401  12.813  0.0884 -0.0461 -0.1996
 7080TIP3    H142655   3.241   3.329  12.869 -0.7634  1.3047  2.1034
 7080TIP3    H242656   3.140   3.442  12.862 -0.2608  1.6444 -1.9973
 7081TIP3   OH242657   1.580   2.920  16.197 -0.6514 -0.3394  0.1977
 7081TIP3    H142658   1.490   2.931  16.226 -1.1240  2.4222 -1.9508
 7081TIP3    H242659   1.574   2.902  16.103  1.0335 -1.0168  0.1751
 7082TIP3   OH242660   1.838   4.610  15.401  0.4704 -0.6079 -0.1672
 7082TIP3    H142661   1.835   4.535  15.341 -2.5821 -0.7079 -0.0732
 7082TIP3    H242662   1.864   4.572  15.485  0.5408 -1.2593 -0.4781
 7083TIP3   OH242663   0.459   5.360  12.487  0.2270  0.7052 -0.1551
 7083TIP3    H142664   0.494   5.331  12.571 -0.3732 -1.6395 -0.6590
 7083TIP3    H242665   0.520   5.428  12.458  1.0631  0.7757  1.6320
 7084TIP3   OH242666   4.952   4.566   4.994  0.3832 -0.7132 -0.0740
 7084TIP3    H142667   4.865   4.588   5.028  1.2802  1.7637  0.8832
 7084TIP3    H242668   4.973   4.482   5.034 -0.7160 -0.3294  1.4226
 7085TIP3   OH242669   6.420   4.516   3.162  0.2165  0.6557  0.2660
 7085TIP3    H142670   6.431   4.574   3.087  0.0081  0.5070  0.1173
 7085TIP3    H242671   6.394   4.432   3.123  0.2026  0.5509  0.4988
 7086TIP3   OH242672   5.362   2.826  13.934 -0.3768  0.1314 -0.3150
 7086TIP3    H142673   5.402   2.740  13.918  0.9484  0.3709  1.4090
 7086TIP3    H242674   5.398   2.882  13.865  2.8841  0.4696  1.4631
 7087TIP3   OH242675   2.656   3.804   4.561 -0.3481 -0.3154  0.1032
 7087TIP3    H142676   2.728   3.751   4.594 -0.9763 -0.8508  0.6471
 7087TIP3    H242677   2.684   3.894   4.574 -0.3191 -0.5100  1.5551
 7088TIP3   OH242678   4.602   6.501   1.307 -0.1485  0.1838 -0.3942
 7088TIP3    H142679   4.659   6.549   1.368 -0.5538 -0.2236  0.3185
 7088TIP3    H242680   4.578   6.421   1.355 -0.6964 -0.0119 -0.9848
 7089TIP3   OH242681   2.450   2.291  14.523  0.0118  0.3364  0.5319
 7089TIP3    H142682   2.387   2.284  14.595 -1.7908 -0.4277 -1.0198
 7089TIP3    H242683   2.474   2.201  14.503  0.9490  0.5775  0.5430
 7090TIP3   OH242684   6.213   0.810  13.694  0.3540 -0.0229  0.1056
 7090TIP3    H142685   6.123   0.839  13.681  0.3612 -0.8539 -2.3516
 7090TIP3    H242686   6.266   0.881  13.657  0.7288  0.2740  1.1652
 7091TIP3   OH242687   0.403   0.789   1.106 -0.2092  0.1560 -0.0933
 7091TIP3    H142688   0.440   0.796   1.194  0.1580  0.9077 -0.2986
 7091TIP3    H242689   0.441   0.863   1.058  0.9728 -1.2482 -1.4053
 7092TIP3   OH242690   5.510   5.468  13.064 -0.1465 -0.2607 -0.1581
 7092TIP3    H142691   5.583   5.410  13.040 -0.1700 -0.7617  0.9612
 7092TIP3    H242692   5.489   5.514  12.982  1.9096  0.4400 -0.3581
 7093TIP3   OH242693   2.890   4.274   3.643 -0.0362 -0.2025  0.0715
 7093TIP3    H142694   2.945   4.292   3.567 -0.0602  2.0711  0.5192
 7093TIP3    H242695   2.801   4.298   3.616 -0.4707 -1.6914  0.0800
 7094TIP3   OH242696   6.576   2.353   1.111 -0.2636 -0.0239  0.0488
 7094TIP3    H142697   6.564   2.263   1.142 -0.8825  0.4397  1.2129
 7094TIP3    H242698   6.492   2.396   1.128  0.5790  1.2468  1.1848
 7095TIP3   OH242699   5.681   4.013   2.069 -0.1753 -0.1851 -0.4111
 7095TIP3    H142700   5.595   4.022   2.111  0.3600  1.6960  0.3946
 7095TIP3    H242701   5.743   4.008   2.142  0.6959  2.2701 -0.8820
 7096TIP3   OH242702   0.217   6.295   3.769 -0.1574  0.0546 -0.5839
 7096TIP3    H142703   0.243   6.376   3.812 -1.3614  0.4579 -0.5735
 7096TIP3    H242704   0.172   6.324   3.690  0.3044 -0.6401 -1.1122
 7097TIP3   OH242705   4.464   5.767  15.589 -0.0678  0.1276  0.2828
 7097TIP3    H142706   4.537   5.826  15.609 -0.5484  0.3768  1.3826
 7097TIP3    H242707   4.391   5.802  15.640 -0.4388 -1.2473  0.7123
 7098TIP3   OH242708   1.437   2.269   3.414  0.3487  0.5206 -0.3155
 7098TIP3    H142709   1.349   2.237   3.429  0.7116  0.2098  1.2663
 7098TIP3    H242710   1.492   2.190   3.410  0.4632  0.6248 -2.3633
 7099TIP3   OH242711   4.561   0.608  12.731 -0.6181  0.1682  0.9576
 7099TIP3    H142712   4.541   0.666  12.805 -1.6206 -0.1535  0.9585
 7099TIP3    H242713   4.484   0.614  12.674  0.6294  1.3287 -0.6911
 7100TIP3   OH242714   6.018   3.045   2.933  0.5438  0.0410  0.1602
 7100TIP3    H142715   6.033   2.960   2.892 -0.9562  0.0568 -0.4838
 7100TIP3    H242716   6.072   3.044   3.012  1.0384 -1.2507 -0.1771
 7101TIP3   OH242717   1.035   3.046   6.965  0.2243 -0.1366  0.2233
 7101TIP3    H142718   1.049   3.087   6.880  0.0317  2.1658  1.2244
 7101TIP3    H242719   0.947   3.009   6.960 -0.0578  0.6024 -0.3527
 7102TIP3   OH242720   1.959   5.499  16.324  0.2978  0.3509 -0.2709
 7102TIP3    H142721   1.996   5.476  16.239 -0.5361  0.1044 -0.5777
 7102TIP3    H242722   1.913   5.581  16.308 -0.0098  0.2130 -0.0958
 7103TIP3   OH242723   5.855   3.455  11.988 -0.1254 -0.0407  0.4074
 7103TIP3    H142724   5.898   3.525  11.940 -1.3835 -0.1046 -0.8872
 7103TIP3    H242725   5.912   3.379  11.976 -1.5380 -0.7166 -3.1835
 7104TIP3   OH242726   4.125   0.293   6.146 -0.3141 -0.2410 -0.1933
 7104TIP3    H142727   4.212   0.260   6.123  0.8278  1.4353  1.4317
 7104TIP3    H242728   4.113   0.267   6.237 -0.5544  1.3787  0.2663
 7105TIP3   OH242729   3.172   0.720   4.729  0.4231  0.1807  0.2738
 7105TIP3    H142730   3.230   0.787   4.765 -1.6736  2.1003  0.3339
 7105TIP3    H242731   3.174   0.649   4.793  2.5823  0.1791  0.2860
 7106TIP3   OH242732   4.752   4.055  11.558 -0.2776  0.3403  0.2432
 7106TIP3    H142733   4.720   4.014  11.477 -0.6188  1.2181 -0.0804
 7106TIP3    H242734   4.752   3.984  11.622 -2.1827  0.1184  0.0699
 7107TIP3   OH242735   3.160   2.627   4.567 -0.2153  0.3965  0.1598
 7107TIP3    H142736   3.255   2.628   4.569 -0.2257  0.7470  1.2462
 7107TIP3    H242737   3.138   2.572   4.491  0.8272  1.1309 -0.7044
 7108TIP3   OH242738   3.940   3.496  12.628 -0.3266 -0.0137  0.0124
 7108TIP3    H142739   3.870   3.435  12.604  0.0914 -0.0231 -1.2736
 7108TIP3    H242740   4.019   3.442  12.629 -0.0087  0.4199 -0.7849
 7109TIP3   OH242741   1.781   2.163   5.488  0.1386 -0.2544  0.4836
 7109TIP3    H142742   1.825   2.150   5.572  0.5863  1.3572  0.5237
 7109TIP3    H242743   1.849   2.145   5.423 -0.0726 -1.0083  0.4592
 7110TIP3   OH242744   4.789   0.656   1.309  0.0083 -0.3112  0.0080
 7110TIP3    H142745   4.746   0.742   1.313 -0.3983 -0.5319  0.5049
 7110TIP3    H242746   4.870   0.672   1.261  1.1180  0.8586  2.1097
 7111TIP3   OH242747   2.052   5.173  17.221  0.3818 -0.1242 -0.1571
 7111TIP3    H142748   2.133   5.204  17.181  0.8101  1.0324  1.5045
 7111TIP3    H242749   1.985   5.190  17.156  0.9165  2.5130 -0.1458
 7112TIP3   OH242750   3.873   0.411   6.426 -0.0336  0.2142 -0.3904
 7112TIP3    H142751   3.944   0.387   6.485 -0.5661  1.0368  0.6066
 7112TIP3    H242752   3.829   0.484   6.469 -2.1402 -0.9245 -0.4660
 7113TIP3   OH242753   6.138   2.713  16.906 -0.2421  0.6774  0.2475
 7113TIP3    H142754   6.129   2.692  16.999 -0.9172 -3.0169 -0.5125
 7113TIP3    H242755   6.082   2.790  16.894 -0.3172  1.1195  2.7957
 7114TIP3   OH242756   6.599   1.933  16.710  0.1573 -0.5131  0.3576
 7114TIP3    H142757   6.573   1.980  16.631 -0.8105 -2.3396 -0.4814
 7114TIP3    H242758   6.668   1.873  16.680 -0.5087 -1.5128  0.7662
 7115TIP3   OH242759   0.415   3.053  13.709  0.0427 -0.4040 -0.0118
 7115TIP3    H142760   0.359   3.038  13.786 -0.5855  0.2729 -0.3250
 7115TIP3    H242761   0.462   3.134  13.729 -1.8318  1.0893 -1.2594
 7116TIP3   OH242762   6.653   3.802  16.237 -0.5066  0.1653  0.3763
 7116TIP3    H142763   6.667   3.710  16.259  1.9747  0.6244  1.1031
 7116TIP3    H242764   6.657   3.806  16.142  1.2420 -0.2822  0.4050
 7117TIP3   OH242765   4.545   6.463  16.336  0.3759  0.0230  0.4012
 7117TIP3    H142766   4.499   6.539  16.301  3.0493  1.6408  0.1181
 7117TIP3    H242767   4.557   6.405  16.261 -1.3605 -0.5862  0.5473
 7118TIP3   OH242768   1.167   4.223  16.113 -0.1745 -0.0162 -0.1256
 7118TIP3    H142769   1.167   4.192  16.204 -0.2636 -1.7276 -0.6803
 7118TIP3    H242770   1.223   4.161  16.066 -1.3825 -0.0837 -1.5494
 7119TIP3   OH242771   6.250   0.011  12.124  0.4136 -0.1684  0.3516
 7119TIP3    H142772   6.214   0.014  12.035 -0.9786  0.6542  0.8978
 7119TIP3    H242773   6.177  -0.023  12.178  1.2421 -0.6888  1.1754
 7120TIP3   OH242774   2.712   1.888   3.624  0.2883 -0.4267 -0.2294
 7120TIP3    H142775   2.729   1.931   3.540  1.8396 -0.2194  0.1530
 7120TIP3    H242776   2.762   1.940   3.688  0.3292 -1.4449  0.5977
 7121TIP3   OH242777   1.841   6.196  15.839  0.0167 -0.2169 -0.2286
 7121TIP3    H142778   1.861   6.281  15.877  0.9563  0.6907 -2.6109
 7121TIP3    H242779   1.755   6.208  15.798  0.5258 -0.1533 -1.2860
 7122TIP3   OH242780   3.924   1.871   2.843 -0.5325  0.1184 -0.6281
 7122TIP3    H142781   3.950   1.851   2.753 -0.1379 -2.3315 -0.0291
 7122TIP3    H242782   3.852   1.933   2.833 -1.6664 -1.4084 -2.7499
 7123TIP3   OH242783   2.931   5.195  14.566  0.2932 -0.4052 -0.2794
 7123TIP3    H142784   2.837   5.178  14.573  0.2631  0.0514  0.4804
 7123TIP3    H242785   2.968   5.154  14.644  0.2027  2.9982  1.7482
 7124TIP3   OH242786   0.725   3.672   5.440  0.2359  0.3070 -0.0462
 7124TIP3    H142787   0.802   3.727   5.426 -0.0303  1.8550  3.5028
 7124TIP3    H242788   0.652   3.724   5.403  0.1979  1.7135  1.8769
 7125TIP3   OH242789   4.787   2.994  13.639  0.2033 -0.2717 -0.3551
 7125TIP3    H142790   4.869   2.979  13.593 -0.6248 -1.2434 -1.5932
 7125TIP3    H242791   4.778   2.918  13.697 -1.0323 -1.5584 -2.1328
 7126TIP3   OH242792   1.277   1.983  11.716 -0.2221  0.2359  0.1557
 7126TIP3    H142793   1.349   1.924  11.738 -0.9468 -0.5403  0.5395
 7126TIP3    H242794   1.319   2.061  11.681  0.8739  0.3838  1.7050
 7127TIP3   OH242795   1.138   3.945  15.055 -0.0012  0.1827 -0.5836
 7127TIP3    H142796   1.170   3.879  14.993 -1.6132 -1.6164  0.3831
 7127TIP3    H242797   1.072   3.899  15.106 -0.4848  2.3164  0.8246
 7128TIP3   OH242798   4.999   2.256   6.044 -0.4533  0.3452 -0.2184
 7128TIP3    H142799   5.018   2.199   6.119  0.3258  1.0807  0.1571
 7128TIP3    H242800   4.914   2.296   6.064 -0.7643 -0.2827 -0.2509
 7129TIP3   OH242801   2.138   3.721  14.484  0.0791  0.5282 -0.0348
 7129TIP3    H142802   2.164   3.774  14.409 -2.1279 -1.3242 -2.3030
 7129TIP3    H242803   2.142   3.631  14.453  0.6778 -0.4853  2.6644
 7130TIP3   OH242804   5.275   4.716  13.768  0.3133  0.3325 -0.4956
 7130TIP3    H142805   5.185   4.694  13.746  0.2739 -0.0512  0.0317
 7130TIP3    H242806   5.302   4.648  13.830  1.1541  0.1162 -1.0817
 7131TIP3   OH242807   6.196   0.935  13.401 -0.2237  0.4917 -0.4022
 7131TIP3    H142808   6.121   0.921  13.343  0.4051 -3.3023 -0.5440
 7131TIP3    H242809   6.158   0.935  13.489 -0.6223  1.0244 -0.5705
 7132TIP3   OH242810   0.281   6.076  13.520 -0.1885  0.1658  0.5254
 7132TIP3    H142811   0.365   6.105  13.554  0.2952 -0.1723 -0.3385
 7132TIP3    H242812   0.259   6.140  13.452  0.8580 -1.3663 -1.3510
 7133TIP3   OH242813   0.735   1.733  10.934 -0.1660 -0.2603 -0.0824
 7133TIP3    H142814   0.795   1.751  10.862 -0.2855  1.3839  0.2016
 7133TIP3    H242815   0.776   1.770  11.011 -1.4044  0.6872  0.1598
 7134TIP3   OH242816   3.869   3.430   3.605  0.0790  0.5426 -0.7395
 7134TIP3    H142817   3.881   3.509   3.658  2.1868  1.3725 -2.2865
 7134TIP3    H242818   3.838   3.464   3.520 -0.7616 -0.5039 -0.8692
 7135TIP3   OH242819   0.245   2.462   1.962  0.7592  0.0381 -0.4316
 7135TIP3    H142820   0.255   2.525   1.891 -0.0149 -1.3556 -1.8181
 7135TIP3    H242821   0.326   2.411   1.961  0.7497  0.0189 -0.3106
 7136TIP3   OH242822   4.817   4.871  17.222 -0.3759  0.5502  0.3186
 7136TIP3    H142823   4.869   4.892  17.299  0.6068 -0.4811 -0.0359
 7136TIP3    H242824   4.726   4.874  17.253 -0.1144  2.0652  1.0209
 7137TIP3   OH242825   4.483   2.746   4.736  0.1704  0.3178 -0.1444
 7137TIP3    H142826   4.414   2.732   4.802  1.1164  0.4003  0.8931
 7137TIP3    H242827   4.561   2.706   4.775  1.2302  2.1137 -0.3375
 7138TIP3   OH242828   0.990   3.248  11.831  0.0121 -0.0285  0.5607
 7138TIP3    H142829   1.021   3.305  11.760  0.7430 -0.2100  0.7242
 7138TIP3    H242830   0.896   3.263  11.834 -0.0187  0.0687 -0.3779
 7139TIP3   OH242831   6.575   3.364   5.203  0.6301  0.2555 -0.0568
 7139TIP3    H142832   6.635   3.327   5.138 -1.0687  1.0094 -2.1894
 7139TIP3    H242833   6.536   3.288   5.246  0.9326 -0.3107 -0.7608
 7140TIP3   OH242834   6.183   6.473  13.166  0.4256 -0.1762 -0.3567
 7140TIP3    H142835   6.120   6.467  13.237 -1.0554  1.6624 -1.4124
 7140TIP3    H242836   6.144   6.422  13.095  2.2668 -2.6839  0.2802
 7141TIP3   OH242837   5.459   0.770   5.836 -0.4069 -0.3038 -0.2497
 7141TIP3    H142838   5.489   0.754   5.926 -1.6843  1.6727  0.6243
 7141TIP3    H242839   5.510   0.846   5.807 -0.7095 -0.3047 -0.7907
 7142TIP3   OH242840   5.345   2.678   5.589 -0.1139  0.3785 -0.2530
 7142TIP3    H142841   5.250   2.686   5.590 -0.0685  0.8347  0.5577
 7142TIP3    H242842   5.367   2.670   5.496 -0.9196  0.4818 -0.4597
 7143TIP3   OH242843   4.991   5.229  12.478  0.0796  0.1203 -0.5470
 7143TIP3    H142844   4.927   5.273  12.423 -0.1670  1.1955  0.5702
 7143TIP3    H242845   4.949   5.145  12.501 -0.9013  0.7643  0.0878
 7144TIP3   OH242846   0.830   1.673   1.561 -0.1915 -0.2771  0.0308
 7144TIP3    H142847   0.924   1.668   1.542 -0.5269 -1.5897 -1.4900
 7144TIP3    H242848   0.814   1.766   1.577  1.2553  0.0601 -0.3295
 7145TIP3   OH242849   4.234   3.818  13.307 -0.2551  0.1589  0.0543
 7145TIP3    H142850   4.300   3.854  13.367  0.9406  0.2683 -1.2613
 7145TIP3    H242851   4.268   3.732  13.283 -0.3475  0.4046 -0.9989
 7146TIP3   OH242852   1.932   4.019  12.875  0.4543  0.4864  0.2283
 7146TIP3    H142853   1.936   4.104  12.918 -2.4218 -0.5461  2.8802
 7146TIP3    H242854   1.847   4.018  12.830 -0.4049 -1.4579  1.6847
 7147TIP3   OH242855   3.313   0.719  17.313 -0.0416 -0.1931  0.1241
 7147TIP3    H142856   3.393   0.732  17.365  0.4248 -2.6176  0.1294
 7147TIP3    H242857   3.243   0.756  17.367  1.0322  2.1628  0.0353
 7148TIP3   OH242858   4.629   4.860   5.461  0.4140  0.0010 -0.3379
 7148TIP3    H142859   4.683   4.781   5.470 -0.3721 -0.5785 -0.6045
 7148TIP3    H242860   4.542   4.827   5.440  0.1272  0.9531 -0.6898
 7149TIP3   OH242861   6.408   2.508   0.454  0.3872  0.0381  0.1843
 7149TIP3    H142862   6.454   2.574   0.506  1.5121 -0.9879  0.5228
 7149TIP3    H242863   6.351   2.559   0.396  2.4814  1.4209 -0.7801
 7150TIP3   OH242864   4.699   2.254   0.312  0.1615  0.8442 -0.0663
 7150TIP3    H142865   4.672   2.346   0.308  0.4736  0.9300 -0.1944
 7150TIP3    H242866   4.793   2.256   0.299  0.3169  0.5894  0.9130
 7151TIP3   OH242867   2.640   6.071   4.018 -0.7098 -0.2746  0.2859
 7151TIP3    H142868   2.732   6.044   4.009 -1.1490 -1.8370  0.1290
 7151TIP3    H242869   2.617   6.109   3.933 -0.7653 -1.7708 -0.4037
 7152TIP3   OH242870   0.131   1.730  17.219  0.1407  0.1739  0.1348
 7152TIP3    H142871   0.159   1.771  17.138  1.7644 -2.0778 -0.5510
 7152TIP3    H242872   0.100   1.643  17.192 -3.2008  0.8089  1.4796
 7153TIP3   OH242873   6.304   6.404   3.981  0.5615  0.6441 -0.1330
 7153TIP3    H142874   6.369   6.341   3.948 -0.5082  0.3306 -1.7223
 7153TIP3    H242875   6.230   6.350   4.009  1.3066  0.9070  2.7021
 7154TIP3   OH242876   5.784   2.166   4.518  0.3802 -0.6166 -0.1408
 7154TIP3    H142877   5.794   2.260   4.529  2.1978 -0.6496 -1.0754
 7154TIP3    H242878   5.702   2.156   4.468  1.2054  0.6343 -1.8455
 7155TIP3   OH242879   4.499   0.448   3.195  0.3353  0.3816 -0.2358
 7155TIP3    H142880   4.526   0.494   3.116 -0.5235  0.6450 -0.3890
 7155TIP3    H242881   4.404   0.454   3.194  0.1634 -1.7106 -0.4453
 7156TIP3   OH242882   3.861   6.736   3.515  0.0295  0.2791  0.6283
 7156TIP3    H142883   3.880   6.780   3.598 -0.6190  2.1696 -0.1715
 7156TIP3    H242884   3.931   6.766   3.456  0.6192 -1.2256  0.5138
 7157TIP3   OH242885   0.915   6.521   3.299 -0.1631  0.5980  0.6362
 7157TIP3    H142886   0.893   6.551   3.387  0.7714 -0.9594  1.4329
 7157TIP3    H242887   0.911   6.600   3.245  0.5175  1.8269  2.3196
 7158TIP3   OH242888   2.754   5.625  12.238  0.5075 -0.3315 -0.0983
 7158TIP3    H142889   2.742   5.681  12.314 -0.7519 -0.2688 -0.3296
 7158TIP3    H242890   2.677   5.568  12.236 -0.6419  1.1082 -2.5058
 7159TIP3   OH242891   5.142   1.820  14.500 -0.5700 -0.0139  0.2115
 7159TIP3    H142892   5.055   1.825  14.460 -1.6811 -0.9939  2.3581
 7159TIP3    H242893   5.187   1.750  14.452 -1.1187  0.1690 -0.5864
 7160TIP3   OH242894   0.213   3.876   5.999  0.1966 -0.0225 -0.2450
 7160TIP3    H142895   0.264   3.806   5.958  0.8627  0.2537  0.0947
 7160TIP3    H242896   0.122   3.848   5.990  0.4400 -0.7900 -0.3780
 7161TIP3   OH242897   2.254   3.762  15.837 -0.2180  0.0213  0.1407
 7161TIP3    H142898   2.288   3.724  15.756 -1.3693 -1.1256  0.1403
 7161TIP3    H242899   2.321   3.823  15.867  0.9504 -0.7699 -0.8067
 7162TIP3   OH242900   4.369   0.756   2.725  0.8791  0.6581 -0.4040
 7162TIP3    H142901   4.408   0.814   2.790  1.4732 -0.7147  0.5019
 7162TIP3    H242902   4.275   0.760   2.743  1.0201  0.4320  0.4362
 7163TIP3   OH242903   4.090   5.117  12.432  0.2411 -0.0768 -0.1420
 7163TIP3    H142904   4.133   5.033  12.447  2.0211  0.8447  0.2704
 7163TIP3    H242905   4.090   5.160  12.517  0.7409  0.9365 -0.6351
 7164TIP3   OH242906   4.221   4.450  15.914  0.6514 -0.6249 -0.4059
 7164TIP3    H142907   4.190   4.527  15.867 -1.4442 -1.0515  0.1708
 7164TIP3    H242908   4.145   4.391  15.916  1.2940 -1.4638  1.7204
 7165TIP3   OH242909   4.190   5.750  15.143 -0.8355 -0.4257 -0.6961
 7165TIP3    H142910   4.227   5.732  15.230  0.1403  0.1313 -0.9807
 7165TIP3    H242911   4.223   5.837  15.121 -0.8372 -0.6808 -1.7474
 7166TIP3   OH242912   4.377   3.923  14.697  0.3059  0.0840  0.1701
 7166TIP3    H142913   4.381   3.920  14.602  0.7082 -1.8155  0.2035
 7166TIP3    H242914   4.367   4.015  14.718  1.1022  0.6349 -1.6818
 7167TIP3   OH242915   3.889   3.814   3.514  0.7574  0.0539 -0.1107
 7167TIP3    H142916   3.957   3.854   3.458  1.9029  0.4575  1.4874
 7167TIP3    H242917   3.828   3.886   3.533  1.1832  0.3073  0.3349
 7168TIP3   OH242918   3.339   0.630  16.438 -0.1017  0.0348  0.0290
 7168TIP3    H142919   3.273   0.626  16.370 -1.0839  0.7535  0.9054
 7168TIP3    H242920   3.422   0.637  16.391 -0.7878  0.9540 -1.0880
 7169TIP3   OH242921   2.352   3.285  11.957  0.4870  0.0466 -0.0403
 7169TIP3    H142922   2.403   3.285  12.038  1.0921  2.2174 -0.3390
 7169TIP3    H242923   2.404   3.232  11.896  0.7695 -0.3723  0.5558
 7170TIP3   OH242924   5.312   0.882   0.132 -0.1149 -0.6483  0.1002
 7170TIP3    H142925   5.252   0.952   0.158 -1.1749 -1.0766 -1.0327
 7170TIP3    H242926   5.398   0.910   0.163 -0.4959  1.2008 -0.4020
 7171TIP3   OH242927   6.159   6.670  10.503 -0.5717 -0.0850 -0.1268
 7171TIP3    H142928   6.154   6.577  10.525 -0.7417  0.4161  2.1847
 7171TIP3    H242929   6.252   6.689  10.499 -0.5246 -0.0267  1.0290
 7172TIP3   OH242930   1.290   1.436   2.422 -0.6444 -0.3902 -0.2174
 7172TIP3    H142931   1.341   1.502   2.375  0.3284 -0.6790  0.4072
 7172TIP3    H242932   1.210   1.427   2.370 -1.4975  2.3160  0.4284
 7173TIP3   OH242933   0.456   1.536   4.762 -0.3501  0.2193  0.1265
 7173TIP3    H142934   0.546   1.520   4.733 -0.0150 -2.9493  2.3050
 7173TIP3    H242935   0.402   1.521   4.684  0.9327  1.5848 -1.0693
 7174TIP3   OH242936   4.421   3.312  12.260 -0.0075 -0.3144 -0.0049
 7174TIP3    H142937   4.414   3.283  12.351 -0.1491  1.5121  0.6294
 7174TIP3    H242938   4.504   3.360  12.256 -0.2288  0.0330 -0.7015
 7175TIP3   OH242939   5.447   5.300   0.562 -0.9358 -0.0224 -0.2728
 7175TIP3    H142940   5.461   5.206   0.552  1.9877  0.4381 -1.5276
 7175TIP3    H242941   5.519   5.329   0.618 -2.0605  1.4409  0.4850
 7176TIP3   OH242942   2.943   1.314   5.025 -0.6482  0.2750 -0.8717
 7176TIP3    H142943   2.910   1.375   5.092 -0.0731 -0.2838 -0.0655
 7176TIP3    H242944   2.935   1.228   5.066  1.7876  0.1061 -0.6357
 7177TIP3   OH242945   1.331   4.548  11.246 -0.4844 -0.2624  0.1008
 7177TIP3    H142946   1.277   4.602  11.187  1.9857  0.7651 -1.3601
 7177TIP3    H242947   1.305   4.458  11.226 -3.3404  0.1732  1.2326
 7178TIP3   OH242948   0.165   2.977  16.799 -0.5183 -0.1906 -0.1186
 7178TIP3    H142949   0.115   3.056  16.820  0.1946  0.4408 -0.7119
 7178TIP3    H242950   0.108   2.925  16.743 -0.9415 -0.0279  0.1615
 7179TIP3   OH242951   3.060   4.079  15.405 -0.5406  0.9088  0.1211
 7179TIP3    H142952   3.142   4.036  15.427  0.9784  3.8851  0.8168
 7179TIP3    H242953   3.003   4.062  15.480 -0.4439 -0.7608 -0.1424
 7180TIP3   OH242954   4.277   1.342  14.914 -0.6541 -0.1874  0.0263
 7180TIP3    H142955   4.215   1.302  14.974 -0.0420 -1.2886 -0.0495
 7180TIP3    H242956   4.363   1.310  14.943 -0.1889  0.7354 -0.3033
 7181TIP3   OH242957   5.762   2.675  16.147  0.7116 -0.0073  0.1400
 7181TIP3    H142958   5.833   2.739  16.149  0.1404  0.6065  1.2550
 7181TIP3    H242959   5.760   2.638  16.235 -1.5044  1.2851  0.7020
 7182TIP3   OH242960   5.363   3.945  13.704 -0.0818 -0.2430  0.4401
 7182TIP3    H142961   5.422   3.993  13.646  0.7594 -1.0095  0.6300
 7182TIP3    H242962   5.389   3.973  13.792  0.7347 -1.3593  0.5779
 7183TIP3   OH242963   6.136   2.791   2.864  0.1224 -0.3329  0.4269
 7183TIP3    H142964   6.102   2.721   2.809  1.0510  0.6753 -1.5601
 7183TIP3    H242965   6.127   2.759   2.954 -3.6168 -1.1180 -0.0888
 7184TIP3   OH242966   4.142   1.867  16.424 -0.8546 -0.0087  1.0294
 7184TIP3    H142967   4.063   1.847  16.475  0.7885  0.3712  3.9165
 7184TIP3    H242968   4.188   1.783  16.418 -1.5265 -0.2869 -0.8850
 7185TIP3   OH242969   1.187   3.292  13.873  0.1265  0.1653 -0.6908
 7185TIP3    H142970   1.111   3.286  13.931 -0.3812 -2.2063 -1.4562
 7185TIP3    H242971   1.216   3.201  13.862  1.6303  0.7701 -2.2746
 7186TIP3   OH242972   2.446   4.884   0.676  0.4527 -0.0534 -0.3042
 7186TIP3    H142973   2.392   4.962   0.661  0.8262  0.1852 -0.4353
 7186TIP3    H242974   2.534   4.919   0.688  0.7657 -0.5121 -1.1747
 7187TIP3   OH242975   0.727   3.909   0.251  0.2591  0.1860 -0.1477
 7187TIP3    H142976   0.730   3.827   0.301 -1.2189  0.1462 -0.0676
 7187TIP3    H242977   0.767   3.974   0.308  0.2813 -0.2317  0.3172
 7188TIP3   OH242978   0.444   2.918  16.877  0.1734  0.0640  0.0458
 7188TIP3    H142979   0.466   3.011  16.883 -0.4754  0.2385 -0.2319
 7188TIP3    H242980   0.349   2.916  16.874  0.2099 -0.5336 -1.2314
 7189TIP3   OH242981   4.600   0.925   2.265 -0.2597  0.7920 -0.3234
 7189TIP3    H142982   4.516   0.938   2.307 -0.5352  1.3986 -1.0459
 7189TIP3    H242983   4.663   0.972   2.320 -0.0854 -1.0807  1.1918
 7190TIP3   OH242984   5.992   6.358   4.347 -0.1658 -0.2015 -0.3504
 7190TIP3    H142985   5.903   6.325   4.362  0.2419 -1.3103 -0.2716
 7190TIP3    H242986   6.046   6.309   4.409  0.5988 -0.0311 -0.8655
 7191TIP3   OH242987   2.019   5.895   2.878 -0.6552 -0.2475  0.1962
 7191TIP3    H142988   2.003   5.822   2.819 -2.3508 -0.4528  0.8660
 7191TIP3    H242989   1.938   5.905   2.928 -0.3103  1.7719  0.4713
 7192TIP3   OH242990   4.317   0.197  16.491 -0.0027  0.3025 -0.5394
 7192TIP3    H142991   4.375   0.128  16.458 -1.4629 -0.1523 -2.3229
 7192TIP3    H242992   4.245   0.150  16.533 -0.8792  0.7345 -1.5393
 7193TIP3   OH242993   5.545   5.119   2.002 -0.2901  0.1634 -0.2998
 7193TIP3    H142994   5.567   5.151   1.915 -2.5613 -0.8286 -1.3556
 7193TIP3    H242995   5.469   5.171   2.029 -0.2640 -0.2397  0.6155
 7194TIP3   OH242996   3.204   5.980  16.573  0.3265  0.4340 -0.1498
 7194TIP3    H142997   3.167   5.968  16.660  1.4628  1.0375  0.4374
 7194TIP3    H242998   3.222   5.891  16.543 -1.9445  0.0766 -0.6569
 7195TIP3   OH242999   0.325   3.899  16.375  0.6491  0.4548  0.6375
 7195TIP3    H143000   0.337   3.844  16.298 -0.1677  1.4733 -0.2629
 7195TIP3    H243001   0.233   3.888  16.398  1.0005 -0.2148  1.7873
 7196TIP3   OH243002   2.342   0.396  16.862  0.0465  0.3202  0.0970
 7196TIP3    H143003   2.342   0.472  16.922  0.5051  0.9394 -0.6780
 7196TIP3    H243004   2.397   0.423  16.789  0.2097 -0.7744 -0.1961
 7197TIP3   OH243005   1.007   2.560  12.045 -0.2898 -0.0279 -0.2124
 7197TIP3    H143006   1.054   2.593  11.969  0.5618 -0.1719  0.2323
 7197TIP3    H243007   0.947   2.631  12.069  1.1899  1.0531  0.4640
 7198TIP3   OH243008   3.199   2.292  16.154 -0.5388 -0.1658 -0.1513
 7198TIP3    H143009   3.138   2.341  16.099 -0.9911 -1.7750 -1.1754
 7198TIP3    H243010   3.150   2.274  16.234 -0.1593  1.5055  0.4889
 7199TIP3   OH243011   1.869   6.216  10.378 -0.3221  0.6770 -0.7451
 7199TIP3    H143012   1.878   6.126  10.345  0.1504 -0.2433  1.7126
 7199TIP3    H243013   1.778   6.239  10.359 -1.0668 -1.1234  0.3940
 7200TIP3   OH243014   6.038   1.180   1.764 -0.5763 -0.1949  0.5366
 7200TIP3    H143015   6.131   1.163   1.780 -0.4213 -0.9657 -1.0378
 7200TIP3    H243016   6.007   1.221   1.845  2.0483  3.9634 -0.2747
 7201TIP3   OH243017   5.324   0.413   3.299 -0.2692  0.7903  0.0379
 7201TIP3    H143018   5.419   0.417   3.306 -0.3219  1.7835  0.3903
 7201TIP3    H243019   5.306   0.330   3.255  0.6044 -0.8900  2.6413
 7202TIP3   OH243020   2.926   6.086  11.897 -0.3892  0.1155  0.4071
 7202TIP3    H143021   3.007   6.090  11.846  0.5983 -2.1799  1.6504
 7202TIP3    H243022   2.887   6.173  11.887  1.6400  0.9253 -1.1499
 7203TIP3   OH243023   1.900   6.174  11.680 -0.5160 -0.1240  0.4268
 7203TIP3    H143024   1.826   6.224  11.645 -1.1900 -1.9178 -0.8573
 7203TIP3    H243025   1.937   6.130  11.604  0.0891 -1.5250  1.4996
 7204TIP3   OH243026   2.054   6.759   0.837 -0.5835  0.0985 -0.5351
 7204TIP3    H143027   2.146   6.736   0.847 -0.4958  0.8577  0.5697
 7204TIP3    H243028   2.032   6.732   0.748  1.2617  1.7869 -1.5789
 7205TIP3   OH243029   5.602   5.351   6.011  0.2616 -0.0456 -0.1375
 7205TIP3    H143030   5.618   5.321   6.101 -2.8508 -0.9596  0.2440
 7205TIP3    H243031   5.537   5.420   6.020 -1.4224 -1.3224 -1.7197
 7206TIP3   OH243032   3.510   1.726  12.594  0.3649  0.0595 -0.1647
 7206TIP3    H143033   3.488   1.682  12.676  0.1218  0.9811  0.2797
 7206TIP3    H243034   3.432   1.715  12.539 -0.9491  2.4018  1.0199
 7207TIP3   OH243035   5.771   4.276  13.359  0.0456 -0.3021  0.2031
 7207TIP3    H143036   5.743   4.317  13.277 -0.7129  1.1981  1.1521
 7207TIP3    H243037   5.695   4.286  13.417  1.4156  0.9817  1.8695
 7208TIP3   OH243038   1.847   6.127   6.087 -0.2483 -0.7354  0.0773
 7208TIP3    H143039   1.800   6.196   6.135  0.3064 -0.8642  0.8266
 7208TIP3    H243040   1.835   6.150   5.995 -0.7149 -0.0649  0.2909
 7209TIP3   OH243041   0.532   4.263  12.334  0.0898  0.2647  1.0870
 7209TIP3    H143042   0.466   4.208  12.291 -1.7522  0.8388  3.0142
 7209TIP3    H243043   0.492   4.350  12.336  2.6772  1.7018 -1.3565
 7210TIP3   OH243044   2.218   4.318   0.265 -0.3212  0.4461 -0.0398
 7210TIP3    H143045   2.162   4.249   0.229 -1.8456  1.1526  0.8608
 7210TIP3    H243046   2.286   4.272   0.313 -0.9689 -0.4525  0.0422
 7211TIP3   OH243047   3.370   3.945  14.298  0.1826 -0.5868  0.0200
 7211TIP3    H143048   3.361   3.921  14.206 -0.2466 -1.3401  0.2465
 7211TIP3    H243049   3.411   3.869  14.339 -1.6981 -1.2158  0.8513
 7212TIP3   OH243050   5.866   2.182   3.960 -0.4604 -0.1337  0.3121
 7212TIP3    H143051   5.917   2.106   3.991 -0.5117 -0.2448  0.1238
 7212TIP3    H243052   5.871   2.244   4.032 -0.8445 -0.5218  0.6804
 7213TIP3   OH243053   5.127   3.030  11.408  0.2349 -0.1056  0.4003
 7213TIP3    H143054   5.181   3.097  11.366 -0.3850 -1.1943 -2.3548
 7213TIP3    H243055   5.175   2.949  11.395 -1.1707 -0.8407 -0.5685
 7214TIP3   OH243056   5.983   5.520   5.284  0.2597  0.1086  0.7074
 7214TIP3    H143057   6.058   5.519   5.344 -0.1879 -0.0231  1.2722
 7214TIP3    H243058   5.908   5.497   5.339  0.0771 -1.7076 -0.2446
 7215TIP3   OH243059   4.722   4.090  10.737 -0.2703 -0.0881  0.4625
 7215TIP3    H143060   4.803   4.040  10.731 -0.6588 -0.6098 -0.8259
 7215TIP3    H243061   4.652   4.025  10.724 -0.8727  0.4475  0.9379
 7216TIP3   OH243062   1.888   1.969  11.750  0.4841 -0.0245  0.1096
 7216TIP3    H143063   1.829   1.910  11.795 -0.9362  0.3161 -1.2341
 7216TIP3    H243064   1.933   2.016  11.820 -1.1069 -0.0307  1.1814
 7217TIP3   OH243065   1.300   0.914  11.790 -0.0668 -0.0339 -0.2679
 7217TIP3    H143066   1.389   0.892  11.816 -0.4216  0.1515  1.1742
 7217TIP3    H243067   1.246   0.841  11.821 -0.8820  1.4747  2.2238
 7218TIP3   OH243068   5.109   2.429  16.751  0.0607  0.2351 -0.5226
 7218TIP3    H143069   5.050   2.431  16.676 -1.1131 -0.2766  0.3574
 7218TIP3    H243070   5.165   2.506  16.739  0.3198 -0.1881 -2.2277
 7219TIP3   OH243071   6.517   5.713  16.305  0.2887 -0.8843 -0.0009
 7219TIP3    H143072   6.437   5.737  16.259 -0.0976 -1.0727  0.5502
 7219TIP3    H243073   6.512   5.760  16.389  0.6900 -0.9969  0.0897
 7220TIP3   OH243074   2.837   0.143   6.217  0.0327 -0.3483 -0.6733
 7220TIP3    H143075   2.747   0.116   6.237 -0.6757  2.1563 -0.0903
 7220TIP3    H243076   2.874   0.167   6.302  1.1879 -1.1140 -0.9464
 7221TIP3   OH243077   1.084   1.216   6.314 -0.3000 -0.0670 -0.0428
 7221TIP3    H143078   1.140   1.288   6.342 -1.9126  1.9146 -1.6105
 7221TIP3    H243079   1.015   1.212   6.379 -0.7366  0.4643 -0.4693
 7222TIP3   OH243080   3.695   0.932   3.301  0.3307 -0.2182 -0.3669
 7222TIP3    H143081   3.696   1.027   3.290 -2.0567 -0.3183 -2.0421
 7222TIP3    H243082   3.661   0.919   3.389  0.3540  0.4754 -0.2456
 7223TIP3   OH243083   5.344   0.175   5.609 -0.0299 -0.7400 -0.9903
 7223TIP3    H143084   5.320   0.139   5.524 -2.8322  0.3155 -0.7360
 7223TIP3    H243085   5.359   0.268   5.593  0.1049 -0.6583 -0.4337
 7224TIP3   OH243086   4.184   6.593   2.188  0.1574  0.3294  0.2891
 7224TIP3    H143087   4.123   6.661   2.217  0.1029  0.0302  0.9034
 7224TIP3    H243088   4.144   6.557   2.109 -0.6882 -0.1337  0.9010
 7225TIP3   OH243089   0.509   5.645   1.441  0.0608  0.3455 -0.0847
 7225TIP3    H143090   0.588   5.658   1.388 -0.0665 -0.5017 -0.5036
 7225TIP3    H243091   0.498   5.727   1.489  1.8891  0.0351  0.9283
 7226TIP3   OH243092   6.203   0.409  13.362  0.3410  0.0283 -0.3154
 7226TIP3    H143093   6.181   0.353  13.287 -1.0431  0.2746 -0.1024
 7226TIP3    H243094   6.292   0.440  13.342 -0.2934  0.7295 -2.2678
 7227TIP3   OH243095   0.430   2.122   3.679 -0.0912  0.6845  0.4778
 7227TIP3    H143096   0.507   2.178   3.678 -0.3756  1.0881 -0.4962
 7227TIP3    H243097   0.459   2.041   3.720  1.3532  0.1290 -1.5157
 7228TIP3   OH243098   1.399   5.321  16.289 -0.2107  0.1423 -0.2231
 7228TIP3    H143099   1.451   5.399  16.306  0.5887 -0.4607  0.1776
 7228TIP3    H243100   1.367   5.332  16.199  0.0921  0.8087 -0.2534
 7229TIP3   OH243101   1.860   2.300  12.691  0.1589 -0.1193 -0.2913
 7229TIP3    H143102   1.911   2.249  12.627 -0.0939  1.9476 -2.2705
 7229TIP3    H243103   1.784   2.244  12.711  1.5446 -1.8932  0.2511
 7230TIP3   OH243104   5.751   1.337  10.632 -0.1485  0.4416 -0.0681
 7230TIP3    H143105   5.826   1.353  10.575 -0.4022 -0.2243 -0.6001
 7230TIP3    H243106   5.697   1.274  10.584 -0.0920 -0.5787  1.1620
 7231TIP3   OH243107   4.133   2.882  15.222  0.1878 -0.1979 -0.1020
 7231TIP3    H143108   4.136   2.865  15.316 -1.5410 -2.9819 -0.4429
 7231TIP3    H243109   4.057   2.939  15.211  0.2976  0.0018  0.1607
 7232TIP3   OH243110   2.530   5.187   5.785 -0.5532 -0.2060  0.2812
 7232TIP3    H143111   2.535   5.093   5.768 -3.4829 -0.2006 -1.3337
 7232TIP3    H243112   2.511   5.226   5.700  0.6727  1.9085  0.8980
 7233TIP3   OH243113   2.038   0.604   4.133 -0.3708 -0.0547 -0.0770
 7233TIP3    H143114   2.074   0.636   4.050  0.1226  1.4659  0.7020
 7233TIP3    H243115   2.088   0.649   4.201 -2.0869  0.2732  1.0473
 7234TIP3   OH243116   1.573   3.213   0.372  0.4148  0.0877 -0.2238
 7234TIP3    H143117   1.509   3.283   0.364  0.4585 -0.0372 -2.0027
 7234TIP3    H243118   1.547   3.148   0.306  2.1639 -0.0922 -0.7936
 7235TIP3   OH243119   2.112   2.269   6.005 -0.0477 -0.0313 -0.0634
 7235TIP3    H143120   2.145   2.283   5.917 -2.3808 -0.0805 -1.0222
 7235TIP3    H243121   2.179   2.216   6.048  1.0540 -0.1549 -1.8313
 7236TIP3   OH243122   2.244   4.061  13.169 -0.0159 -0.1769  0.4310
 7236TIP3    H143123   2.221   4.134  13.112 -2.3909 -0.5952  0.7629
 7236TIP3    H243124   2.245   4.099  13.257  2.5612  0.2216  0.3217
 7237TIP3   OH243125   1.448   2.399   2.880  0.0800 -0.8091  0.3729
 7237TIP3    H143126   1.541   2.411   2.900  1.6884 -1.9873 -4.7223
 7237TIP3    H243127   1.425   2.474   2.826 -1.6143 -1.1148  0.6157
 7238TIP3   OH243128   1.076   1.745  16.814  0.3578 -0.6670 -0.6676
 7238TIP3    H143129   1.132   1.679  16.854  1.1283  0.3824  0.0514
 7238TIP3    H243130   0.989   1.731  16.853  0.7825 -0.5390  0.3619
 7239TIP3   OH243131   5.958   4.870  15.045 -0.0392  0.2697  0.3178
 7239TIP3    H143132   6.048   4.871  15.013  0.1361 -0.2449  0.7680
 7239TIP3    H243133   5.924   4.784  15.019 -0.5232  0.6063 -0.1740
 7240TIP3   OH243134   4.563   1.453   6.059  1.0095 -0.1172 -0.1630
 7240TIP3    H143135   4.534   1.540   6.084  1.4642 -0.3989  1.4115
 7240TIP3    H243136   4.523   1.394   6.123  0.2270 -1.1527 -1.5459
 7241TIP3   OH243137   0.054   5.410   6.180  0.0024 -0.1172 -0.4990
 7241TIP3    H143138   0.064   5.335   6.121 -0.2696  0.1234 -0.8553
 7241TIP3    H243139   0.143   5.445   6.187 -0.1180  0.4739 -1.6109
 7242TIP3   OH243140   3.501   5.799   0.447  0.0929 -0.1528 -0.4115
 7242TIP3    H143141   3.479   5.889   0.423 -1.0118 -0.2507  0.2053
 7242TIP3    H243142   3.498   5.750   0.364 -0.5321  0.1301 -0.5564
 7243TIP3   OH243143   2.865   1.277   5.465 -0.5164  0.3032 -0.0159
 7243TIP3    H143144   2.951   1.316   5.484 -0.2602  0.1573 -0.8308
 7243TIP3    H243145   2.842   1.229   5.544  0.7747 -0.7645 -0.2620
 7244TIP3   OH243146   3.368   1.442   3.370  0.2955  0.5105 -0.3141
 7244TIP3    H143147   3.420   1.413   3.295 -0.7972 -1.6383 -0.3205
 7244TIP3    H243148   3.433   1.467   3.436  1.3074 -0.4234 -0.9338
 7245TIP3   OH243149   6.721   5.326   1.448  0.0147 -0.1453 -1.0085
 7245TIP3    H143150   6.729   5.382   1.371 -2.0514  1.7959  0.0591
 7245TIP3    H243151   6.775   5.370   1.515 -0.7429  0.0120 -0.4792
 7246TIP3   OH243152   5.949   4.781   0.049 -0.1701 -0.4974  0.6047
 7246TIP3    H143153   6.022   4.775   0.110 -0.0727  0.4399  0.6003
 7246TIP3    H243154   5.966   4.862  -0.000  0.3152 -1.7391 -1.3876
 7247TIP3   OH243155   5.946   1.509  17.126 -0.0718  0.4226  0.6932
 7247TIP3    H143156   5.982   1.458  17.053 -2.3533 -0.2085 -0.0756
 7247TIP3    H243157   5.949   1.448  17.200 -0.1978  0.1558  0.4798
 7248TIP3   OH243158   4.729   6.553   1.570  0.2417  0.2049  0.0668
 7248TIP3    H143159   4.708   6.511   1.653  2.7103 -0.1816  0.5651
 7248TIP3    H243160   4.824   6.560   1.569  0.3205  0.1086 -2.8000
 7249TIP3   OH243161   3.479   0.999   1.321  0.4534  0.3282 -0.7632
 7249TIP3    H143162   3.385   1.016   1.327  0.0907 -1.3739 -1.0936
 7249TIP3    H243163   3.495   0.933   1.389  1.2308 -0.0440 -1.3077
 7250TIP3   OH243164   1.242   4.205  12.308  0.3273 -0.0063 -0.1566
 7250TIP3    H143165   1.329   4.244  12.311 -0.2231  1.2249  0.8590
 7250TIP3    H243166   1.255   4.115  12.341  0.8473  0.9838  2.6748
 7251TIP3   OH243167   2.639   3.744  16.060 -0.0936  0.2808  0.6904
 7251TIP3    H143168   2.600   3.808  16.119  1.8414  0.6371  1.6626
 7251TIP3    H243169   2.729   3.774  16.047  0.7219 -1.8997  0.7377
 7252TIP3   OH243170   6.109   5.755  11.452  0.2603 -0.1192 -0.6714
 7252TIP3    H143171   6.139   5.665  11.435 -1.6938 -0.6603 -1.6103
 7252TIP3    H243172   6.155   5.808  11.386  0.0916 -0.7123 -1.2794
 7253TIP3   OH243173   0.538   2.294  16.983  0.0870  0.5887  0.0695
 7253TIP3    H143174   0.517   2.280  17.075  1.5239 -2.5460  0.0529
 7253TIP3    H243175   0.457   2.324  16.943 -2.0648 -2.7162  1.5202
 7254TIP3   OH243176   2.260   4.739  14.879  0.3506 -0.2626 -0.4069
 7254TIP3    H143177   2.165   4.740  14.862  0.4824 -0.4026 -1.1831
 7254TIP3    H243178   2.277   4.653  14.917  0.4373 -0.9488 -1.9442
 7255TIP3   OH243179   3.216   1.125  11.334 -0.0140  0.0021  0.1440
 7255TIP3    H143180   3.283   1.157  11.395 -0.2055  1.9672 -0.6206
 7255TIP3    H243181   3.260   1.123  11.249 -0.6091  0.2270 -0.1750
 7256TIP3   OH243182   2.904   1.112   5.244  0.3561  0.5446 -0.3428
 7256TIP3    H143183   2.879   1.023   5.272 -0.5291  0.6354 -0.8033
 7256TIP3    H243184   2.902   1.164   5.324 -1.3636  0.6277 -0.4042
 7257TIP3   OH243185   6.221   2.123   4.512 -0.2253 -0.1725 -0.4085
 7257TIP3    H143186   6.159   2.191   4.538 -0.1934  0.0229 -0.8382
 7257TIP3    H243187   6.228   2.132   4.417  0.1100 -0.4937 -0.4157
 7258TIP3   OH243188   1.026   5.832  12.874  0.2674 -0.1363  0.1822
 7258TIP3    H143189   0.964   5.903  12.888  0.2578  0.1449 -1.1199
 7258TIP3    H243190   1.038   5.793  12.960  0.6270  1.7255  1.0165
 7259TIP3   OH243191   4.334   6.085   4.694 -0.1842 -0.1326  0.4154
 7259TIP3    H143192   4.251   6.127   4.671 -0.9433 -1.1295  1.2454
 7259TIP3    H243193   4.396   6.157   4.702 -0.8048  0.5801 -0.8319
 7260TIP3   OH243194   1.054   0.860  12.549  0.1900 -0.4993  1.0051
 7260TIP3    H143195   0.971   0.832  12.587  0.0775 -0.2097  0.9813
 7260TIP3    H243196   1.045   0.955  12.541  0.2051 -0.5592  0.2361
 7261TIP3   OH243197   5.433   5.528  12.811  0.7515  0.8093 -0.2664
 7261TIP3    H143198   5.470   5.477  12.739 -1.6849 -1.1923 -0.2596
 7261TIP3    H243199   5.365   5.581  12.769 -0.3171  0.0298  0.4376
 7262TIP3   OH243200   4.181   6.735  10.776  0.0129 -0.1111 -0.6522
 7262TIP3    H143201   4.124   6.801  10.735  1.3570  2.3184  1.1159
 7262TIP3    H243202   4.269   6.756  10.745  0.5247 -0.8655  0.2378
 7263TIP3   OH243203   0.161   6.403  15.757  0.1421 -0.2226 -0.0495
 7263TIP3    H143204   0.231   6.341  15.735  0.3067 -0.0635  0.0167
 7263TIP3    H243205   0.093   6.388  15.692 -0.2007 -1.0844  0.4939
 7264TIP3   OH243206   6.606   2.457  15.999  0.1206 -0.4041  0.4582
 7264TIP3    H143207   6.640   2.371  15.976  1.0561 -0.4455  1.9392
 7264TIP3    H243208   6.679   2.517  15.984  0.1889 -0.1905  1.5589
 7265TIP3   OH243209   4.576   6.478  15.420 -0.5744 -0.3468  0.1516
 7265TIP3    H143210   4.485   6.499  15.398 -0.7747 -0.7461  0.5659
 7265TIP3    H243211   4.580   6.487  15.515 -0.2754 -0.6870  0.1727
 7266TIP3   OH243212   1.411   4.568  14.070 -0.1895  1.0436  0.3067
 7266TIP3    H143213   1.414   4.481  14.030  0.3087 -0.0821  2.6517
 7266TIP3    H243214   1.445   4.626  14.002  2.6319 -1.0592 -0.2661
 7267TIP3   OH243215   4.824   5.579  12.874 -0.2692  0.0133 -0.1689
 7267TIP3    H143216   4.861   5.663  12.900  0.7881 -0.7484  0.8437
 7267TIP3    H243217   4.856   5.565  12.785 -1.8158  1.4248 -1.0197
 7268TIP3   OH243218   0.666   4.249   5.480  0.0487  0.2812  0.2455
 7268TIP3    H143219   0.707   4.183   5.424  0.2532 -0.7495  1.5523
 7268TIP3    H243220   0.738   4.306   5.506  0.3570 -0.4618  1.0836
 7269TIP3   OH243221   4.447   2.522  10.625  0.3178  0.7097  0.2358
 7269TIP3    H143222   4.385   2.534  10.697  0.4894 -1.5656  0.8483
 7269TIP3    H243223   4.393   2.493  10.551  0.4940 -0.4215  0.5209
 7270TIP3   OH243224   2.270   2.990  10.551 -0.5174 -0.0153  0.2900
 7270TIP3    H143225   2.239   3.069  10.597  0.6124 -0.1991  1.4049
 7270TIP3    H243226   2.362   2.983  10.574  0.1022 -0.1579 -2.0050
 7271TIP3   OH243227   1.787   0.859   4.371 -0.2074 -0.5575 -0.2881
 7271TIP3    H143228   1.715   0.923   4.380 -0.3200 -0.6351 -0.6229
 7271TIP3    H243229   1.835   0.889   4.293 -0.4408 -1.0546 -0.6273
 7272TIP3   OH243230   1.686   1.182   0.504 -0.6434  0.6860  0.0106
 7272TIP3    H143231   1.590   1.187   0.509 -0.5893  2.2228  0.1135
 7272TIP3    H243232   1.716   1.210   0.590 -0.0929 -2.1378  0.8227
 7273TIP3   OH243233   3.596   4.042  12.406  0.0166 -0.2880 -0.2553
 7273TIP3    H143234   3.508   4.064  12.436  0.2034  2.3396 -1.4006
 7273TIP3    H243235   3.644   4.125  12.407  0.9264 -0.5224 -4.6416
 7274TIP3   OH243236   4.531   1.731   3.191  0.3296 -0.1768 -0.3883
 7274TIP3    H143237   4.522   1.794   3.119 -1.7352 -0.1861 -0.2179
 7274TIP3    H243238   4.515   1.782   3.270 -0.1989 -0.6657 -0.1645
 7275TIP3   OH243239   1.029   3.263  15.707  0.2504 -0.4591  0.3154
 7275TIP3    H143240   1.122   3.258  15.730  0.0796  0.5521  1.3348
 7275TIP3    H243241   1.028   3.301  15.619  0.7683  1.8724  1.2537
 7276TIP3   OH243242   4.841   0.058  14.387  0.0988  0.4752  0.7203
 7276TIP3    H143243   4.783  -0.006  14.427  0.9313 -0.6661  0.1791
 7276TIP3    H243244   4.869   0.017  14.304  0.4276  1.6593  0.2152
 7277TIP3   OH243245   0.268   3.512  12.819  0.5169  0.5259  0.3587
 7277TIP3    H143246   0.289   3.598  12.781  1.6549 -0.1395 -0.5902
 7277TIP3    H243247   0.208   3.472  12.755  2.2328 -0.4939 -0.6975
 7278TIP3   OH243248   3.692   0.209   1.369  0.1440 -0.0995  0.4224
 7278TIP3    H143249   3.753   0.156   1.317 -0.4819  0.0766 -0.5037
 7278TIP3    H243250   3.611   0.157   1.371 -0.7251  1.1123 -1.1271
 7279TIP3   OH243251   6.423   5.367  14.642 -0.1326 -0.1450  0.5670
 7279TIP3    H143252   6.471   5.338  14.564 -0.7839  1.0154 -0.2982
 7279TIP3    H243253   6.479   5.434  14.681 -0.4401  0.2613  0.3099
 7280TIP3   OH243254   5.823   2.058  12.199 -0.4990  0.2738 -0.1305
 7280TIP3    H143255   5.907   2.101  12.215 -0.6545  1.2434 -1.6821
 7280TIP3    H243256   5.835   2.013  12.115 -1.7685  1.1773 -0.8357
 7281TIP3   OH243257   4.866   5.167   5.836 -0.6014 -0.6453  0.5516
 7281TIP3    H143258   4.853   5.151   5.929  0.7496  0.2834  0.9318
 7281TIP3    H243259   4.959   5.150   5.821 -0.8709 -1.1080 -0.7069
 7282TIP3   OH243260   4.439   1.132  13.079 -0.2770 -0.2604 -0.3619
 7282TIP3    H143261   4.493   1.182  13.140 -0.2099 -0.1263 -0.5293
 7282TIP3    H243262   4.465   1.164  12.993  0.4405 -1.2385 -0.5233
 7283TIP3   OH243263   4.743   6.089  15.078  0.1568 -0.1335  0.0377
 7283TIP3    H143264   4.784   6.141  15.009 -0.7542  0.9539  0.2855
 7283TIP3    H243265   4.700   6.153  15.134  0.0176 -1.0746  1.0522
 7284TIP3   OH243266   0.159   0.885   2.727  0.3023 -0.0734  0.0836
 7284TIP3    H143267   0.071   0.852   2.709 -0.4887  2.2860 -0.6691
 7284TIP3    H243268   0.201   0.890   2.641  0.7382 -0.0183  0.2962
 7285TIP3   OH243269   0.617   5.845   2.510  0.5145  0.1913 -0.1954
 7285TIP3    H143270   0.540   5.813   2.463  0.1421  0.9450 -0.1184
 7285TIP3    H243271   0.609   5.808   2.598  0.2768  0.2125 -0.2089
 7286TIP3   OH243272   0.401   1.720  13.035 -0.5172  0.1973 -0.1195
 7286TIP3    H143273   0.426   1.810  13.013  1.9379 -0.7955 -1.9255
 7286TIP3    H243274   0.323   1.703  12.982  0.3642  0.5792 -1.6003
 7287TIP3   OH243275   1.607   6.090   5.349  0.7865 -0.2046  0.5220
 7287TIP3    H143276   1.553   6.155   5.395  0.8727 -0.1850  0.5949
 7287TIP3    H243277   1.611   6.122   5.259 -0.2239 -0.7627  0.2594
 7288TIP3   OH243278   3.876   2.982   5.805 -0.2341 -0.1500  0.4229
 7288TIP3    H143279   3.963   2.979   5.765 -0.3989 -0.6061  0.0916
 7288TIP3    H243280   3.888   3.036   5.883  0.3186 -0.1086  0.3188
 7289TIP3   OH243281   1.708   2.629   2.176 -0.0133 -0.4942  0.5172
 7289TIP3    H143282   1.722   2.614   2.269  0.5050  2.3134  0.9890
 7289TIP3    H243283   1.670   2.716   2.171  1.5654  0.1633 -1.9675
 7290TIP3   OH243284   5.633   1.735  15.441  0.5310  0.1713  0.1323
 7290TIP3    H143285   5.659   1.647  15.412 -0.0437 -0.5602  1.6760
 7290TIP3    H243286   5.663   1.793  15.372  4.7202 -0.7290  0.9371
 7291TIP3   OH243287   5.599   2.503  13.283  0.5260 -0.4120 -0.0388
 7291TIP3    H143288   5.685   2.542  13.298 -0.3746  1.8710 -0.3061
 7291TIP3    H243289   5.540   2.554  13.339 -1.1257  0.4316 -2.3899
 7292TIP3   OH243290   2.032   2.576  14.307 -0.0635 -0.3872 -0.1287
 7292TIP3    H143291   1.962   2.541  14.362 -0.1030  1.5167  1.1256
 7292TIP3    H243292   2.102   2.512  14.315 -1.6269 -2.4140 -1.5150
 7293TIP3   OH243293   5.528   1.120  12.760  0.7700  0.2895 -0.5213
 7293TIP3    H143294   5.578   1.197  12.731  0.7286  0.8215  0.7680
 7293TIP3    H243295   5.439   1.137  12.731  0.2945  1.7954  1.5697
 7294TIP3   OH243296   5.504   4.835  12.318 -0.2011 -0.0590  0.1564
 7294TIP3    H143297   5.430   4.851  12.259  0.7187 -1.0045 -1.3124
 7294TIP3    H243298   5.554   4.765  12.276  1.2474  0.1879  1.3752
 7295TIP3   OH243299   4.961   6.247   5.461 -0.1401  0.4380 -0.2102
 7295TIP3    H143300   5.006   6.166   5.485  0.5363  1.1879  1.1584
 7295TIP3    H243301   5.024   6.294   5.406  0.6240  1.2882  1.3412
 7296TIP3   OH243302   6.422   3.856  17.105 -0.4968 -0.3965  0.6390
 7296TIP3    H143303   6.400   3.841  17.013  0.4311 -2.5262  0.7151
 7296TIP3    H243304   6.376   3.937  17.127 -1.5993 -0.3952 -1.3958
 7297TIP3   OH243305   2.037   5.979   3.210 -0.1066 -0.4710 -0.7625
 7297TIP3    H143306   1.981   5.926   3.267  2.4580 -2.3753  0.1753
 7297TIP3    H243307   2.082   6.039   3.269  1.8810 -1.8208 -0.8166
 7298TIP3   OH243308   4.217   2.490   3.369  0.0400  0.0033 -0.1227
 7298TIP3    H143309   4.235   2.411   3.420 -1.6446 -0.5922 -0.3925
 7298TIP3    H243310   4.303   2.531   3.357  0.8743 -1.4887  0.4897
 7299TIP3   OH243311   1.027   4.845   0.123  0.4519 -0.2790  0.6532
 7299TIP3    H143312   1.089   4.838   0.051 -0.5434 -0.0774 -0.2504
 7299TIP3    H243313   0.960   4.780   0.103 -0.1055  0.1391  1.1236
 7300TIP3   OH243314   4.967   0.896   0.991  0.2416  0.1291 -0.4232
 7300TIP3    H143315   5.035   0.923   0.930 -1.0466 -1.2003 -2.5618
 7300TIP3    H243316   4.886   0.929   0.953 -0.6540 -1.1622  0.3042
 7301TIP3   OH243317   4.829   2.438  11.902  0.2689  0.7265  0.2023
 7301TIP3    H143318   4.748   2.473  11.939 -1.2029 -1.0255 -1.1394
 7301TIP3    H243319   4.811   2.430  11.808  2.2327  0.8358 -0.2280
 7302TIP3   OH243320   5.907   6.472  10.533  0.3465 -0.1615 -0.0098
 7302TIP3    H143321   5.997   6.446  10.515  0.2436  0.2015 -1.1158
 7302TIP3    H243322   5.903   6.563  10.505 -0.4228 -0.2543 -0.2159
 7303TIP3   OH243323   1.995   6.491  14.625 -0.4845 -0.3100 -0.1492
 7303TIP3    H143324   1.958   6.441  14.552 -0.7305  0.2368 -0.4093
 7303TIP3    H243325   1.985   6.583  14.598 -0.8218 -0.0927  0.6861
 7304TIP3   OH243326   5.047   6.167  15.608 -0.0543  0.0734  0.5657
 7304TIP3    H143327   4.993   6.123  15.674 -0.2198  0.9936  1.0490
 7304TIP3    H243328   4.991   6.172  15.531  0.3822 -1.6629  0.0662
 7305TIP3   OH243329   4.839   0.684  12.816  0.0240 -0.3869  0.0752
 7305TIP3    H143330   4.882   0.599  12.812  0.7119 -0.1802  1.9635
 7305TIP3    H243331   4.760   0.668  12.867  0.8207  0.2830  1.6225
 7306TIP3   OH243332   4.228   3.134   0.600  0.0473 -0.0100  0.3233
 7306TIP3    H143333   4.177   3.161   0.677 -0.9614 -0.8749 -0.0144
 7306TIP3    H243334   4.190   3.184   0.528 -1.7114 -2.0608 -0.2759
 7307TIP3   OH243335   1.124   1.821   3.922 -0.1431  0.1451 -0.9405
 7307TIP3    H143336   1.155   1.792   3.836  1.6007 -1.2281  0.0793
 7307TIP3    H243337   1.204   1.843   3.970 -0.8669 -1.5095  1.1431
 7308TIP3   OH243338   3.958   4.460   0.727  0.4567  0.0950 -0.6130
 7308TIP3    H143339   3.917   4.374   0.722 -0.5074  0.5258 -0.2650
 7308TIP3    H243340   4.004   4.469   0.643  0.0763 -0.5088 -0.8899
 7309TIP3   OH243341   2.084   3.229   4.139 -0.0014  0.4815 -0.0599
 7309TIP3    H143342   2.072   3.250   4.232 -1.0107  0.4712 -0.1768
 7309TIP3    H243343   1.995   3.220   4.105  0.3747 -0.7821 -0.7493
 7310TIP3   OH243344   3.237   5.392   1.009  0.5775 -0.7300  0.3736
 7310TIP3    H143345   3.314   5.371   0.957 -0.0011  1.5403 -1.5591
 7310TIP3    H243346   3.188   5.454   0.956 -0.9088  0.4871  2.9661
 7311TIP3   OH243347   2.046   6.664  16.119 -0.3467  0.3470  0.2636
 7311TIP3    H143348   1.981   6.602  16.152  1.1005 -0.5699  1.5318
 7311TIP3    H243349   2.031   6.744  16.169  0.8026 -0.5354  2.1549
 7312TIP3   OH243350   5.750   2.598   2.194 -0.0202  0.0048 -0.3880
 7312TIP3    H143351   5.825   2.606   2.134  0.1600 -0.0282 -0.1693
 7312TIP3    H243352   5.679   2.565   2.139  0.4897 -1.2625 -0.3173
 7313TIP3   OH243353   0.245   2.181  14.555 -0.4427 -0.1727 -0.4879
 7313TIP3    H143354   0.260   2.177  14.649 -0.8730 -0.8250 -0.4372
 7313TIP3    H243355   0.324   2.220  14.519  0.4050 -1.4022 -0.0116
 7314TIP3   OH243356   4.237   1.991   3.264 -0.2850 -0.7425 -0.7570
 7314TIP3    H143357   4.321   1.966   3.304  0.2684 -0.7022 -1.8573
 7314TIP3    H243358   4.254   2.076   3.224 -1.1186 -0.3094 -0.2019
 7315TIP3   OH243359   3.464   1.358  11.987  0.8235 -0.4493  0.1455
 7315TIP3    H143360   3.476   1.313  12.070  2.2254  0.2949  0.3675
 7315TIP3    H243361   3.468   1.288  11.921 -2.1656 -1.3232  0.7427
 7316TIP3   OH243362   5.711   2.350   5.682 -0.1217  0.0041  0.0234
 7316TIP3    H143363   5.736   2.269   5.637  0.3730  0.7061 -0.9948
 7316TIP3    H243364   5.725   2.419   5.617  0.0695  0.9827  1.0786
 7317TIP3   OH243365   1.103   2.198  10.593  0.1683 -0.1372  0.6734
 7317TIP3    H143366   1.150   2.148  10.660 -0.0407 -0.3827  0.6386
 7317TIP3    H243367   1.167   2.262  10.561  0.6777 -0.8714  0.1909
 7318TIP3   OH243368   0.597   0.156   3.832 -0.2521 -0.1569 -0.1637
 7318TIP3    H143369   0.577   0.249   3.827  0.3033 -0.0632 -0.6315
 7318TIP3    H243370   0.567   0.130   3.920 -2.1582  0.0285 -0.7183
 7319TIP3   OH243371   0.456   0.950  13.394 -0.7167 -0.2142 -0.3610
 7319TIP3    H143372   0.451   0.990  13.481  1.0188 -0.2596 -0.2246
 7319TIP3    H243373   0.546   0.921  13.385 -1.5134 -2.7474 -1.0821
 7320TIP3   OH243374   3.807   1.153  15.385 -0.2650 -0.3174  0.1824
 7320TIP3    H143375   3.828   1.155  15.292  1.1288  0.0860  0.4808
 7320TIP3    H243376   3.806   1.245  15.411 -1.1897 -0.3994  0.4563
 7321TIP3   OH243377   0.415   4.048   4.177 -0.3555 -0.1016 -0.5231
 7321TIP3    H143378   0.459   3.987   4.236 -1.5969  0.4160  0.9950
 7321TIP3    H243379   0.347   3.995   4.135 -0.5657 -0.0859 -0.2072
 7322TIP3   OH243380   5.454   1.540   4.582  0.2480 -0.7158  0.2142
 7322TIP3    H143381   5.523   1.550   4.648  2.8262  0.7851 -2.4514
 7322TIP3    H243382   5.373   1.532   4.632  2.0657 -0.0638  3.5169
 7323TIP3   OH243383   4.464   6.609   5.991  0.1343 -0.0350  0.4015
 7323TIP3    H143384   4.446   6.631   6.082  1.2790 -0.5963  0.7904
 7323TIP3    H243385   4.425   6.522   5.978 -0.2209  0.1395  0.2833
 7324TIP3   OH243386   1.323   1.235  16.873  0.4709 -0.1907 -0.1844
 7324TIP3    H143387   1.363   1.183  16.944  1.1358  0.1311 -0.3130
 7324TIP3    H243388   1.230   1.214  16.878  0.4872 -0.0908  0.8670
 7325TIP3   OH243389   2.954   1.019  11.353  0.0526  0.8545  0.2757
 7325TIP3    H143390   3.034   1.057  11.389  0.0234  1.1500  0.0284
 7325TIP3    H243391   2.923   1.083  11.289  0.8130 -0.2087 -1.2480
 7326TIP3   OH243392   2.485   3.109   1.325 -0.4654 -0.0357 -0.4651
 7326TIP3    H143393   2.514   3.154   1.245  0.0879  2.2400  0.9140
 7326TIP3    H243394   2.563   3.062   1.355  0.5189  2.1030  0.6066
 7327TIP3   OH243395   3.133   5.578   3.318  0.1356  0.4070  0.0069
 7327TIP3    H143396   3.199   5.523   3.360 -1.2948 -1.1230  0.3858
 7327TIP3    H243397   3.068   5.515   3.284 -0.4378  1.7632 -1.5652
 7328TIP3   OH243398   1.340   5.365  11.764 -0.2465 -0.3404 -0.6315
 7328TIP3    H143399   1.294   5.394  11.686  0.4351  2.0918 -0.2081
 7328TIP3    H243400   1.293   5.405  11.837  0.9481  0.0296 -0.0224
 7329TIP3   OH243401   1.547   2.255  13.572 -0.2960  0.2505  0.1506
 7329TIP3    H143402   1.627   2.308  13.567 -1.7136  2.4630 -0.7087
 7329TIP3    H243403   1.542   2.212  13.486  0.8029 -1.2869  0.8121
 7330TIP3   OH243404   4.424   0.591   1.313 -0.5655  0.0351 -0.0186
 7330TIP3    H143405   4.488   0.535   1.357 -2.4991 -3.0920 -0.9323
 7330TIP3    H243406   4.473   0.630   1.240  0.5013 -1.7999 -0.3393
 7331TIP3   OH243407   5.501   4.387  14.147  0.5084  0.1933 -0.1893
 7331TIP3    H143408   5.522   4.296  14.168  1.3560  0.3997 -0.0698
 7331TIP3    H243409   5.505   4.433  14.231 -1.0239  0.1581 -0.0737
 7332TIP3   OH243410   2.220   3.264  11.642 -0.4101 -0.0521  0.1684
 7332TIP3    H143411   2.217   3.181  11.596  1.9697 -0.2422  0.2293
 7332TIP3    H243412   2.301   3.261  11.693 -1.4684  1.3414  2.0775
 7333TIP3   OH243413   5.235   6.466  15.419  0.0115 -0.0019  0.1932
 7333TIP3    H143414   5.204   6.445  15.507 -0.1831 -0.1268  0.0958
 7333TIP3    H243415   5.254   6.560  15.422  0.0695 -0.0191  0.3858
 7334TIP3   OH243416   2.377   6.641  13.295 -0.3117  0.7806 -0.1405
 7334TIP3    H143417   2.333   6.607  13.373  1.7258 -0.3192  0.6134
 7334TIP3    H243418   2.401   6.731  13.318  0.9390  0.2285  0.8528
 7335TIP3   OH243419   4.949   3.334  13.901  0.3582  0.0325 -0.0953
 7335TIP3    H143420   4.966   3.335  13.995  1.4498  0.6292 -0.2813
 7335TIP3    H243421   4.991   3.413  13.868 -1.7178  0.9091 -0.8188
 7336TIP3   OH243422   2.144   6.325   5.447  0.2018 -0.7122  0.2919
 7336TIP3    H143423   2.121   6.410   5.408 -0.3275 -0.6615  0.7090
 7336TIP3    H243424   2.211   6.346   5.512 -1.7047 -0.2510  2.1851
 7337TIP3   OH243425   5.691   1.163  16.150  0.2928  0.4362 -0.0915
 7337TIP3    H143426   5.752   1.103  16.108  0.2585 -0.5918  1.2572
 7337TIP3    H243427   5.604   1.127  16.129  0.1533  1.3571 -1.2089
 7338TIP3   OH243428   0.662   2.452  12.473 -0.2383 -0.0883  0.2197
 7338TIP3    H143429   0.687   2.438  12.564 -1.4734  1.0157  0.7578
 7338TIP3    H243430   0.721   2.521  12.442  1.0447 -1.3541 -0.2393
 7339TIP3   OH243431   3.595   2.990   3.363  0.2924 -0.6551 -0.2023
 7339TIP3    H143432   3.615   3.057   3.297  1.2250 -0.2404  0.4724
 7339TIP3    H243433   3.654   2.918   3.343 -0.0298 -0.8813 -0.3397
 7340TIP3   OH243434   5.740   4.433  12.218 -0.4804 -0.2889 -0.1591
 7340TIP3    H143435   5.774   4.343  12.211 -1.1116 -0.5208 -0.3095
 7340TIP3    H243436   5.720   4.444  12.311 -0.6754 -0.4090 -0.1860
 7341TIP3   OH243437   0.339   0.207   2.287 -0.2526 -0.3136 -0.7237
 7341TIP3    H143438   0.345   0.115   2.263  1.3443 -0.0354 -1.5097
 7341TIP3    H243439   0.246   0.227   2.282 -0.4672 -1.5107 -1.9789
 7342TIP3   OH243440   0.430   0.239  15.557  0.4215  0.1243  0.1539
 7342TIP3    H143441   0.504   0.265  15.501  0.4358 -0.1240  0.0596
 7342TIP3    H243442   0.467   0.173  15.616 -0.0897 -1.1295 -0.8887
 7343TIP3   OH243443   0.823   2.745  12.089  0.0564  0.0851  0.1035
 7343TIP3    H143444   0.821   2.839  12.072  0.4501 -0.3535 -2.9778
 7343TIP3    H243445   0.776   2.707  12.015 -2.0886 -2.0877  2.3876
 7344TIP3   OH243446   5.779   3.025  13.295 -0.2813  0.1979  0.1877
 7344TIP3    H143447   5.806   3.077  13.370  0.4161 -1.4685  1.1445
 7344TIP3    H243448   5.776   3.088  13.222 -2.2217  2.1309  1.8003
 7345TIP3   OH243449   3.932   4.676   5.661 -0.0423 -0.1613 -0.9411
 7345TIP3    H143450   3.870   4.689   5.733 -0.4803 -0.3992 -1.2699
 7345TIP3    H243451   4.018   4.692   5.701 -0.3764  1.2920 -0.7488
 7346TIP3   OH243452   1.208   0.668  11.856 -0.8857 -0.9189  0.2885
 7346TIP3    H143453   1.136   0.668  11.792  0.2814 -0.3576 -1.0714
 7346TIP3    H243454   1.249   0.582  11.845 -0.8430 -0.9224  0.4746
 7347TIP3   OH243455   1.658   4.272  15.442  0.4826 -0.7382  0.0809
 7347TIP3    H143456   1.600   4.345  15.419  0.2575 -1.3445 -1.3691
 7347TIP3    H243457   1.687   4.237  15.358  0.5160 -2.3873  0.7382
 7348TIP3   OH243458   1.546   0.727  11.922 -0.0902  0.3225 -1.0718
 7348TIP3    H143459   1.608   0.713  11.994  0.3374  1.1902 -1.2603
 7348TIP3    H243460   1.467   0.679  11.949  0.6210 -0.7271 -0.7899
 7349TIP3   OH243461   3.510   5.941  14.224  0.2467  0.1300 -0.7976
 7349TIP3    H143462   3.576   5.894  14.173  2.1993  1.5926  0.2277
 7349TIP3    H243463   3.509   5.898  14.309 -3.0582 -2.3491 -1.8796
 7350TIP3   OH243464   2.683   1.848   3.348 -0.2051  0.8459  0.5126
 7350TIP3    H143465   2.743   1.917   3.377 -1.0550  1.8654 -0.0971
 7350TIP3    H243466   2.737   1.791   3.292 -0.0759  2.5095 -1.1619
 7351TIP3   OH243467   5.522   4.255  11.946 -0.4429  0.1455  0.3165
 7351TIP3    H143468   5.508   4.260  12.040  0.3148  1.5767  0.3879
 7351TIP3    H243469   5.480   4.334  11.911  3.4299  2.4095  0.1077
 7352TIP3   OH243470   4.370   5.023  11.836  0.5023 -0.2906 -0.4769
 7352TIP3    H143471   4.275   5.019  11.820  0.2442  0.4215  0.7425
 7352TIP3    H243472   4.388   4.947  11.892  0.6556 -0.4046 -0.6782
 7353TIP3   OH243473   1.775   4.584  11.416  0.7390  0.4628 -0.5686
 7353TIP3    H143474   1.681   4.592  11.433  0.7457 -0.2655 -0.1290
 7353TIP3    H243475   1.808   4.674  11.415  0.5396  0.6579  2.1886
 7354TIP3   OH243476   6.274   6.104   4.851  0.3892 -0.1469 -0.2536
 7354TIP3    H143477   6.279   6.196   4.877 -0.3010 -0.0294 -0.4957
 7354TIP3    H243478   6.185   6.077   4.876  1.1031 -1.2035  1.2473
 7355TIP3   OH243479   0.596   4.737  12.827  0.1169  0.5242 -0.6542
 7355TIP3    H143480   0.626   4.749  12.737 -3.5624 -1.3882 -2.3611
 7355TIP3    H243481   0.501   4.728  12.820 -0.2351 -0.9651  3.3081
 7356TIP3   OH243482   0.029   5.419  15.555 -0.3479  0.1366 -0.2763
 7356TIP3    H143483  -0.021   5.501  15.561  0.0733  0.3988 -0.3615
 7356TIP3    H243484   0.001   5.369  15.631 -0.2561  0.5541  0.0365
 7357TIP3   OH243485   1.522   2.453   0.201  0.4649  0.2362 -0.2491
 7357TIP3    H143486   1.525   2.504   0.120  0.3817  1.0432  0.2519
 7357TIP3    H243487   1.431   2.462   0.231 -0.8169 -3.5617 -2.2608
 7358TIP3   OH243488   1.196   2.773  16.248 -0.5609  0.5420  0.6557
 7358TIP3    H143489   1.213   2.684  16.217 -0.3346  0.6078  0.5852
 7358TIP3    H243490   1.101   2.779  16.252 -0.6068  0.5767 -0.1726
 7359TIP3   OH243491   5.542   6.604   4.297 -0.2105 -0.2736  0.4225
 7359TIP3    H143492   5.610   6.565   4.352 -1.0965  0.4924  2.1650
 7359TIP3    H243493   5.476   6.536   4.287  1.5091 -1.7084 -2.8808
 7360TIP3   OH243494   6.237   6.564   1.247 -0.1867  0.1729 -0.8908
 7360TIP3    H143495   6.158   6.519   1.277 -1.0338 -0.7239 -4.0287
 7360TIP3    H243496   6.258   6.627   1.316 -1.9507 -1.5197  1.3340
 7361TIP3   OH243497   3.527   0.150   3.596  0.2689  0.3892 -0.4441
 7361TIP3    H143498   3.571   0.219   3.645 -1.9030  1.0060  0.8073
 7361TIP3    H243499   3.492   0.195   3.518  0.5279  0.2453 -0.6450
 7362TIP3   OH243500   4.537   1.807   2.113 -0.4593 -0.2511  0.3354
 7362TIP3    H143501   4.553   1.813   2.019 -0.3852 -3.1539  0.0551
 7362TIP3    H243502   4.624   1.807   2.153 -0.5066  2.5602  0.6562
 7363TIP3   OH243503   4.525   3.127  11.397  0.2500 -0.2724  0.2012
 7363TIP3    H143504   4.574   3.051  11.363 -0.1613  0.5741 -2.5174
 7363TIP3    H243505   4.450   3.089  11.442  1.1127 -1.5032  0.6549
 7364TIP3   OH243506   3.574   3.447  12.955 -0.5550 -0.2606  0.0514
 7364TIP3    H143507   3.492   3.493  12.973 -1.0063 -0.9743 -0.1663
 7364TIP3    H243508   3.551   3.354  12.954  0.2532 -0.4746 -0.0280
 7365TIP3   OH243509   3.836   2.311   5.377 -0.1506 -0.4454  0.4377
 7365TIP3    H143510   3.825   2.293   5.471 -0.5311 -0.6297  0.3591
 7365TIP3    H243511   3.930   2.301   5.362 -0.1779 -1.0895  0.6670
 7366TIP3   OH243512   6.339   4.658   3.653  0.0122 -0.3410  0.0693
 7366TIP3    H143513   6.288   4.619   3.725  1.8153 -0.8128  1.1777
 7366TIP3    H243514   6.354   4.586   3.592 -0.4911 -0.2424 -0.1733
 7367TIP3   OH243515   4.108   6.516   5.157  0.2512 -0.2538 -0.1740
 7367TIP3    H143516   4.195   6.477   5.151 -0.2642 -1.3191 -1.3148
 7367TIP3    H243517   4.121   6.598   5.204  1.8471 -0.4381 -0.2435
 7368TIP3   OH243518   3.345   4.525   4.229 -0.0624  0.3673 -0.1942
 7368TIP3    H143519   3.324   4.507   4.137  0.0827 -1.6631  0.1291
 7368TIP3    H243520   3.377   4.441   4.263 -2.1511  0.4743  2.2930
 7369TIP3   OH243521   4.207   4.616  14.930  0.2067  0.4506  0.4869
 7369TIP3    H143522   4.151   4.546  14.897  0.2580 -0.0793  1.4710
 7369TIP3    H243523   4.296   4.583  14.919  0.3264  1.1501 -0.7608
 7370TIP3   OH243524   0.024   2.968  14.500 -0.0992  0.0790 -0.3041
 7370TIP3    H143525   0.104   2.925  14.528  1.5263  1.8075 -1.9947
 7370TIP3    H243526  -0.012   3.006  14.580  1.6015  0.5582  0.2694
 7371TIP3   OH243527   5.931   0.718   0.633 -0.5042 -0.4330  0.1930
 7371TIP3    H143528   6.012   0.708   0.582 -1.0067 -1.8221 -0.3843
 7371TIP3    H243529   5.890   0.797   0.598  0.9096  0.6766  0.9541
 7372TIP3   OH243530   6.515   1.917  16.232  0.1483 -0.3175  0.7477
 7372TIP3    H143531   6.588   1.863  16.261 -0.0431 -0.0343  1.7918
 7372TIP3    H243532   6.524   1.919  16.137  1.5639 -0.2008  0.8525
 7373TIP3   OH243533   3.033   2.254  17.202 -0.3227  0.1098 -0.2083
 7373TIP3    H143534   2.971   2.327  17.204 -1.8391 -1.0857  2.0903
 7373TIP3    H243535   2.984   2.181  17.240  2.3356 -1.0587  1.2557
 7374TIP3   OH243536   1.482   1.351  13.102  0.3645  0.0294 -0.7359
 7374TIP3    H143537   1.525   1.288  13.044  0.8229  0.0437 -0.4202
 7374TIP3    H243538   1.411   1.387  13.050 -0.5974 -1.5358 -0.5794
 7375TIP3   OH243539   3.574   1.675   3.748  0.2567 -0.7324  0.1960
 7375TIP3    H143540   3.493   1.720   3.723 -0.3475 -1.6113  0.5102
 7375TIP3    H243541   3.610   1.643   3.666 -0.3138 -1.2963  0.1549
 7376TIP3   OH243542   1.130   2.685  12.304 -0.6937 -0.3476  0.0946
 7376TIP3    H143543   1.153   2.662  12.215  2.2420 -0.2194  0.7362
 7376TIP3    H243544   1.113   2.779  12.302 -2.2335 -0.6071 -0.5608
 7377TIP3   OH243545   0.066   4.672  10.735  0.1926 -0.0460 -0.7214
 7377TIP3    H143546  -0.006   4.683  10.673 -0.7519 -1.3645  0.1030
 7377TIP3    H243547   0.108   4.590  10.709  0.6698  0.1126 -0.4676
 7378TIP3   OH243548   0.404   4.644  16.216 -0.1977 -0.2742 -0.1904
 7378TIP3    H143549   0.429   4.655  16.124 -0.4823 -1.1522 -0.3820
 7378TIP3    H243550   0.483   4.667  16.265  0.3560 -1.0229 -0.7084
 7379TIP3   OH243551   4.066   1.359  12.379 -0.1020 -0.1036  0.0043
 7379TIP3    H143552   4.151   1.316  12.387 -0.5124 -0.5669  3.3431
 7379TIP3    H243553   4.005   1.287  12.361 -0.4136 -0.6855  2.9021
 7380TIP3   OH243554   1.074   1.290  11.647 -0.3207 -0.0690  0.3265
 7380TIP3    H143555   1.106   1.380  11.652 -2.7936  0.8183  2.1866
 7380TIP3    H243556   1.109   1.247  11.725 -0.4678 -0.2440  0.2967
 7381TIP3   OH243557   6.167   5.478   4.123  0.6337  0.6778 -0.7958
 7381TIP3    H143558   6.117   5.510   4.198 -2.8153 -2.5036 -1.4210
 7381TIP3    H243559   6.195   5.557   4.077 -0.6242  2.6975  1.6578
 7382TIP3   OH243560   4.265   5.129  15.900 -0.6988  0.3128 -0.2843
 7382TIP3    H143561   4.273   5.167  15.813 -2.4854 -0.0754 -0.6620
 7382TIP3    H243562   4.343   5.074  15.910  0.1139  1.2773 -1.1424
 7383TIP3   OH243563   1.804   5.472   6.506  0.8086 -0.2884  0.4022
 7383TIP3    H143564   1.716   5.466   6.544  0.5339  1.4844  0.1374
 7383TIP3    H243565   1.829   5.381   6.489 -0.9737 -0.8358  0.4863
 7384TIP3   OH243566   0.218   2.921   4.693  0.7386 -0.6422  0.3386
 7384TIP3    H143567   0.170   2.845   4.659  1.6332 -0.7316 -0.8440
 7384TIP3    H243568   0.155   2.970   4.745 -0.0023 -1.9129  0.6701
 7385TIP3   OH243569   4.267   0.353   4.932  0.2862  0.2595 -0.4817
 7385TIP3    H143570   4.348   0.376   4.978  0.6817 -1.5157 -0.1865
 7385TIP3    H243571   4.229   0.283   4.986  0.0328 -0.9020 -2.0960
 7386TIP3   OH243572   1.839   1.593  16.987 -0.3668  0.3981  0.5120
 7386TIP3    H143573   1.856   1.662  17.050 -0.4019  0.5286  0.3783
 7386TIP3    H243574   1.745   1.593  16.974 -0.4137  0.0386  0.8353
 7387TIP3   OH243575   3.923   3.383   3.947 -0.2647  0.2647 -0.0412
 7387TIP3    H143576   4.009   3.380   3.988 -0.6725  2.2037  1.0609
 7387TIP3    H243577   3.917   3.471   3.910 -0.8591 -0.6370 -2.2523
 7388TIP3   OH243578   4.038   2.041  16.059  0.1685  0.2334  0.7469
 7388TIP3    H143579   3.977   1.968  16.057 -0.4126  0.7200 -0.4185
 7388TIP3    H243580   4.086   2.031  16.141  0.6212 -1.8679  0.2753
 7389TIP3   OH243581   0.060   5.461  15.099 -0.1263  0.2700  0.3754
 7389TIP3    H143582   0.044   5.422  15.013 -1.3208  0.1316  0.6380
 7389TIP3    H243583  -0.022   5.448  15.146  0.6972 -0.1105  1.7220
 7390TIP3   OH243584   5.489   6.372   3.438 -0.6217 -0.6347  0.2274
 7390TIP3    H143585   5.470   6.440   3.374  0.0903 -0.3466  0.3108
 7390TIP3    H243586   5.438   6.296   3.408 -1.0775 -0.2006 -0.1104
 7391TIP3   OH243587   3.796   3.647  15.290 -0.4042 -0.2898  0.1356
 7391TIP3    H143588   3.749   3.705  15.231 -0.0421 -1.1572 -1.0388
 7391TIP3    H243589   3.885   3.644  15.256  0.3120  0.5935  1.7834
 7392TIP3   OH243590   0.384   0.595   3.627 -0.1100 -1.1331 -0.8537
 7392TIP3    H143591   0.332   0.590   3.546 -1.8760 -0.0140  0.1448
 7392TIP3    H243592   0.467   0.634   3.600 -0.8786 -0.2599 -2.0644
 7393TIP3   OH243593   2.012   2.218  16.546  0.1836 -0.3575 -0.1611
 7393TIP3    H143594   1.935   2.167  16.520 -0.4591 -0.2432  1.4049
 7393TIP3    H243595   1.987   2.257  16.630  1.0159  1.7411 -0.8288
 7394TIP3   OH243596   2.131   0.971   4.431  0.2572 -0.3408  0.4398
 7394TIP3    H143597   2.213   1.016   4.453  0.9252 -1.5623  0.5065
 7394TIP3    H243598   2.154   0.913   4.358 -0.2553 -1.5327  1.1912
 7395TIP3   OH243599   4.463   5.045   5.662  0.1302 -0.1232 -0.1668
 7395TIP3    H143600   4.543   5.001   5.691  0.3238  0.7834  0.7271
 7395TIP3    H243601   4.494   5.116   5.606  0.0056  0.4930  0.5200
 7396TIP3   OH243602   5.780   5.301  14.191 -0.2722  0.2310 -0.1428
 7396TIP3    H143603   5.725   5.324  14.116  1.7538  3.5830 -0.7614
 7396TIP3    H243604   5.818   5.216  14.168 -2.1961 -0.3503 -1.3689
 7397TIP3   OH243605   6.136   0.792   1.665  0.0220 -0.0654 -0.1079
 7397TIP3    H143606   6.068   0.777   1.731  1.5417 -2.7836  0.9894
 7397TIP3    H243607   6.194   0.857   1.706  0.1088 -0.5762  0.6102
 7398TIP3   OH243608   1.345   3.942  11.460  0.2743 -0.1265 -0.0206
 7398TIP3    H143609   1.260   3.951  11.418 -1.2559  1.0589  3.0398
 7398TIP3    H243610   1.396   4.018  11.430 -0.3396  0.0562 -0.6056
 7399TIP3   OH243611   6.141   1.935  17.133 -0.0593 -0.0284  0.3900
 7399TIP3    H143612   6.115   1.926  17.041  1.0118  0.3156  0.0402
 7399TIP3    H243613   6.152   1.845  17.164 -1.0472 -0.1616  0.3706
 7400TIP3   OH243614   3.316   5.583   1.425 -0.2072 -0.2641  0.3823
 7400TIP3    H143615   3.246   5.635   1.467  0.0382 -0.9789  1.7455
 7400TIP3    H243616   3.270   5.507   1.389 -0.3276 -0.0035 -0.0142
 7401TIP3   OH243617   5.610   1.629   1.794 -0.2301  0.1139 -0.1594
 7401TIP3    H143618   5.532   1.596   1.839  1.5469 -0.5341  2.7132
 7401TIP3    H243619   5.655   1.550   1.765 -0.3850  0.4727 -1.4342
 7402TIP3   OH243620   4.797   6.510   5.435  0.5784  0.2687 -0.2797
 7402TIP3    H143621   4.794   6.453   5.512  3.6151 -1.2316 -1.1119
 7402TIP3    H243622   4.759   6.457   5.364 -0.7363  1.0531 -0.2049
 7403TIP3   OH243623   6.758   2.567  15.629  0.1203  0.0584  0.3867
 7403TIP3    H143624   6.724   2.555  15.540  2.5021 -0.5609 -0.5297
 7403TIP3    H243625   6.723   2.494  15.679 -0.8520  0.1382 -0.1477
 7404TIP3   OH243626   0.424   2.379  11.899 -0.3041 -0.2116  0.2196
 7404TIP3    H143627   0.503   2.366  11.848 -1.3410  0.2305 -1.5729
 7404TIP3    H243628   0.352   2.368  11.837 -1.6344  0.3859  1.5733
 7405TIP3   OH243629   4.460   1.679  13.248 -0.2923 -0.1735 -0.5032
 7405TIP3    H143630   4.391   1.741  13.271  0.8185  0.7707  0.3959
 7405TIP3    H243631   4.414   1.605  13.208 -1.8935  0.0948  0.7505
 7406TIP3   OH243632   3.728   4.060  15.217  0.2974  0.6178 -0.0492
 7406TIP3    H143633   3.685   4.144  15.202 -0.3342  0.3203  0.0844
 7406TIP3    H243634   3.666   3.995  15.184  0.0474  0.1108  1.3611
 7407TIP3   OH243635   0.285   2.405  14.933  0.0216 -0.4631 -0.0873
 7407TIP3    H143636   0.304   2.455  15.013 -0.5269 -0.9953  0.3843
 7407TIP3    H243637   0.230   2.464  14.881 -0.9887 -0.7267  0.6621
 7408TIP3   OH243638   2.078   3.407   2.201 -0.2401  0.3485  0.1510
 7408TIP3    H143639   2.116   3.336   2.148 -0.1268  0.5208  0.0021
 7408TIP3    H243640   1.985   3.383   2.208 -0.0007 -0.3604  0.9816
 7409TIP3   OH243641   3.673   2.808   3.140  0.2365  0.1249  0.3488
 7409TIP3    H143642   3.685   2.795   3.046  1.6659 -0.6951  0.6252
 7409TIP3    H243643   3.683   2.720   3.177 -1.6987  0.1874  1.1681
 7410TIP3   OH243644   2.674   1.442  11.808  0.0188  0.0984  0.3362
 7410TIP3    H143645   2.675   1.423  11.714 -0.9912  0.4637  0.2425
 7410TIP3    H243646   2.678   1.357  11.850 -0.0033 -0.0921 -0.0428
 7411TIP3   OH243647   3.888   5.052  17.069  0.8208 -0.1470  0.3711
 7411TIP3    H143648   3.938   5.129  17.043 -0.7125  1.3024  1.4420
 7411TIP3    H243649   3.945   4.978  17.050  2.7551  1.3081  0.2143
 7412TIP3   OH243650   1.474   3.779   3.022 -0.0929  0.3185  0.4681
 7412TIP3    H143651   1.393   3.750   3.065 -1.5972 -0.2140 -2.4613
 7412TIP3    H243652   1.524   3.821   3.092 -2.4395 -0.2244  2.6418
 7413TIP3   OH243653   5.252   0.563   5.855 -0.4259  0.7535 -0.3567
 7413TIP3    H143654   5.304   0.642   5.840  1.0597  0.1221  1.2379
 7413TIP3    H243655   5.299   0.515   5.922 -2.4604 -0.4506  0.3003
 7414TIP3   OH243656   5.528   5.094   4.152  0.1109 -0.0447  0.0170
 7414TIP3    H143657   5.483   5.146   4.086 -0.2607 -1.7376 -1.1171
 7414TIP3    H243658   5.522   5.147   4.232  1.9333  2.7793 -1.5443
 7415TIP3   OH243659   2.510   2.100   3.868  0.4433 -0.1013  0.5643
 7415TIP3    H143660   2.441   2.115   3.803  1.2288  0.1183 -0.2446
 7415TIP3    H243661   2.479   2.144   3.947 -1.3297 -1.8363  0.9140
 7416TIP3   OH243662   3.981   2.517   3.196 -0.6929  0.5275  0.4740
 7416TIP3    H143663   4.013   2.548   3.111 -2.4840  2.3696  0.3732
 7416TIP3    H243664   4.060   2.503   3.248  0.4307 -0.1916 -1.3251
 7417TIP3   OH243665   6.363   5.553   3.546 -0.1827  0.2036  0.8841
 7417TIP3    H143666   6.308   5.600   3.609 -0.1782  0.4276  0.7204
 7417TIP3    H243667   6.312   5.475   3.524 -0.7703  0.7741  0.1728
 7418TIP3   OH243668   2.769   5.642  12.530 -0.5011  0.2959  0.1705
 7418TIP3    H143669   2.856   5.611  12.558  0.2395  0.4443 -1.8206
 7418TIP3    H243670   2.753   5.719  12.584  1.0797  0.8709 -0.1316
 7419TIP3   OH243671   0.508   5.919   4.983  0.6143  0.1427 -0.1394
 7419TIP3    H143672   0.481   5.889   4.896  0.0989  0.6811 -0.1696
 7419TIP3    H243673   0.467   5.857   5.043  2.9905 -1.7645 -0.3365
 7420TIP3   OH243674   4.100   6.531  12.941  0.3019 -0.0099 -0.1062
 7420TIP3    H143675   4.097   6.571  13.028 -1.0492 -1.9696  0.8220
 7420TIP3    H243676   4.021   6.563  12.897  0.7247  0.5851 -0.4442
 7421TIP3   OH243677   5.339   3.856  15.183 -0.0317  0.0793 -0.1271
 7421TIP3    H143678   5.284   3.914  15.129 -0.3702  0.2590  0.3992
 7421TIP3    H243679   5.340   3.898  15.269  0.8239 -0.0006 -0.0959
 7422TIP3   OH243680   5.323   3.580   5.468  0.1775 -0.3600  0.1505
 7422TIP3    H143681   5.359   3.581   5.556  0.3015  0.0942  0.0983
 7422TIP3    H243682   5.400   3.577   5.411  0.1693  0.9981  0.0309
 7423TIP3   OH243683   5.579   3.456  12.137  0.3635 -0.1931 -1.2493
 7423TIP3    H143684   5.669   3.456  12.106  0.4014 -0.0101 -1.1372
 7423TIP3    H243685   5.535   3.522  12.083  0.6164  0.7176 -0.3636
 7424TIP3   OH243686   6.493   5.359  15.557 -0.3006 -0.1552  0.5629
 7424TIP3    H143687   6.522   5.449  15.541 -0.8626  0.0296  0.5837
 7424TIP3    H243688   6.419   5.367  15.617  1.3402 -0.8069  2.7910
 7425TIP3   OH243689   2.385   3.673  11.680  0.0912  0.2021 -0.2704
 7425TIP3    H143690   2.471   3.708  11.702 -0.6560  1.5811  0.6134
 7425TIP3    H243691   2.341   3.663  11.764  0.0738 -2.5170 -0.5092
 7426TIP3   OH243692   2.902   1.819   0.551  0.3701 -0.1028 -0.3433
 7426TIP3    H143693   2.906   1.915   0.549  0.3942 -0.0985 -0.1301
 7426TIP3    H243694   2.981   1.791   0.505  0.2279 -0.0211 -0.6425
 7427TIP3   OH243695   5.283   4.127   3.178 -0.4578  0.5230  0.2430
 7427TIP3    H143696   5.359   4.158   3.227 -1.5454  0.8057  1.8162
 7427TIP3    H243697   5.286   4.032   3.185 -0.4821  0.5527  0.6668
 7428TIP3   OH243698   0.377   2.284  12.732 -0.2724 -0.7764  0.8283
 7428TIP3    H143699   0.418   2.341  12.798 -1.8119  1.3838  0.0403
 7428TIP3    H243700   0.420   2.308  12.650 -0.1757 -1.5657  0.6484
 7429TIP3   OH243701   0.517   4.539   3.104  0.1533 -0.1009 -0.0192
 7429TIP3    H143702   0.541   4.588   3.025 -1.2198  0.0200 -0.3784
 7429TIP3    H243703   0.492   4.453   3.072  1.1060 -0.5696  0.4590
 7430TIP3   OH243704   4.364   6.311   2.364  0.6594  0.1611  0.2084
 7430TIP3    H143705   4.411   6.228   2.364 -2.0794 -1.5229 -0.6051
 7430TIP3    H243706   4.347   6.330   2.272  0.4400  1.1217  0.4341
 7431TIP3   OH243707   1.277   6.370  17.188  0.1392 -0.3875 -0.2314
 7431TIP3    H143708   1.247   6.366  17.279 -0.2548  2.5226 -0.1273
 7431TIP3    H243709   1.208   6.417  17.142  0.7643 -0.9979 -1.8601
 7432TIP3   OH243710   6.247   1.065   2.982 -0.1380  0.2242  0.4799
 7432TIP3    H143711   6.242   1.098   2.893 -0.5111 -0.9760  0.0335
 7432TIP3    H243712   6.182   1.115   3.030 -0.1557  0.6592  0.0091
 7433TIP3   OH243713   5.990   4.896  13.586  0.3351  0.1501  0.1257
 7433TIP3    H143714   5.901   4.874  13.560  0.4833 -0.9116  0.4712
 7433TIP3    H243715   6.001   4.854  13.672  1.3414 -0.1894 -0.1536
 7434TIP3   OH243716   6.347   3.767   4.448  0.2136 -0.0992 -0.1363
 7434TIP3    H143717   6.397   3.845   4.426 -0.2929  0.2715  0.0325
 7434TIP3    H243718   6.356   3.711   4.371 -0.2890  0.5591 -0.6767
 7435TIP3   OH243719   5.456   4.551   5.799 -0.0317 -0.0860 -0.3302
 7435TIP3    H143720   5.475   4.478   5.859 -0.1075 -0.3343 -0.6069
 7435TIP3    H243721   5.542   4.586   5.777  0.1410 -1.2142 -1.5868
 7436TIP3   OH243722   5.931   1.272  12.088 -0.3024  0.0254 -0.0601
 7436TIP3    H143723   5.959   1.231  12.170 -0.9224 -0.5497 -0.1313
 7436TIP3    H243724   5.906   1.361  12.113 -1.6884 -0.5315  0.6027
 7437TIP3   OH243725   6.113   3.889  11.611 -0.1353  0.2883  0.2160
 7437TIP3    H143726   6.131   3.830  11.684  4.9035 -1.8563 -2.2863
 7437TIP3    H243727   6.191   3.945  11.606 -0.0137  0.0152 -3.6794
 7438TIP3   OH243728   6.467   2.654  12.303  0.3544  0.6912 -0.0491
 7438TIP3    H143729   6.521   2.733  12.309  0.6343  0.9007 -3.4596
 7438TIP3    H243730   6.384   2.684  12.267 -0.5221 -0.2334  1.1372
 7439TIP3   OH243731   5.931   6.222  12.177 -0.3752 -0.5237  0.0675
 7439TIP3    H143732   5.988   6.190  12.247 -0.2444 -0.6017 -0.0734
 7439TIP3    H243733   5.992   6.256  12.111 -0.4700 -1.1318 -0.3413
 7440TIP3   OH243734   5.894   6.421  11.214 -0.0897  0.3881 -0.2172
 7440TIP3    H143735   5.945   6.433  11.294 -0.6855 -1.7356  0.5509
 7440TIP3    H243736   5.876   6.327  11.211 -2.3674  0.7856 -1.4310
 7441TIP3   OH243737   0.176   6.542  14.659 -0.2789 -0.4113 -0.5994
 7441TIP3    H143738   0.214   6.454  14.659 -1.2651 -0.8873  1.3257
 7441TIP3    H243739   0.192   6.575  14.571  1.2177 -2.0282 -0.9877
 7442TIP3   OH243740   6.526   3.492   4.015  0.0200 -0.3554  0.0909
 7442TIP3    H143741   6.502   3.583   3.998  0.2263 -0.2466  0.3813
 7442TIP3    H243742   6.569   3.464   3.934  0.1942 -0.1108  0.0972
 7443TIP3   OH243743   1.941   2.066   5.278 -0.4294 -0.0780  0.2559
 7443TIP3    H143744   1.978   2.127   5.215 -0.3558  0.1857  0.5514
 7443TIP3    H243745   2.015   2.010   5.303 -0.7869 -1.1503 -1.0017
 7444TIP3   OH243746   2.509   1.169  16.732 -0.6312  0.0351  0.4471
 7444TIP3    H143747   2.456   1.188  16.655  0.7964  2.6059 -0.0074
 7444TIP3    H243748   2.599   1.167  16.700 -0.2054 -1.9382  1.5796
 7445TIP3   OH243749   5.106   2.588  12.794  0.1970 -0.2629  0.0781
 7445TIP3    H143750   5.132   2.510  12.844  2.0641  0.5722  0.4868
 7445TIP3    H243751   5.184   2.611  12.743 -0.5682  0.8987 -0.6080
 7446TIP3   OH243752   1.766   5.931   4.388  0.4125  0.8840  0.1406
 7446TIP3    H143753   1.733   6.020   4.374 -0.8642  0.2177 -1.3138
 7446TIP3    H243754   1.800   5.903   4.303  0.2963 -0.2132  0.4330
 7447TIP3   OH243755   1.693   4.728   1.186  0.5231  0.2052 -0.0966
 7447TIP3    H143756   1.678   4.635   1.174 -1.4226  0.5449 -0.6147
 7447TIP3    H243757   1.662   4.746   1.275 -0.5435  0.6064 -0.5355
 7448TIP3   OH243758   1.993   6.729   3.073 -0.6113 -0.3480 -0.3793
 7448TIP3    H143759   2.018   6.821   3.061  0.6752 -0.1704  2.7285
 7448TIP3    H243760   1.906   6.733   3.111 -0.3960 -0.3499  0.1318
 7449TIP3   OH243761   6.301   5.859  16.161 -0.2958  0.6315 -0.1078
 7449TIP3    H143762   6.379   5.910  16.138  1.1152 -1.2858  0.2035
 7449TIP3    H243763   6.244   5.867  16.085  0.7735  1.0004 -0.8983
 7450TIP3   OH243764   5.834   1.111  15.857  0.3625  0.4240  0.0884
 7450TIP3    H143765   5.864   1.024  15.832  1.0752  0.1806  1.6931
 7450TIP3    H243766   5.741   1.112  15.832  0.4003 -0.7048 -0.1461
 7451TIP3   OH243767   3.685   5.922  11.950 -0.1716  0.0627 -0.1022
 7451TIP3    H143768   3.759   5.963  11.995 -0.4393 -0.4882  0.8607
 7451TIP3    H243769   3.721   5.897  11.864  0.7828 -0.2607  0.3727
 7452TIP3   OH243770   3.765   0.350  14.141 -0.2089  0.5664 -0.4294
 7452TIP3    H143771   3.766   0.268  14.092 -2.4210  1.3279 -1.8934
 7452TIP3    H243772   3.821   0.409  14.091 -2.4267  1.3282 -2.2021
 7453TIP3   OH243773   5.678   1.760   1.579 -0.5009  0.0261  0.3641
 7453TIP3    H143774   5.639   1.720   1.657  2.1326  1.3643  2.5310
 7453TIP3    H243775   5.745   1.698   1.551  1.3003  1.2619  1.7067
 7454TIP3   OH243776   6.604   3.438  15.882 -0.6947  0.3933  0.5267
 7454TIP3    H143777   6.671   3.392  15.933 -0.4856 -0.5787 -0.5948
 7454TIP3    H243778   6.541   3.370  15.858 -1.8128  1.1973  1.0945
 7455TIP3   OH243779   2.686   0.793   3.455 -0.2345  0.2789  0.1673
 7455TIP3    H143780   2.676   0.797   3.360  1.9613  1.6255 -0.0729
 7455TIP3    H243781   2.651   0.876   3.487  1.0230  0.8024  0.2611
 7456TIP3   OH243782   1.427   6.157  11.697 -0.1417 -0.7023 -0.2072
 7456TIP3    H143783   1.405   6.240  11.739 -1.2204 -0.9241 -0.3010
 7456TIP3    H243784   1.393   6.090  11.757 -1.0433 -1.0368 -1.0623
 7457TIP3   OH243785   4.667   3.523  14.208  0.0781  0.7490  0.5061
 7457TIP3    H143786   4.577   3.537  14.239  0.1214  1.5214  0.2984
 7457TIP3    H243787   4.667   3.434  14.174 -0.9850  1.1797 -0.7208
 7458TIP3   OH243788   4.980   4.297   4.559 -0.4719 -0.4900 -0.2876
 7458TIP3    H143789   4.921   4.303   4.483 -0.3520 -0.0454 -0.3501
 7458TIP3    H243790   4.967   4.379   4.606 -0.4377 -0.7043  0.0954
 7459TIP3   OH243791   1.834   1.334   2.458 -0.2275  0.5608  0.0869
 7459TIP3    H143792   1.807   1.331   2.366  0.0518  1.4394 -0.0329
 7459TIP3    H243793   1.898   1.405   2.462 -0.1175  0.4259  0.9337
 7460TIP3   OH243794   6.565   3.272  16.306  0.0856 -0.4851 -0.2419
 7460TIP3    H143795   6.504   3.247  16.236 -1.2310  0.5034  0.4869
 7460TIP3    H243796   6.650   3.241  16.276 -0.3888  0.0496 -2.3708
 7461TIP3   OH243797   0.886   1.394   4.944  0.0277 -0.7521  0.8766
 7461TIP3    H143798   0.838   1.425   4.867  0.0644 -2.4585  0.1347
 7461TIP3    H243799   0.879   1.466   5.007  0.6310  1.0194 -0.9658
 7462TIP3   OH243800   3.818   6.716  15.012  0.1654  0.0531  0.5170
 7462TIP3    H143801   3.736   6.704  14.963  0.3512 -2.5230  0.7024
 7462TIP3    H243802   3.846   6.627  15.034  2.6997  0.8941  1.0199
 7463TIP3   OH243803   0.758   6.500  14.802 -0.0264  0.4595 -0.8213
 7463TIP3    H143804   0.811   6.460  14.733 -1.3281  1.5109 -2.5370
 7463TIP3    H243805   0.821   6.531  14.866  1.3402  0.4298 -2.0963
 7464TIP3   OH243806   6.258   5.583   4.409 -0.9254  0.7281  0.3909
 7464TIP3    H143807   6.169   5.578   4.374 -0.4475  0.3559 -0.8375
 7464TIP3    H243808   6.254   5.651   4.476 -1.9282  1.3824 -0.3123
 7465TIP3   OH243809   6.692   5.943   3.480 -0.3997  0.3860  0.4708
 7465TIP3    H143810   6.683   5.870   3.541  0.1745 -0.2771 -0.2300
 7465TIP3    H243811   6.781   5.937   3.448 -1.0570 -0.0099 -1.3767
 7466TIP3   OH243812   0.768   6.121   0.342 -0.1512  0.8356 -0.9097
 7466TIP3    H143813   0.849   6.116   0.394  0.6145 -0.1572 -2.1246
 7466TIP3    H243814   0.782   6.195   0.283 -0.3776  1.0298 -0.7187
 7467TIP3   OH243815   2.372   4.970  16.547  0.1694 -0.2498 -0.6774
 7467TIP3    H143816   2.458   4.997  16.516 -0.3020 -0.9141 -2.7366
 7467TIP3    H243817   2.362   4.880  16.515 -0.7672 -0.6642  0.6792
 7468TIP3   OH243818   5.682   5.302   5.552  0.3710  0.4526 -0.0752
 7468TIP3    H143819   5.735   5.245   5.497  0.1658  0.6008 -0.4257
 7468TIP3    H243820   5.663   5.250   5.630  0.9372  0.3570  0.0069
 7469TIP3   OH243821   5.951   1.981   4.640  0.2698  0.0917 -0.9627
 7469TIP3    H143822   5.922   2.062   4.598  0.7301  1.9318  1.9624
 7469TIP3    H243823   5.896   1.974   4.719  3.4756  0.3785  1.5013
 7470TIP3   OH243824   6.251   4.518  16.245  0.4903  0.5360 -0.9867
 7470TIP3    H143825   6.156   4.526  16.244  0.5766  1.7057 -2.4601
 7470TIP3    H243826   6.279   4.578  16.315  0.0206 -2.6984  2.2530
 7471TIP3   OH243827   0.683   3.114   2.866  0.0053  0.0315 -0.5959
 7471TIP3    H143828   0.770   3.082   2.844 -0.2700  0.0854 -1.8272
 7471TIP3    H243829   0.624   3.043   2.837 -0.3095 -0.5274  1.2878
 7472TIP3   OH243830   6.551   2.610   5.546 -0.7732  0.2838 -0.0839
 7472TIP3    H143831   6.513   2.672   5.485  0.3914  0.5009 -0.6054
 7472TIP3    H243832   6.555   2.527   5.497  0.6056  0.5707 -0.5065
 7473TIP3   OH243833   2.235   2.088   5.549 -0.1035 -0.3632  0.0578
 7473TIP3    H143834   2.233   2.169   5.600 -2.1149  1.1590 -2.2389
 7473TIP3    H243835   2.324   2.082   5.516  0.3291  0.3595  1.0512
 7474TIP3   OH243836   0.598   3.337   4.252  0.0671  0.4941 -0.4298
 7474TIP3    H143837   0.610   3.311   4.343 -0.0623  0.9444 -0.2847
 7474TIP3    H243838   0.548   3.265   4.213  0.9493 -0.1583 -0.3890
 7475TIP3   OH243839   4.131   5.720   0.593 -0.5060  0.8911  0.4889
 7475TIP3    H143840   4.132   5.705   0.688  1.0290  0.9095  0.4916
 7475TIP3    H243841   4.061   5.784   0.580  0.2719  2.0460  1.7977
 7476TIP3   OH243842   0.618   3.969  11.955  0.6765  0.2626  0.3520
 7476TIP3    H143843   0.525   3.977  11.935  0.8571  0.8218 -0.2663
 7476TIP3    H243844   0.635   4.040  12.017  0.5673 -0.2021  0.9211
 7477TIP3   OH243845   1.623   1.304   2.638 -0.0832 -0.3781  0.3055
 7477TIP3    H143846   1.656   1.326   2.725  0.5430  0.2455 -0.0782
 7477TIP3    H243847   1.696   1.322   2.579 -0.7112 -0.1473 -0.4211
 7478TIP3   OH243848   4.124   4.281  16.910  0.1098  0.4737 -0.5116
 7478TIP3    H143849   4.137   4.375  16.902 -2.8512  0.9744 -0.2924
 7478TIP3    H243850   4.143   4.261  17.002 -0.8264  1.1442 -0.1710
 7479TIP3   OH243851   3.435   2.209   5.586 -0.0291  0.2121 -0.3525
 7479TIP3    H143852   3.340   2.198   5.587  0.0771 -0.9307 -0.9019
 7479TIP3    H243853   3.459   2.197   5.494  0.8353 -1.5717  0.0573
 7480TIP3   OH243854   2.079   2.696   0.764  0.2523 -0.2937  0.1909
 7480TIP3    H143855   2.030   2.752   0.824  0.7839 -1.8230  2.1516
 7480TIP3    H243856   2.139   2.756   0.719  1.6539  0.6437  3.0682
 7481TIP3   OH243857   6.442   0.948   3.833 -0.0618  0.1667  0.3496
 7481TIP3    H143858   6.434   0.906   3.919 -2.6071 -1.1622 -0.4231
 7481TIP3    H243859   6.481   0.882   3.777 -2.2123 -0.5618 -0.3975
 7482TIP3   OH243860   0.360   3.109   2.223  0.0956 -0.4758 -0.4071
 7482TIP3    H143861   0.406   3.148   2.149  0.5161  2.5517  1.2943
 7482TIP3    H243862   0.267   3.122   2.202  0.0752 -2.1766 -1.5941
 7483TIP3   OH243863   1.431   1.549   2.904 -0.2425  0.8868 -0.3620
 7483TIP3    H143864   1.493   1.544   2.830 -0.8066  2.6570 -1.0062
 7483TIP3    H243865   1.371   1.476   2.890  0.2495  0.6136 -1.1103
 7484TIP3   OH243866   6.690   4.968   3.432 -0.3925  0.2070  0.2358
 7484TIP3    H143867   6.768   5.024   3.431  0.0973 -0.4374  0.7188
 7484TIP3    H243868   6.617   5.027   3.449  0.0317  0.7772  0.1013
 7485TIP3   OH243869   4.151   5.291   5.090  0.2617 -0.3716 -0.3420
 7485TIP3    H143870   4.063   5.274   5.125 -0.6041  0.8712 -1.7742
 7485TIP3    H243871   4.181   5.207   5.057 -0.4185 -0.7962  0.0863
 7486TIP3   OH243872   0.456   6.697  11.004 -0.4810  0.3846 -0.1768
 7486TIP3    H143873   0.389   6.731  10.944  0.9298  2.8317 -0.5269
 7486TIP3    H243874   0.508   6.637  10.951 -0.7000  0.6775 -0.7322
 7487TIP3   OH243875   1.151   6.335   1.846 -0.1001 -0.6872 -0.8674
 7487TIP3    H143876   1.209   6.410   1.861 -2.1156  0.5143  1.7227
 7487TIP3    H243877   1.184   6.295   1.765  1.9973  2.0718 -1.5323
 7488TIP3   OH243878   1.449   2.609  11.607 -0.7142 -0.2815 -0.4647
 7488TIP3    H143879   1.366   2.624  11.564 -1.3383 -0.9683  0.4491
 7488TIP3    H243880   1.478   2.524  11.574 -0.0792  0.2198 -1.2210
 7489TIP3   OH243881   3.579   2.872   0.564  0.4991  0.0272  0.0602
 7489TIP3    H143882   3.500   2.855   0.615  0.0520 -1.1389 -0.9763
 7489TIP3    H243883   3.586   2.967   0.561  0.4975  0.1420  2.1990
 7490TIP3   OH243884   1.485   5.159  10.997 -0.2114 -0.3024  0.2171
 7490TIP3    H143885   1.445   5.078  11.030  0.5218 -1.4281 -1.4732
 7490TIP3    H243886   1.562   5.129  10.949 -0.2239  1.3507 -0.9179
 7491TIP3   OH243887   3.390   0.196  12.541 -0.4573 -0.1014 -0.2760
 7491TIP3    H143888   3.370   0.244  12.460 -3.6788 -0.1283  0.3694
 7491TIP3    H243889   3.368   0.257  12.611  1.0425 -0.5480  0.6330
 7492TIP3   OH243890   5.863   4.622  13.065  0.6352  0.3448 -0.0195
 7492TIP3    H143891   5.812   4.662  12.995 -0.9099 -1.3119  0.0671
 7492TIP3    H243892   5.896   4.540  13.027 -0.5026 -0.7415  1.2385
 7493TIP3   OH243893   6.720   5.850  11.412 -0.1127  0.0633  0.3523
 7493TIP3    H143894   6.732   5.811  11.326 -0.7781 -0.0527  0.3055
 7493TIP3    H243895   6.799   5.825  11.461  1.0103  1.4372 -0.6793
 7494TIP3   OH243896   4.521   6.222   1.933 -0.1018  0.0367 -0.2127
 7494TIP3    H143897   4.585   6.179   1.990  1.1843 -0.8196 -2.1987
 7494TIP3    H243898   4.493   6.153   1.873  1.0897  1.5964 -2.7064
 7495TIP3   OH243899   1.773   4.474   4.256  0.2355 -0.4224 -0.4768
 7495TIP3    H143900   1.724   4.489   4.175  0.5647 -1.8111 -0.9613
 7495TIP3    H243901   1.843   4.414   4.231  1.5572  0.6917  0.4399
 7496TIP3   OH243902   6.013   6.181   1.426 -0.1987  0.3463 -0.5975
 7496TIP3    H143903   5.969   6.152   1.506 -1.1993 -1.4679 -1.7347
 7496TIP3    H243904   6.056   6.102   1.393  0.1834  1.0662 -1.8641
 7497TIP3   OH243905   6.414   5.764   2.797 -0.7384 -0.0477  0.3098
 7497TIP3    H143906   6.411   5.706   2.873 -2.6723 -2.0734 -1.1801
 7497TIP3    H243907   6.441   5.707   2.725  1.0079  1.8058 -0.5779
 7498TIP3   OH243908   0.267   5.548   2.312  0.9550 -0.1900 -0.1272
 7498TIP3    H143909   0.334   5.615   2.301  0.4683  0.3362  0.0558
 7498TIP3    H243910   0.305   5.469   2.273  1.3288  0.3165 -0.8043
 7499TIP3   OH243911   3.264   0.771  16.665 -0.1844  0.2032  0.0985
 7499TIP3    H143912   3.295   0.721  16.589 -0.2800  0.5955 -0.1992
 7499TIP3    H243913   3.307   0.729  16.740 -0.0553 -0.1566 -0.1743
 7500TIP3   OH243914   2.124   5.714   4.101  0.6609  0.0343 -0.2976
 7500TIP3    H143915   2.099   5.626   4.072 -1.3053  0.9441 -1.5213
 7500TIP3    H243916   2.121   5.708   4.197  2.2029 -1.6358 -0.2892
 7501TIP3   OH243917   4.992   5.894  14.484 -0.5680 -0.2272 -0.4859
 7501TIP3    H143918   5.013   5.934  14.568 -2.4192 -0.5851  0.1951
 7501TIP3    H243919   4.938   5.958  14.439 -2.2659 -1.2765 -0.0283
 7502TIP3   OH243920   1.656   5.284  14.009  0.6529 -0.2318 -0.1394
 7502TIP3    H143921   1.583   5.323  14.057  0.9180  1.5044 -1.0698
 7502TIP3    H243922   1.624   5.197  13.982 -0.5356 -0.0634  0.6657
 7503TIP3   OH243923   3.862   6.279  10.969  0.7703  0.7602 -0.1656
 7503TIP3    H143924   3.914   6.200  10.983  1.0950  1.1934  1.1647
 7503TIP3    H243925   3.926   6.347  10.948  0.4296  0.5182 -2.2653
 7504TIP3   OH243926   1.349   2.578  15.017 -0.3512 -0.0865 -0.0459
 7504TIP3    H143927   1.322   2.488  14.998  0.3189 -0.3732  0.3246
 7504TIP3    H243928   1.437   2.569  15.054  0.5729  0.8671 -1.8644
 7505TIP3   OH243929   5.596   6.649  12.522  0.1196  0.2840 -0.1496
 7505TIP3    H143930   5.524   6.703  12.553  0.8257  0.9150  0.4378
 7505TIP3    H243931   5.661   6.711  12.490  2.4004  0.1141  3.5991
 7506TIP3   OH243932   0.546   2.841   3.356  0.2985 -0.1127  0.3951
 7506TIP3    H143933   0.555   2.867   3.447 -1.5854  2.2782  0.0157
 7506TIP3    H243934   0.575   2.750   3.353  1.8965  0.2276  3.0407
 7507TIP3   OH243935   3.932   1.141   4.469 -0.5171 -0.1375  0.3669
 7507TIP3    H143936   3.842   1.133   4.498 -0.6210 -1.0791 -0.1798
 7507TIP3    H243937   3.933   1.221   4.416 -1.1690 -0.4487 -0.1241
 7508TIP3   OH243938   0.874   2.124   3.322  0.1241 -0.0354 -0.0011
 7508TIP3    H143939   0.949   2.164   3.277  0.8616  0.0847  1.2627
 7508TIP3    H243940   0.855   2.044   3.273  0.4171  0.4654 -0.9416
 7509TIP3   OH243941   3.706   2.046   2.809  0.4352  0.2215  0.3695
 7509TIP3    H143942   3.623   2.069   2.850 -0.6747 -2.6783  0.0023
 7509TIP3    H243943   3.699   2.078   2.719  0.0723  0.7106  0.5675
 7510TIP3   OH243944   1.385   3.420   0.372 -0.3334 -0.3067 -0.7030
 7510TIP3    H143945   1.333   3.434   0.452 -1.0899  6.1190 -1.7724
 7510TIP3    H243946   1.324   3.379   0.311 -1.3684 -0.7238  0.5729
 7511TIP3   OH243947   2.916   5.297   5.591  0.2030 -0.4511 -0.2077
 7511TIP3    H143948   2.931   5.349   5.512  0.3053 -0.4217 -0.1695
 7511TIP3    H243949   2.929   5.359   5.663  1.1355 -0.7267 -0.1395
 7512TIP3   OH243950   1.669   6.404   4.577 -0.0797 -0.6091  0.2692
 7512TIP3    H143951   1.706   6.479   4.623  0.3777  0.1755 -1.3106
 7512TIP3    H243952   1.589   6.384   4.625 -1.0555  1.9064 -0.1405
 7513TIP3   OH243953   5.840   3.319  10.818 -0.0646 -0.1040 -0.1980
 7513TIP3    H143954   5.838   3.223  10.812 -0.5062 -0.0769 -0.5704
 7513TIP3    H243955   5.869   3.337  10.907 -0.1076 -0.5894 -0.0837
 7514TIP3   OH243956   0.947   2.107  16.726 -0.6572  0.3428 -0.0498
 7514TIP3    H143957   1.013   2.076  16.789 -0.8232 -0.7175 -0.3786
 7514TIP3    H243958   0.864   2.101  16.773 -1.1396 -2.8768 -1.0898
 7515TIP3   OH243959   6.459   5.452  17.196 -0.1021 -0.9932  0.1024
 7515TIP3    H143960   6.545   5.448  17.154  0.1109  0.7217  0.2874
 7515TIP3    H243961   6.425   5.363  17.190  1.5885 -1.6578 -0.1645
 7516TIP3   OH243962   6.013   2.286   2.174 -0.2404  0.1351 -0.0059
 7516TIP3    H143963   6.014   2.372   2.216 -1.0575  0.9230 -1.5312
 7516TIP3    H243964   5.989   2.226   2.245  0.2585  1.1548  1.0744
 7517TIP3   OH243965   2.243   4.861   2.386  0.3035  0.0626 -0.5272
 7517TIP3    H143966   2.231   4.842   2.479  0.2246  0.8165 -0.3713
 7517TIP3    H243967   2.321   4.916   2.383 -1.0398  2.0615 -0.6204
 7518TIP3   OH243968   0.464   6.448   5.886  0.5801 -0.0895  0.2208
 7518TIP3    H143969   0.390   6.398   5.921  1.3053 -1.5829 -0.2506
 7518TIP3    H243970   0.533   6.439   5.952  1.0125 -0.4951 -0.2689
 7519TIP3   OH243971   6.298   1.560  16.877  0.1046 -0.3364  0.0800
 7519TIP3    H143972   6.286   1.560  16.782  0.1913 -1.7564  0.0514
 7519TIP3    H243973   6.330   1.648  16.897  2.9584 -0.8873 -1.5717
 7520TIP3   OH243974   2.914   5.920  17.065  0.7044  0.1634 -0.2098
 7520TIP3    H143975   2.919   6.011  17.094 -0.4943  0.0298  0.5097
 7520TIP3    H243976   2.826   5.913  17.026 -0.1113 -1.1875  1.6975
 7521TIP3   OH243977   2.189   3.466   1.387  0.4206  0.2347  0.3013
 7521TIP3    H143978   2.160   3.439   1.300  0.1491  0.6683  0.2538
 7521TIP3    H243979   2.243   3.394   1.418 -0.3173 -0.3761  0.1911
 7522TIP3   OH243980   0.387   4.652   4.221  0.0370 -0.1731  0.2242
 7522TIP3    H143981   0.425   4.565   4.231 -1.3524 -0.7916  0.3698
 7522TIP3    H243982   0.349   4.671   4.307 -0.1802  0.3176  0.0213
 7523TIP3   OH243983   4.439   1.924  17.106  0.3981 -0.5359 -0.3872
 7523TIP3    H143984   4.502   1.994  17.088 -0.5228  0.3432 -0.2920
 7523TIP3    H243985   4.485   1.866  17.167  1.5300 -0.5612 -1.2315
 7524TIP3   OH243986   5.759   0.379  13.950  0.1602  0.5100  0.0503
 7524TIP3    H143987   5.727   0.292  13.973  1.0953  0.4028  1.0265
 7524TIP3    H243988   5.836   0.362  13.895  0.6564  0.6985  0.6722
 7525TIP3   OH243989   6.166   3.512   6.318  0.2555  0.3055 -0.5355
 7525TIP3    H143990   6.132   3.594   6.355 -0.0633 -0.4483  0.9107
 7525TIP3    H243991   6.116   3.499   6.238 -1.6225  0.1880  0.5936
 7526TIP3   OH243992   5.500   0.110  13.801 -0.4698 -0.0212  0.1415
 7526TIP3    H143993   5.538   0.151  13.879 -0.0824 -0.4253  0.1629
 7526TIP3    H243994   5.542   0.025  13.795 -0.1629  0.1809 -0.7679
 7527TIP3   OH243995   4.732   0.607  11.242  0.2768  0.4051 -0.0315
 7527TIP3    H143996   4.714   0.596  11.335 -0.4757  0.3127 -0.1826
 7527TIP3    H243997   4.674   0.544  11.199  0.8806  0.1922 -0.5453
 7528TIP3   OH243998   6.480   2.783   1.451  0.0242 -0.6788 -0.2841
 7528TIP3    H143999   6.517   2.696   1.435  2.5324  0.4124 -0.8374
 7528TIP3    H244000   6.466   2.819   1.364  2.5258  0.8052 -0.1670
 7529TIP3   OH244001   6.564   2.145   2.839  0.1686  0.1625  0.0441
 7529TIP3    H144002   6.617   2.204   2.892  0.8600 -1.3312  1.0735
 7529TIP3    H244003   6.476   2.184   2.840  0.6476  1.2633  0.5047
 7530TIP3   OH244004   0.238   6.569  16.311 -0.8175 -0.5506  0.0113
 7530TIP3    H144005   0.146   6.584  16.334 -0.5050  1.8258 -0.0554
 7530TIP3    H244006   0.286   6.634  16.362  0.2228  2.9422 -4.7409
 7531TIP3   OH244007   6.737   4.340  15.116 -0.6187  0.3918  0.4649
 7531TIP3    H144008   6.780   4.329  15.201  0.3905 -1.7254 -0.2488
 7531TIP3    H244009   6.705   4.431  15.116 -0.3380  0.5486  2.9344
 7532TIP3   OH244010   0.435   3.161   5.493  0.1692  0.1366 -0.1555
 7532TIP3    H144011   0.346   3.179   5.464  0.7073  0.1465 -1.9544
 7532TIP3    H244012   0.435   3.067   5.513 -0.5766  0.4136  1.2654
 7533TIP3   OH244013   4.483   0.630  13.161 -0.1299  0.5383  0.2767
 7533TIP3    H144014   4.563   0.669  13.125  0.9055 -1.9690 -0.3783
 7533TIP3    H244015   4.487   0.538  13.134 -1.1560 -0.6549  3.6439
 7534TIP3   OH244016   2.775   5.422  14.324 -0.5174 -0.6493  0.0543
 7534TIP3    H144017   2.814   5.506  14.298 -0.2636 -0.4475  1.0459
 7534TIP3    H244018   2.690   5.446  14.360 -0.0775 -0.7164  1.1545
 7535TIP3   OH244019   4.578   6.453   1.777  0.0374  0.5345 -0.1204
 7535TIP3    H144020   4.560   6.363   1.807  1.7071 -0.2877 -1.4514
 7535TIP3    H244021   4.560   6.507   1.854 -0.0791 -1.0361  1.0216
 7536TIP3   OH244022   5.052   4.294   1.636 -0.2225 -0.3123 -0.3517
 7536TIP3    H144023   5.005   4.225   1.590 -1.9172 -0.3319  1.2703
 7536TIP3    H244024   5.035   4.373   1.585 -2.3383 -0.2663  0.3344
 7537TIP3   OH244025   5.816   2.168   5.001 -0.2667 -0.1858  0.0483
 7537TIP3    H144026   5.850   2.078   5.000  1.1210  0.3117 -0.2406
 7537TIP3    H244027   5.747   2.168   4.934 -2.9922 -1.9545  2.6105
 7538TIP3   OH244028   1.129   0.539   6.407  0.0743  0.5151 -0.3094
 7538TIP3    H144029   1.174   0.484   6.470 -0.4849 -0.8677 -1.0635
 7538TIP3    H244030   1.091   0.610   6.459  0.7006  0.1155  0.7115
 7539TIP3   OH244031   2.376   4.044  11.058  0.0689  0.6278  0.2070
 7539TIP3    H144032   2.371   4.068  10.966 -2.0376  2.3921  0.7013
 7539TIP3    H244033   2.367   3.949  11.058  3.7565  0.1101 -1.5404
 7540TIP3   OH244034   5.972   0.870   4.614 -0.0791 -0.4884  0.1469
 7540TIP3    H144035   6.012   0.904   4.694  0.8761 -0.3681 -0.3592
 7540TIP3    H244036   5.933   0.946   4.572  0.6183 -0.2927 -0.1675
 7541TIP3   OH244037   5.108   5.122   0.455  0.2467  0.2541 -0.3526
 7541TIP3    H144038   5.061   5.049   0.495  0.2091 -0.5899 -1.8653
 7541TIP3    H244039   5.144   5.171   0.529  2.5385 -2.7549  0.7379
 7542TIP3   OH244040   6.330   3.702  14.595  0.1615 -0.0489 -0.3301
 7542TIP3    H144041   6.235   3.694  14.586  0.1376 -0.4741  0.2261
 7542TIP3    H244042   6.342   3.741  14.682  0.5347 -1.4333  0.2760
 7543TIP3   OH244043   2.779   4.328  10.928 -0.1016 -0.2854  0.9320
 7543TIP3    H144044   2.707   4.389  10.910  1.4140  1.4242  0.3764
 7543TIP3    H244045   2.777   4.316  11.023  0.3515  1.7320  1.2521
 7544TIP3   OH244046   0.442   1.319   5.076 -0.7280  0.3922 -0.0960
 7544TIP3    H144047   0.411   1.405   5.047 -0.8958  0.6749  0.8830
 7544TIP3    H244048   0.474   1.333   5.165 -0.1294 -0.4284 -0.1663
 7545TIP3   OH244049   0.827   3.950  11.765 -0.2176  0.0092  0.3738
 7545TIP3    H144050   0.898   3.885  11.769  0.4774  0.7798  3.9392
 7545TIP3    H244051   0.762   3.918  11.829 -1.2199  1.3438  0.0621
 7546TIP3   OH244052   1.172   2.454   1.586 -0.0368  0.5216 -0.7299
 7546TIP3    H144053   1.174   2.537   1.537  1.4426 -0.0124 -1.6332
 7546TIP3    H244054   1.262   2.443   1.617  0.0170 -1.2227 -1.4507
 7547TIP3   OH244055   0.218   5.151  12.905  0.5009  0.1358 -0.0371
 7547TIP3    H144056   0.291   5.096  12.936  0.4491 -0.9867 -1.7922
 7547TIP3    H244057   0.144   5.091  12.899  0.1428  0.6538 -0.8994
 7548TIP3   OH244058   3.390   5.180   6.048 -0.1745  0.8811 -0.1193
 7548TIP3    H144059   3.300   5.194   6.019 -0.9096  0.1892  1.7026
 7548TIP3    H244060   3.400   5.084   6.049 -0.0040  0.8932  1.3044
 7549TIP3   OH244061   3.399   6.280  11.787 -0.2688 -0.3016  0.4050
 7549TIP3    H144062   3.421   6.193  11.819 -1.4298 -0.0697  1.9678
 7549TIP3    H244063   3.318   6.303  11.833 -0.0726  1.5317 -0.0677
 7550TIP3   OH244064   0.049   3.574  14.002 -0.4754  0.2074 -0.3366
 7550TIP3    H144065   0.044   3.529  13.918 -1.1272 -0.0535 -0.1686
 7550TIP3    H244066   0.009   3.659  13.986  0.6207  0.6825 -0.6174
 7551TIP3   OH244067   0.763   6.267   1.477 -0.5696 -0.1748  0.1750
 7551TIP3    H144068   0.855   6.244   1.468 -0.4513  0.1700  0.5115
 7551TIP3    H244069   0.761   6.337   1.541 -0.9665  0.4941 -0.5439
 7552TIP3   OH244070   2.676   2.109   5.710 -0.1595  0.1126 -0.2314
 7552TIP3    H144071   2.751   2.161   5.680  0.2037  0.4408  1.1874
 7552TIP3    H244072   2.658   2.050   5.637 -1.0810  2.6812 -2.2709
 7553TIP3   OH244073   3.532   1.090  11.898 -0.1673  0.1522  0.1243
 7553TIP3    H144074   3.515   1.005  11.938  1.5980  0.2586  1.1928
 7553TIP3    H244075   3.478   1.091  11.819  0.6189 -2.4028 -0.5278
 7554TIP3   OH244076   0.218   1.531  13.780  0.3179  0.2768  0.0065
 7554TIP3    H144077   0.226   1.476  13.701  1.8694 -2.4857  1.9004
 7554TIP3    H244078   0.128   1.517  13.809 -0.0100  0.6390 -0.8053
 7555TIP3   OH244079   3.449   2.380  15.524 -0.3449  0.2809 -0.0998
 7555TIP3    H144080   3.524   2.360  15.580  0.9085  0.0646 -1.7770
 7555TIP3    H244081   3.402   2.449  15.570 -0.1453 -0.7988  1.8474
 7556TIP3   OH244082   4.531   6.423   5.644  0.0959 -0.3826  0.0496
 7556TIP3    H144083   4.565   6.342   5.606  0.2188  0.3001 -1.3458
 7556TIP3    H244084   4.445   6.435   5.603  0.1427  0.2745  0.1264
 7557TIP3   OH244085   0.130   4.932   0.704 -0.3824 -0.0435  0.3074
 7557TIP3    H144086   0.222   4.907   0.708 -0.3897 -0.4286 -1.3783
 7557TIP3    H244087   0.088   4.879   0.772  0.5601 -0.1866  0.7947
 7558TIP3   OH244088   6.258   4.687   0.926  0.0123  0.2677  0.0433
 7558TIP3    H144089   6.171   4.722   0.905 -0.8927 -1.7516  0.1151
 7558TIP3    H244090   6.249   4.654   1.016  1.3545  1.3998  0.6309
 7559TIP3   OH244091   2.647   2.768   3.165 -0.0831 -0.3397  0.4399
 7559TIP3    H144092   2.630   2.691   3.110  0.7376 -1.0793  1.2042
 7559TIP3    H244093   2.610   2.841   3.115 -1.6391 -1.3257  0.0901
 7560TIP3   OH244094   0.113   1.011  16.164  0.0557 -0.3342 -1.1367
 7560TIP3    H144095   0.136   1.103  16.151  0.1336 -0.1655  0.0294
 7560TIP3    H244096   0.195   0.963  16.150  0.0347 -0.2176 -1.6586
 7561TIP3   OH244097   5.847   6.549  16.485 -0.8948  0.7407 -0.1370
 7561TIP3    H144098   5.803   6.625  16.524 -0.0710  1.2335 -0.1352
 7561TIP3    H244099   5.830   6.477  16.545 -0.7935  1.1743  0.4169
 7562TIP3   OH244100   2.717   5.811   2.521  0.0684  0.1051  0.3859
 7562TIP3    H144101   2.652   5.865   2.477 -1.7528 -1.1236  1.4533
 7562TIP3    H244102   2.755   5.868   2.587 -2.1808  0.0245  1.8329
 7563TIP3   OH244103   0.818   6.340   5.416 -0.3109 -0.2822 -0.0946
 7563TIP3    H144104   0.835   6.433   5.397 -0.5374 -0.3972 -0.9194
 7563TIP3    H244105   0.873   6.321   5.491 -0.0087  0.4424 -0.1183
 7564TIP3   OH244106   1.671   0.796   3.906 -0.1682  0.0870  0.1602
 7564TIP3    H144107   1.680   0.746   3.987 -1.6068 -1.5826 -0.6542
 7564TIP3    H244108   1.754   0.842   3.898  0.8884 -1.4655  1.4445
 7565TIP3   OH244109   1.928   1.330  16.716  0.3720 -0.8820  0.0431
 7565TIP3    H144110   1.854   1.335  16.655  1.6122 -1.8037 -1.6348
 7565TIP3    H244111   1.899   1.268  16.783 -0.8376 -0.2435  0.1432
 7566TIP3   OH244112   1.696   0.727   0.672  0.2454 -0.0826  0.2189
 7566TIP3    H144113   1.749   0.665   0.621  0.6220  0.5192 -0.1318
 7566TIP3    H244114   1.737   0.727   0.759  0.2878 -0.2732  0.1991
 7567TIP3   OH244115   3.078   3.314   1.818 -0.4643  0.0840 -0.3859
 7567TIP3    H144116   3.161   3.362   1.812 -0.5229  0.0433 -1.8154
 7567TIP3    H244117   3.057   3.315   1.911 -0.2581  2.4701 -0.3104
 7568TIP3   OH244118   1.510   2.115  13.342  0.0322 -0.3623  0.0170
 7568TIP3    H144119   1.444   2.054  13.312  1.4648 -2.0495  0.1532
 7568TIP3    H244120   1.587   2.098  13.287  0.8907  0.3982  0.9281
 7569TIP3   OH244121   2.373   5.555  14.905 -0.5659 -0.3960 -0.3160
 7569TIP3    H144122   2.416   5.544  14.820  0.5051 -1.1861  0.3191
 7569TIP3    H244123   2.369   5.650  14.918 -1.3059 -0.2327 -1.5103
 7570TIP3   OH244124   1.225   3.815  13.771 -0.2837  0.1304 -0.2681
 7570TIP3    H144125   1.265   3.748  13.715  2.7324  1.8872 -0.4271
 7570TIP3    H244126   1.258   3.795  13.859  0.8462  1.4804 -0.3605
 7571TIP3   OH244127   3.615   4.170   1.409 -0.6941 -1.1554  0.8724
 7571TIP3    H144128   3.641   4.085   1.443  2.3075 -1.0061 -0.7115
 7571TIP3    H244129   3.592   4.153   1.318  1.0877 -0.1630  0.1971
 7572TIP3   OH244130   2.738   3.891   5.369 -0.2027  0.9006  0.0988
 7572TIP3    H144131   2.670   3.882   5.435  1.7687  0.2700  2.1884
 7572TIP3    H244132   2.794   3.814   5.382  1.9110  2.2921 -0.2090
 7573TIP3   OH244133   3.951   1.175   1.945 -0.0224 -0.7925 -0.0925
 7573TIP3    H144134   3.876   1.147   1.892 -0.7716 -0.2751  0.6616
 7573TIP3    H244135   3.954   1.111   2.017 -0.2307 -0.3725  0.2988
 7574TIP3   OH244136   5.732   3.425  15.683  0.2741  0.0005  0.0268
 7574TIP3    H144137   5.750   3.459  15.596  0.7173  0.2078  0.1964
 7574TIP3    H244138   5.817   3.421  15.726 -0.1414  1.8665  1.1407
 7575TIP3   OH244139   2.716   3.625   2.209  0.1472  0.4666 -0.8549
 7575TIP3    H144140   2.660   3.548   2.209 -0.8657  1.1377  0.6892
 7575TIP3    H244141   2.714   3.657   2.119  0.8957 -1.4918 -1.6159
 7576TIP3   OH244142   0.405   0.983   2.779 -0.4612  0.2284 -0.3194
 7576TIP3    H144143   0.392   1.078   2.786  0.0603  0.2738  0.1339
 7576TIP3    H244144   0.317   0.946   2.784 -0.5913  0.6313  0.7022
 7577TIP3   OH244145   3.347   1.620  14.824  0.3169  0.4251  0.2132
 7577TIP3    H144146   3.423   1.567  14.804  0.5163  0.9736 -0.5009
 7577TIP3    H244147   3.321   1.659  14.741 -1.8212 -1.1292  0.0633
 7578TIP3   OH244148   0.207   4.924  15.326  0.1347  0.2341 -0.0238
 7578TIP3    H144149   0.111   4.926  15.331  0.0578 -2.1720  0.4878
 7578TIP3    H244150   0.225   4.903  15.234  0.1342 -0.3491  0.1080
 7579TIP3   OH244151   5.429   4.563   0.246  0.4556 -0.7412  0.2432
 7579TIP3    H144152   5.446   4.481   0.292  0.6004 -1.2060 -0.6086
 7579TIP3    H244153   5.335   4.576   0.253  0.3263 -1.3777 -0.2582
 7580TIP3   OH244154   5.959   1.523  10.922  0.1781 -0.3549 -0.6716
 7580TIP3    H144155   6.041   1.528  10.970 -0.7838 -0.8717  1.1036
 7580TIP3    H244156   5.977   1.460  10.851  0.2870 -3.7236  2.0735
 7581TIP3   OH244157   0.197   6.261  15.176 -0.3635  0.8241 -0.0532
 7581TIP3    H144158   0.139   6.236  15.248 -1.1371 -1.0464 -1.2628
 7581TIP3    H244159   0.257   6.187  15.167  0.2296  1.3851 -0.8323
 7582TIP3   OH244160   3.413   2.844   4.540 -0.1991 -0.2768  0.0091
 7582TIP3    H144161   3.496   2.888   4.559  0.0985 -1.4479  1.6523
 7582TIP3    H244162   3.386   2.806   4.624 -1.6306 -1.2037 -0.8225
 7583TIP3   OH244163   6.621   6.050   0.005 -0.5567  0.2953 -0.0524
 7583TIP3    H144164   6.588   6.023   0.091 -0.8391 -1.9753 -0.8120
 7583TIP3    H244165   6.697   6.104   0.025  2.2319 -3.7979  1.7150
 7584TIP3   OH244166   4.661   2.138   1.628  0.3218 -0.2349  0.4198
 7584TIP3    H144167   4.733   2.187   1.588 -0.0675 -1.7221 -2.4319
 7584TIP3    H244168   4.698   2.102   1.708  2.4872 -0.2106 -0.4894
 7585TIP3   OH244169   4.524   1.791  12.163  0.3324  0.9527  0.7313
 7585TIP3    H144170   4.448   1.754  12.207  1.8350 -3.0395  0.3816
 7585TIP3    H244171   4.598   1.773  12.222  1.4520  1.6403 -0.4027
 7586TIP3   OH244172   4.291   4.992   5.991  0.3211  0.9380 -1.0132
 7586TIP3    H144173   4.299   4.932   6.065  0.3498  3.1554  0.8881
 7586TIP3    H244174   4.375   5.039   5.989  0.3538  0.8768 -2.5338
 7587TIP3   OH244175   0.338   5.703   0.180 -0.6900  0.1241 -0.2416
 7587TIP3    H144176   0.348   5.773   0.116 -1.5145  0.7502  0.2970
 7587TIP3    H244177   0.270   5.646   0.143 -1.2893  0.5776  0.1324
 7588TIP3   OH244178   3.450   2.218   1.838 -0.5146  0.2975 -0.6908
 7588TIP3    H144179   3.409   2.230   1.924 -1.1977 -0.3127 -0.9258
 7588TIP3    H244180   3.400   2.275   1.779  0.4987  1.3877 -0.5406
 7589TIP3   OH244181   5.429   1.561   5.043 -0.1859  0.0186  0.1611
 7589TIP3    H144182   5.474   1.556   5.127 -1.6587 -0.2193  0.9743
 7589TIP3    H244183   5.337   1.544   5.064 -0.4112 -1.3437 -1.6862
 7590TIP3   OH244184   5.557   6.492  15.380 -0.1788  0.2306 -0.4159
 7590TIP3    H144185   5.546   6.521  15.289 -0.5054  0.4041 -0.3189
 7590TIP3    H244186   5.483   6.434  15.396 -1.0562  1.5023  0.2740
 7591TIP3   OH244187   3.454   1.330  16.015 -0.3851  0.3637 -0.2073
 7591TIP3    H144188   3.434   1.251  15.964 -0.8518  0.0792  0.3978
 7591TIP3    H244189   3.466   1.298  16.105 -0.0262  0.9128 -0.0530
 7592TIP3   OH244190   2.047   3.336  15.958  0.0029 -0.0066  0.4353
 7592TIP3    H144191   2.027   3.333  16.052 -1.6676 -0.1514  0.1193
 7592TIP3    H244192   2.033   3.428  15.934 -0.4308 -0.1351  0.1775
 7593TIP3   OH244193   3.721   0.525   2.908  0.1196 -0.6695  0.4811
 7593TIP3    H144194   3.657   0.475   2.959  1.4730 -1.5084  1.4434
 7593TIP3    H244195   3.731   0.607   2.957  1.3680 -1.4476  1.6185
 7594TIP3   OH244196   3.987   5.127  10.720  0.8254  0.9276 -0.1348
 7594TIP3    H144197   4.037   5.058  10.763  3.0089  2.7248  0.4340
 7594TIP3    H244198   4.042   5.156  10.648 -0.5190  1.3765 -1.0263
 7595TIP3   OH244199   5.230   2.951  14.555 -0.3060 -0.3828  0.3215
 7595TIP3    H144200   5.171   3.000  14.612 -1.8576 -0.2306 -1.3467
 7595TIP3    H244201   5.198   2.861  14.558 -0.1294 -0.4580  0.0221
 7596TIP3   OH244202   5.931   5.228   0.932 -0.6583 -0.0929 -0.0404
 7596TIP3    H144203   5.903   5.209   1.022 -0.2647 -1.9566 -0.2781
 7596TIP3    H244204   5.907   5.150   0.883 -1.0056  0.9554 -1.6192
 7597TIP3   OH244205   3.328   3.581   0.281  0.7815 -0.4638  0.2531
 7597TIP3    H144206   3.282   3.537   0.353  1.0375 -0.9209  0.1405
 7597TIP3    H244207   3.281   3.553   0.202 -0.9808  1.8422  0.3603
 7598TIP3   OH244208   4.651   0.126  13.773 -0.3479  0.2774 -0.4939
 7598TIP3    H144209   4.615   0.038  13.789 -1.7150  0.8145 -0.4863
 7598TIP3    H244210   4.588   0.167  13.715 -0.1575  1.5454  0.1620
 7599TIP3   OH244211   6.512   0.701  14.837  0.2820  0.7211 -0.7260
 7599TIP3    H144212   6.428   0.746  14.833 -1.5445 -2.3943 -0.6460
 7599TIP3    H244213   6.526   0.684  14.930  1.8138  2.4499 -0.5795
 7600TIP3   OH244214   3.594   1.269   2.899  0.6852 -0.1277  0.5793
 7600TIP3    H144215   3.654   1.197   2.917 -0.4932 -1.5499 -0.9241
 7600TIP3    H244216   3.622   1.304   2.814 -2.0868 -2.5922 -1.5483
 7601TIP3   OH244217   1.497   3.209  12.013 -0.1411  0.2077 -0.7968
 7601TIP3    H144218   1.497   3.162  11.930 -1.0305 -0.9735 -0.1671
 7601TIP3    H244219   1.495   3.140  12.080  0.2714  1.1315  0.2061
 7602TIP3   OH244220   4.727   3.659   3.850 -0.0029 -0.3140 -0.5416
 7602TIP3    H144221   4.674   3.655   3.770  0.1801  0.3550 -0.6992
 7602TIP3    H244222   4.689   3.592   3.907 -0.6699 -0.2206 -0.8648
 7603TIP3   OH244223   5.995   0.691   2.442 -0.1038  0.2606 -0.3002
 7603TIP3    H144224   6.010   0.776   2.402 -0.5171  0.6147  0.2697
 7603TIP3    H244225   5.902   0.693   2.467 -0.6270 -1.0808 -1.9581
 7604TIP3   OH244226   3.479   1.477  15.305  0.3153  0.2071 -0.3726
 7604TIP3    H144227   3.489   1.569  15.329  1.8854  0.5446 -2.0711
 7604TIP3    H244228   3.449   1.479  15.214 -2.3358 -1.0010  0.3756
 7605TIP3   OH244229   6.407   4.204   4.596 -0.3035  0.4385 -0.3396
 7605TIP3    H144230   6.423   4.183   4.504 -0.2159  0.4436 -0.3254
 7605TIP3    H244231   6.474   4.156   4.644 -0.6694  0.0259 -0.2362
 7606TIP3   OH244232   0.048   0.340  12.164 -0.3032 -0.0390 -0.1475
 7606TIP3    H144233   0.069   0.428  12.134  0.6024 -0.0365  0.4748
 7606TIP3    H244234   0.025   0.293  12.083  1.5061  0.1345 -0.8138
 7607TIP3   OH244235   1.656   3.612   3.424  0.0981 -0.4105  0.3265
 7607TIP3    H144236   1.580   3.623   3.481  0.4998  0.6251  0.6896
 7607TIP3    H244237   1.637   3.533   3.373 -0.7755 -0.7167  1.0964
 7608TIP3   OH244238   1.555   1.246   2.347 -0.5770 -0.1533  0.2494
 7608TIP3    H144239   1.548   1.202   2.432 -1.5381 -0.0608  0.2266
 7608TIP3    H244240   1.483   1.309   2.346 -1.1248 -0.7691 -1.0027
 7609TIP3   OH244241   0.473   1.717   1.699  0.3726 -0.6933 -0.2834
 7609TIP3    H144242   0.478   1.647   1.634  2.4606 -0.7817 -0.1100
 7609TIP3    H244243   0.475   1.671   1.783 -0.9106 -0.5098 -0.1255
 7610TIP3   OH244244   3.823   1.951   3.519 -0.2327  0.2723 -0.4236
 7610TIP3    H144245   3.862   2.026   3.475 -0.2188  0.3840 -0.2221
 7610TIP3    H244246   3.733   1.978   3.538  0.5475  1.2975  2.1210
 7611TIP3   OH244247   6.361   6.597   4.411 -0.0536  0.2635  1.3192
 7611TIP3    H144248   6.406   6.572   4.330  0.6397  0.0724  1.7615
 7611TIP3    H244249   6.268   6.602   4.386  0.0384 -0.7398  0.7332
 7612TIP3   OH244250   3.115   5.432  12.493  0.1459 -0.0745  0.1734
 7612TIP3    H144251   3.205   5.413  12.468  0.2397  0.4604  0.0949
 7612TIP3    H244252   3.119   5.448  12.588  0.0005 -0.8348  0.3117
 7613TIP3   OH244253   5.130   2.495  11.731 -0.2798  0.6951  0.4399
 7613TIP3    H144254   5.184   2.561  11.774 -0.9491  1.1001  0.6670
 7613TIP3    H244255   5.184   2.416  11.732 -0.5037  0.5148  2.5824
 7614TIP3   OH244256   2.271   4.639   5.816 -0.4469  0.4725 -0.4370
 7614TIP3    H144257   2.357   4.600   5.832 -0.8762 -0.1369  0.4362
 7614TIP3    H244258   2.243   4.600   5.733 -0.2525  0.0250 -0.2937
 7615TIP3   OH244259   1.741   1.430  14.033 -0.6525 -0.0658 -0.2252
 7615TIP3    H144260   1.668   1.482  14.067 -1.8859 -1.6194 -0.3732
 7615TIP3    H244261   1.818   1.465  14.077 -1.6718  0.7072  1.0091
 7616TIP3   OH244262   0.362   2.973  16.022  0.0757  0.0129 -0.3292
 7616TIP3    H144263   0.384   2.966  15.929 -1.0610 -0.1157 -0.6008
 7616TIP3    H244264   0.407   3.052  16.051  2.0210 -0.9532 -0.5054
 7617TIP3   OH244265   0.181   3.461   6.480 -0.7671  0.0104  0.3290
 7617TIP3    H144266   0.155   3.386   6.427 -1.0582  0.4066 -0.0945
 7617TIP3    H244267   0.273   3.476   6.458 -0.6968 -0.2482  0.4466
 7618TIP3   OH244268   1.519   3.524   1.507  0.6380 -0.6707  0.3077
 7618TIP3    H144269   1.500   3.444   1.458  0.0209 -0.6362  0.4803
 7618TIP3    H244270   1.541   3.589   1.441 -0.5586 -0.5195  0.0365
 7619TIP3   OH244271   1.895   5.225   1.766 -0.1866  0.5537  0.4165
 7619TIP3    H144272   1.808   5.193   1.742  0.4963 -0.7086 -0.5083
 7619TIP3    H244273   1.952   5.196   1.695  0.9479  1.6382  0.8412
 7620TIP3   OH244274   5.772   1.594   0.811 -0.4689  0.5851 -0.5287
 7620TIP3    H144275   5.731   1.614   0.727 -1.7048 -1.0631 -0.3778
 7620TIP3    H244276   5.722   1.519   0.845  0.1212  1.0762  1.5861
 7621TIP3   OH244277   6.201   2.890   2.616 -0.0040  0.0906 -0.1378
 7621TIP3    H144278   6.213   2.877   2.710 -1.4046  0.3114  0.0978
 7621TIP3    H244279   6.149   2.814   2.588 -0.8136  0.7449 -0.4466
 7622TIP3   OH244280   6.047   3.233   5.542 -0.4246 -0.4987  0.0124
 7622TIP3    H144281   5.965   3.248   5.588 -0.0056 -0.3384  0.7182
 7622TIP3    H244282   6.054   3.138   5.535 -1.2670 -0.5024 -1.1669
 7623TIP3   OH244283   5.020   4.196   2.485 -0.3356  0.1214  0.0655
 7623TIP3    H144284   5.030   4.102   2.471 -1.4087  0.2440 -1.9380
 7623TIP3    H244285   5.084   4.218   2.553  0.3004 -1.9454  0.1873
 7624TIP3   OH244286   4.980   2.202  14.320 -0.3753  0.1655 -0.4614
 7624TIP3    H144287   4.984   2.172  14.229 -0.9006 -0.4009 -0.3011
 7624TIP3    H244288   4.889   2.228  14.334 -0.5791 -0.8203  0.2213
 7625TIP3   OH244289   4.878   5.987   2.251  0.2802 -0.0082 -0.1050
 7625TIP3    H144290   4.806   5.934   2.285  0.1212  0.7295  0.7384
 7625TIP3    H244291   4.952   5.927   2.248 -0.1876 -0.5897 -0.3006
 7626TIP3   OH244292   6.695   3.553   1.239 -0.4764  0.0801  0.3661
 7626TIP3    H144293   6.680   3.641   1.204  0.1757  1.1752  2.6967
 7626TIP3    H244294   6.647   3.551   1.322  3.4720  0.1031  2.9184
 7627TIP3   OH244295   2.238   6.490  15.722  0.2739  0.2677 -0.4322
 7627TIP3    H144296   2.268   6.400  15.708 -0.5465 -0.1423  0.3324
 7627TIP3    H244297   2.262   6.509  15.813 -1.5507 -0.0161  0.1553
 7628TIP3   OH244298   5.212   1.168  10.277  0.2830 -0.3012  0.0780
 7628TIP3    H144299   5.229   1.075  10.262 -0.6703 -0.4561 -0.1233
 7628TIP3    H244300   5.277   1.194  10.342 -0.4562 -1.5095  1.3648
 7629TIP3   OH244301   5.896   4.371   6.685  0.8590  0.6677  0.2661
 7629TIP3    H144302   5.866   4.295   6.734  0.0939  0.6027 -0.2926
 7629TIP3    H244303   5.971   4.339   6.634 -0.6257 -0.2443 -1.4510
 7630TIP3   OH244304   1.294   5.518   5.945 -0.2376  0.5545 -0.1235
 7630TIP3    H144305   1.256   5.490   6.028  1.1898  0.5083  0.5419
 7630TIP3    H244306   1.370   5.572   5.969 -1.2348  2.6479 -1.3916
 7631TIP3   OH244307   2.644   0.665   5.186 -0.6026  0.6677  0.4554
 7631TIP3    H144308   2.655   0.718   5.107 -0.5352 -0.7186 -0.5216
 7631TIP3    H244309   2.623   0.577   5.153 -0.0296 -0.0826  1.9649
 7632TIP3   OH244310   1.816   1.761  15.591  0.2082  0.1781 -0.5432
 7632TIP3    H144311   1.847   1.810  15.668 -0.5512 -0.2105  0.0209
 7632TIP3    H244312   1.887   1.769  15.528  1.0906  0.0443  0.4000
 7633TIP3   OH244313   0.121   4.325   3.958 -0.0956  0.1128  0.2298
 7633TIP3    H144314   0.201   4.316   3.906 -1.2353  0.3911 -1.6814
 7633TIP3    H244315   0.120   4.417   3.984  0.2233  0.0973  0.3048
 7634TIP3   OH244316   0.487   5.250  12.007 -0.5357 -0.6097 -0.4853
 7634TIP3    H144317   0.444   5.290  11.931 -2.8865 -1.4794  0.3067
 7634TIP3    H244318   0.488   5.319  12.073  0.6406 -0.1610 -0.9218
 7635TIP3   OH244319   1.001   3.403  12.758  0.2084 -0.3929 -0.3839
 7635TIP3    H144320   1.055   3.443  12.827  0.8012  0.0909 -1.1144
 7635TIP3    H244321   1.063   3.375  12.691 -0.3625 -0.8479 -0.7363
 7636TIP3   OH244322   3.766   4.009   2.167  0.2682  0.0251 -0.0877
 7636TIP3    H144323   3.809   4.084   2.208 -0.5634  0.2871  0.3336
 7636TIP3    H244324   3.837   3.949   2.145  0.8120  0.2865  0.9107
 7637TIP3   OH244325   1.590   4.349   2.508 -0.2679 -0.0026  0.0813
 7637TIP3    H144326   1.673   4.328   2.550 -0.4890  0.0311  0.5391
 7637TIP3    H244327   1.537   4.269   2.517  0.3830 -0.7288 -1.9244
 7638TIP3   OH244328   1.029   5.700   1.772  0.6760  0.6858  0.2444
 7638TIP3    H144329   0.944   5.658   1.761  1.4168 -0.5179 -1.2543
 7638TIP3    H244330   1.031   5.768   1.705  0.7161  1.0567  0.6133
 7639TIP3   OH244331   4.595   4.008   4.490 -0.2053 -0.1191 -0.5046
 7639TIP3    H144332   4.591   3.947   4.415 -1.2438  1.2383 -1.5900
 7639TIP3    H244333   4.675   4.059   4.474  0.1117 -0.4860 -0.1322
 7640TIP3   OH244334   1.259   6.292   5.783  0.0587 -0.5051  0.2031
 7640TIP3    H144335   1.276   6.295   5.877 -0.3518 -2.3927  0.3811
 7640TIP3    H244336   1.344   6.278   5.742  0.4589  1.7747  0.1287
 7641TIP3   OH244337   3.918   0.314   0.163  0.1337  0.2379  0.7454
 7641TIP3    H144338   3.874   0.232   0.141 -0.5044  0.8516 -0.3167
 7641TIP3    H244339   4.001   0.310   0.116 -0.4901  0.7893 -0.4365
 7642TIP3   OH244340   1.314   1.626  12.597 -0.5574  0.0021  0.6395
 7642TIP3    H144341   1.393   1.678  12.613 -0.0870 -0.4267 -0.2780
 7642TIP3    H244342   1.244   1.680  12.634 -0.3700  2.3198 -2.0269
 7643TIP3   OH244343   6.527   2.227  14.175  0.6440  0.0869  0.0129
 7643TIP3    H144344   6.608   2.189  14.209  0.8410 -1.9106 -2.3957
 7643TIP3    H244345   6.555   2.289  14.108  0.2232  2.9375  2.2771
 7644TIP3   OH244346   2.189   6.387   6.053 -0.3315  0.1529 -0.3418
 7644TIP3    H144347   2.154   6.427   6.132  0.4577 -0.5815  0.3989
 7644TIP3    H244348   2.235   6.309   6.084 -0.3747 -0.3784 -1.5718
 7645TIP3   OH244349   6.451   6.514  15.391  0.1308  0.8040 -0.4654
 7645TIP3    H144350   6.373   6.537  15.341 -0.6262 -1.1853 -0.2846
 7645TIP3    H244351   6.477   6.429  15.357 -0.2580 -0.5255  2.2971
 7646TIP3   OH244352   5.038   5.817   4.313  0.0277  0.1459 -0.3783
 7646TIP3    H144353   5.127   5.785   4.329  0.1663  0.8246  0.2926
 7646TIP3    H244354   4.982   5.741   4.330  0.4617 -0.2448 -0.6567
 7647TIP3   OH244355   3.090   2.411   6.145  0.0270  0.2858 -0.3736
 7647TIP3    H144356   3.002   2.386   6.174  0.3778  0.5069  0.9766
 7647TIP3    H244357   3.149   2.362   6.202  0.7647  0.9390 -0.5546
 7648TIP3   OH244358   4.225   1.787   4.966  0.0634  0.0920  0.7008
 7648TIP3    H144359   4.299   1.774   5.025 -0.2856 -0.4284  1.0363
 7648TIP3    H244360   4.188   1.872   4.993  0.4922  0.3227  0.5729
 7649TIP3   OH244361   0.896   2.301  16.376 -0.9266  0.4484  0.4427
 7649TIP3    H144362   0.945   2.301  16.458 -1.3839  1.5712  0.7330
 7649TIP3    H244363   0.833   2.372  16.385 -0.2164  1.3669 -1.3373
 7650TIP3   OH244364   6.185   1.670  15.830 -0.0746  0.0650  0.3333
 7650TIP3    H144365   6.103   1.683  15.783 -0.0284  1.2209  0.5464
 7650TIP3    H244366   6.185   1.737  15.898  0.8096 -0.2587  0.6670
 7651TIP3   OH244367   3.055   5.785   0.046 -0.3700  0.1205  0.5312
 7651TIP3    H144368   3.006   5.739  -0.022 -1.6893 -2.4710  3.0273
 7651TIP3    H244369   3.104   5.716   0.091  1.0697  1.8429  1.7682
 7652TIP3   OH244370   5.408   2.382  12.882 -0.3686  0.1842 -0.2236
 7652TIP3    H144371   5.417   2.467  12.839  0.1280  0.2081 -0.0795
 7652TIP3    H244372   5.395   2.403  12.974 -2.3207  0.1618 -0.4533
 7653TIP3   OH244373   3.423   4.761  14.473 -0.2224  0.2296  0.1164
 7653TIP3    H144374   3.400   4.798  14.558 -0.6893  0.0443  0.0768
 7653TIP3    H244375   3.517   4.743  14.479 -0.2193  0.3675  0.5322
 7654TIP3   OH244376   6.588   5.160   0.021 -0.5814  0.0948  0.3255
 7654TIP3    H144377   6.497   5.158  -0.009 -0.2909 -2.6274 -0.6260
 7654TIP3    H244378   6.635   5.207  -0.048 -1.2834  2.2011  1.1809
 7655TIP3   OH244379   4.097   1.705  15.285  0.4666 -0.6723  0.9618
 7655TIP3    H144380   4.012   1.668  15.304  0.3078  0.3962  2.4754
 7655TIP3    H244381   4.079   1.778  15.225  0.0702  0.6415  2.6115
 7656TIP3   OH244382   0.689   3.891  14.118 -0.2427  0.1143 -0.3208
 7656TIP3    H144383   0.627   3.902  14.190  0.3022 -1.3100  0.4016
 7656TIP3    H244384   0.669   3.805  14.082 -0.9728  1.0702 -2.3903
 7657TIP3   OH244385   6.370   3.013  13.638 -0.0669 -0.1012  0.1710
 7657TIP3    H144386   6.383   3.011  13.543 -1.4207  0.9932 -0.0799
 7657TIP3    H244387   6.450   3.053  13.672 -0.0824  0.6546 -0.6440
 7658TIP3   OH244388   4.924   3.678   0.332  0.4090  0.3090 -0.0937
 7658TIP3    H144389   4.867   3.623   0.278  1.5161 -1.7004  0.6824
 7658TIP3    H244390   4.984   3.719   0.270  1.6233 -1.9173 -0.4953
 7659TIP3   OH244391   0.925   4.294   2.822 -0.4549 -0.3374 -0.1106
 7659TIP3    H144392   0.831   4.288   2.805 -0.6687 -1.1908  1.2258
 7659TIP3    H244393   0.951   4.379   2.784 -1.5697 -0.4744 -1.2526
 7660TIP3   OH244394   1.570   1.477  14.999  0.5782 -0.4923  0.5093
 7660TIP3    H144395   1.583   1.446  14.910 -0.6671 -0.3677  0.2685
 7660TIP3    H244396   1.553   1.398  15.051  0.6444 -0.5080  0.5064
 7661TIP3   OH244397   5.289   6.596   0.778  0.6377  0.0359 -0.3626
 7661TIP3    H144398   5.257   6.509   0.800 -1.9917  0.9791 -0.0703
 7661TIP3    H244399   5.311   6.636   0.862  1.0926 -0.0771 -0.4272
 7662TIP3   OH244400   2.695   0.265  11.411  0.5000 -0.3058 -0.1131
 7662TIP3    H144401   2.661   0.179  11.436 -1.7614 -0.2807 -2.5960
 7662TIP3    H244402   2.641   0.328  11.459 -1.0265 -0.3039 -1.7298
 7663TIP3   OH244403   6.437   0.533  13.251 -0.3705  0.2966  0.2472
 7663TIP3    H144404   6.492   0.528  13.329  0.1108  0.9489 -0.0392
 7663TIP3    H244405   6.412   0.625  13.245 -0.6199  0.2026 -0.2232
 7664TIP3   OH244406   3.935   5.335  12.357 -0.0162  1.2994  0.5902
 7664TIP3    H144407   3.996   5.263  12.367  0.1127  1.3711  0.3223
 7664TIP3    H244408   3.881   5.311  12.282 -0.6675  0.9880  1.1475
 7665TIP3   OH244409   3.085   1.649  17.203  0.4038  0.5276 -0.0213
 7665TIP3    H144410   3.153   1.717  17.211  1.5494 -0.5591 -0.3110
 7665TIP3    H244411   3.131   1.573  17.168 -1.0547 -0.1325 -0.5665
 7666TIP3   OH244412   1.195   2.216  15.533  0.1961  0.5156  0.5537
 7666TIP3    H144413   1.126   2.172  15.484 -0.7122  0.9908  1.3870
 7666TIP3    H244414   1.222   2.152  15.599  2.1137 -0.5102 -1.1087
 7667TIP3   OH244415   0.133   5.591  16.302 -0.4859 -0.0026 -0.6298
 7667TIP3    H144416   0.110   5.586  16.209  1.1167 -0.2533 -1.0460
 7667TIP3    H244417   0.191   5.667  16.307  1.7185 -1.6148 -0.3935
 7668TIP3   OH244418   4.005   1.898  11.572  0.2458 -0.1728  0.2956
 7668TIP3    H144419   3.951   1.823  11.596  1.0886 -0.5990  0.8969
 7668TIP3    H244420   3.976   1.922  11.484  0.6865 -1.8718 -0.3504
 7669TIP3   OH244421   1.678   0.197  15.224  0.3636  0.4700  0.3339
 7669TIP3    H144422   1.753   0.234  15.270  0.0007 -0.8969  2.1659
 7669TIP3    H244423   1.698   0.104  15.216 -1.3139 -0.0202  1.3361
 7670TIP3   OH244424   1.700   3.654  12.026 -0.2706 -0.2695 -0.2461
 7670TIP3    H144425   1.636   3.588  12.054 -0.2063 -0.4470 -0.5139
 7670TIP3    H244426   1.773   3.603  11.991  0.3421 -0.0932  0.7191
 7671TIP3   OH244427   1.118   4.571  13.105 -0.1478 -0.2676  0.4692
 7671TIP3    H144428   1.089   4.599  13.018 -0.2708  0.1710  0.6502
 7671TIP3    H244429   1.037   4.541  13.148 -0.0291 -0.8408  0.3015
 7672TIP3   OH244430   5.392   2.413   2.200  0.5752  0.1971  0.3982
 7672TIP3    H144431   5.479   2.399   2.161  0.8040 -0.0559  0.9851
 7672TIP3    H244432   5.333   2.359   2.147  0.9059 -0.2771  0.5063
 7673TIP3   OH244433   4.727   5.378   0.098  0.2289 -0.2262 -0.3210
 7673TIP3    H144434   4.745   5.443   0.166  1.7951 -1.0015  0.0698
 7673TIP3    H244435   4.814   5.347   0.072 -0.1384  1.2748 -3.9652
 7674TIP3   OH244436   3.144   4.457  15.128 -0.3994 -0.5373 -0.4451
 7674TIP3    H144437   3.190   4.414  15.200  1.7211 -0.9456 -1.9483
 7674TIP3    H244438   3.205   4.452  15.054 -2.8433 -1.0040 -2.5704
 7675TIP3   OH244439   1.503   5.737  11.322 -0.0941  0.1864 -0.2384
 7675TIP3    H144440   1.462   5.662  11.278 -0.9707  0.1278  0.6478
 7675TIP3    H244441   1.470   5.813  11.273  0.7072  0.0278 -1.0665
 7676TIP3   OH244442   3.169   6.361  15.940  0.4446  0.2432  0.0066
 7676TIP3    H144443   3.109   6.436  15.934 -1.5872 -1.3406 -1.3907
 7676TIP3    H244444   3.114   6.290  15.974  2.1958 -0.7315  0.9124
 7677TIP3   OH244445   3.501   2.163   3.330  0.3641 -0.4339 -0.4052
 7677TIP3    H144446   3.523   2.205   3.413 -1.1883 -1.2911  0.4797
 7677TIP3    H244447   3.502   2.234   3.266  1.3652  0.2751  0.3671
 7678TIP3   OH244448   5.896   0.848   2.704 -0.4399  0.1505 -0.4349
 7678TIP3    H144449   5.801   0.834   2.706 -0.5626  0.9022  1.7572
 7678TIP3    H244450   5.905   0.934   2.662 -0.8370  0.5977  0.3639
 7679TIP3   OH244451   0.869   0.791   5.341 -0.4254  0.1243  0.4080
 7679TIP3    H144452   0.815   0.869   5.351  2.0849  1.8850  0.9693
 7679TIP3    H244453   0.851   0.761   5.251 -0.6435  1.9763 -0.1989
 7680TIP3   OH244454   1.150   1.184   5.800  0.0937  0.5865  0.3648
 7680TIP3    H144455   1.182   1.094   5.798  0.3981  0.6919 -1.2720
 7680TIP3    H244456   1.219   1.234   5.843  0.6318  0.2719 -0.1139
 7681TIP3   OH244457   0.467   5.696   0.611  0.1730 -0.0708 -0.2441
 7681TIP3    H144458   0.396   5.686   0.675 -2.8692  0.3988 -3.3014
 7681TIP3    H244459   0.499   5.607   0.596  0.4654 -0.2636  1.3260
 7682TIP3   OH244460   5.356   2.370   0.539  0.5760 -0.1076 -0.0585
 7682TIP3    H144461   5.433   2.401   0.492 -1.1272 -0.1118 -3.0561
 7682TIP3    H244462   5.343   2.281   0.507 -1.3867  0.3465 -0.6278
 7683TIP3   OH244463   2.192   2.655   6.409  0.2081  0.4063 -0.2608
 7683TIP3    H144464   2.180   2.585   6.344  0.8325 -0.2031  0.2691
 7683TIP3    H244465   2.286   2.657   6.425 -0.0554 -0.3931  1.6284
 7684TIP3   OH244466   6.482   2.231  12.981  0.0580  0.9761 -0.1892
 7684TIP3    H144467   6.505   2.139  12.967 -0.5439  0.6323  0.9519
 7684TIP3    H244468   6.477   2.240  13.076 -2.6483  1.4786 -0.3046
 7685TIP3   OH244469   0.631   2.851  16.208  0.0085 -0.2604  0.3486
 7685TIP3    H144470   0.649   2.943  16.229  1.1155 -0.6058  0.9897
 7685TIP3    H244471   0.536   2.844  16.216 -0.1136  0.8678  0.1224
 7686TIP3   OH244472   4.238   5.034  16.870  0.0758 -0.0045  0.1138
 7686TIP3    H144473   4.278   5.121  16.874 -0.4099  0.2359 -0.1203
 7686TIP3    H244474   4.166   5.044  16.808 -1.0381 -0.1272  1.3359
 7687TIP3   OH244475   6.107   5.122  12.805 -0.6881 -0.3471  0.1864
 7687TIP3    H144476   6.105   5.174  12.724  2.9963  0.0377  0.1956
 7687TIP3    H244477   6.136   5.035  12.777  2.3331  0.2355  1.1189
 7688TIP3   OH244478   0.412   2.405  11.527 -0.6831 -0.3396 -0.1863
 7688TIP3    H144479   0.429   2.314  11.500 -2.9918 -0.6855 -0.6817
 7688TIP3    H244480   0.350   2.397  11.599 -0.9673  0.8584 -0.2907
 7689TIP3   OH244481   1.181   3.483  10.900 -0.1170 -0.2809  0.3613
 7689TIP3    H144482   1.271   3.494  10.932  0.1293  1.2335 -0.7253
 7689TIP3    H244483   1.191   3.425  10.824  0.3811  1.8441 -1.3098
 7690TIP3   OH244484   0.460   5.379   5.485 -0.0727 -0.0167  0.4212
 7690TIP3    H144485   0.490   5.340   5.567 -1.1420  0.1259  0.8988
 7690TIP3    H244486   0.367   5.358   5.480 -0.0979  0.2413 -0.6101
 7691TIP3   OH244487   1.214   0.131  15.659 -0.3074  0.0627 -0.6051
 7691TIP3    H144488   1.290   0.091  15.701 -0.7309 -0.1746 -0.0477
 7691TIP3    H244489   1.246   0.214  15.625  0.4703 -0.5350 -1.3665
 7692TIP3   OH244490   5.382   1.251   1.717 -0.1227  0.1271 -0.7369
 7692TIP3    H144491   5.424   1.192   1.779 -0.6052  0.1982 -0.3329
 7692TIP3    H244492   5.336   1.315   1.772 -1.0660 -0.1712 -1.1549
 7693TIP3   OH244493   1.311   2.884  13.397 -0.4715  0.0436  0.5902
 7693TIP3    H144494   1.240   2.934  13.356 -1.7198 -1.7323  0.4974
 7693TIP3    H244495   1.355   2.948  13.453 -3.7378  0.7317  2.6757
 7694TIP3   OH244496   5.791   5.875   5.398  0.0920 -0.6651 -0.3279
 7694TIP3    H144497   5.799   5.876   5.493 -1.0330  0.1100 -0.2266
 7694TIP3    H244498   5.697   5.884   5.381  0.2200 -1.2791 -1.5117
 7695TIP3   OH244499   4.848   5.978   1.115 -0.0627 -0.2606  0.6174
 7695TIP3    H144500   4.942   5.971   1.130  0.0672  0.6689  0.3252
 7695TIP3    H244501   4.810   5.903   1.161  0.9212 -1.4026 -0.3561
 7696TIP3   OH244502   6.054   4.723   5.537 -0.1131 -0.3843 -0.2818
 7696TIP3    H144503   6.102   4.644   5.510  0.3647 -0.7395  1.5123
 7696TIP3    H244504   5.967   4.691   5.560  0.2068 -0.4849  0.8509
 7697TIP3   OH244505   4.498   1.245  15.049  0.4149  0.4599 -0.3486
 7697TIP3    H144506   4.533   1.302  15.117 -1.8522  1.0837  0.3724
 7697TIP3    H244507   4.457   1.173  15.096 -3.0967  1.9886 -0.8235
 7698TIP3   OH244508   0.735   3.362  13.507 -0.0137 -0.4525  0.0088
 7698TIP3    H144509   0.829   3.368  13.527  0.0250  0.9150 -0.4795
 7698TIP3    H244510   0.732   3.348  13.412 -0.3037 -0.5707  0.0349
 7699TIP3   OH244511   5.695   2.867  14.881  0.3228  0.2519 -0.1528
 7699TIP3    H144512   5.699   2.776  14.910 -0.5138  0.7828  1.7974
 7699TIP3    H244513   5.756   2.872  14.808 -0.7430 -2.2265 -1.3290
 7700TIP3   OH244514   0.919   3.594  14.974 -0.6790 -0.0364  0.4625
 7700TIP3    H144515   0.906   3.658  14.904  1.7425 -0.0503 -0.0977
 7700TIP3    H244516   0.952   3.645  15.047 -0.4108 -0.4107  0.6032
 7701TIP3   OH244517   1.126   2.883  13.654  0.2208  0.4016 -0.6478
 7701TIP3    H144518   1.164   2.953  13.708  0.4559 -2.4548  3.3444
 7701TIP3    H244519   1.198   2.854  13.598  1.2117  0.9816  0.2904
 7702TIP3   OH244520   0.927   6.625   2.708 -0.2532 -0.2438  0.0810
 7702TIP3    H144521   0.880   6.708   2.713  1.0908  0.4720  2.4189
 7702TIP3    H244522   0.904   6.579   2.788  0.2045 -1.4795 -0.4622
 7703TIP3   OH244523   2.379   3.629  16.338  0.4437 -0.2085  0.6367
 7703TIP3    H144524   2.436   3.553  16.328  0.4152 -0.1941  0.3650
 7703TIP3    H244525   2.322   3.627  16.261  0.2620 -0.0675  0.7661
 7704TIP3   OH244526   0.270   1.284   6.315  0.0842 -0.1762  0.1252
 7704TIP3    H144527   0.346   1.319   6.360 -0.5663  0.5927  0.6424
 7704TIP3    H244528   0.267   1.192   6.341  1.3504 -0.4535 -0.6247
 7705TIP3   OH244529   5.829   2.482  13.571  0.3927  0.1579  0.3734
 7705TIP3    H144530   5.872   2.543  13.509  1.5377 -0.2584  0.7315
 7705TIP3    H244531   5.902   2.440  13.617 -0.4300  1.0061  2.5629
 7706TIP3   OH244532   6.491   1.769  14.120 -0.1657 -0.4675  0.6850
 7706TIP3    H144533   6.427   1.839  14.129 -0.1028 -0.5161  1.6038
 7706TIP3    H244534   6.565   1.798  14.174  0.1916 -0.8572  0.4052
 7707TIP3   OH244535   2.151   4.715   3.521  0.2223  0.7512  0.0232
 7707TIP3    H144536   2.079   4.654   3.507 -0.2115  1.1345  0.5101
 7707TIP3    H244537   2.221   4.684   3.464 -0.6649  0.9325 -1.2116
 7708TIP3   OH244538   5.698   4.659   0.270 -0.1313 -0.3008  0.0206
 7708TIP3    H144539   5.615   4.626   0.238  0.6241  1.1595 -4.0404
 7708TIP3    H244540   5.739   4.585   0.315 -3.5445 -0.9895  2.4037
 7709TIP3   OH244541   3.412   2.469  13.990  0.1502  0.4163  0.0817
 7709TIP3    H144542   3.407   2.383  14.032  0.3504  0.2099 -0.3188
 7709TIP3    H244543   3.449   2.527  14.057 -1.9437  0.6724  1.1104
 7710TIP3   OH244544   0.973   1.539  12.950 -0.6439 -0.2859 -0.1682
 7710TIP3    H144545   0.913   1.571  13.018 -1.4010  0.6857 -1.2342
 7710TIP3    H244546   0.951   1.592  12.873  1.7844  0.2671 -0.5373
 7711TIP3   OH244547   4.991   2.310   1.382  0.3144  0.0465  0.4494
 7711TIP3    H144548   4.936   2.376   1.424  2.1209  1.8691  0.1034
 7711TIP3    H244549   5.007   2.245   1.450 -2.3488 -0.6807  0.5021
 7712TIP3   OH244550   3.847   4.157   5.090 -0.3888 -0.2550  0.3775
 7712TIP3    H144551   3.826   4.248   5.071  0.9449 -0.6044 -3.5019
 7712TIP3    H244552   3.776   4.106   5.052 -0.0003 -0.9317  0.5261
 7713TIP3   OH244553   5.235   6.325  17.318  0.1638 -0.1183 -0.1848
 7713TIP3    H144554   5.141   6.321  17.300  0.3610  1.7410 -1.9722
 7713TIP3    H244555   5.243   6.299  17.410 -2.0253 -0.8914 -0.1660
 7714TIP3   OH244556   4.882   3.949   2.739  0.6068  0.6691  0.4993
 7714TIP3    H144557   4.822   3.875   2.747  1.1656  0.2750  1.0997
 7714TIP3    H244558   4.825   4.024   2.721  0.1661 -0.2355 -2.4823
 7715TIP3   OH244559   4.124   2.291   4.879  0.0545  0.0637 -0.2673
 7715TIP3    H144560   4.110   2.223   4.944 -1.8936  1.7099  1.1559
 7715TIP3    H244561   4.123   2.373   4.928  0.3204  1.2762 -2.1574
 7716TIP3   OH244562   5.536   1.214  16.792  0.1594 -0.3227  0.4287
 7716TIP3    H144563   5.505   1.303  16.780 -3.4282 -1.4104  0.4824
 7716TIP3    H244564   5.559   1.185  16.703  0.5246  0.3693  0.2900
 7717TIP3   OH244565   1.729   0.297   0.254 -0.3425 -0.4813 -0.0748
 7717TIP3    H144566   1.659   0.335   0.308 -0.3497 -0.1803 -0.2915
 7717TIP3    H244567   1.780   0.373   0.225  0.7153 -0.7791  0.9561
 7718TIP3   OH244568   5.378   5.495   1.142  0.2979 -0.1271  0.9151
 7718TIP3    H144569   5.291   5.503   1.180 -0.1536 -1.0807  0.1171
 7718TIP3    H244570   5.381   5.407   1.105  1.1690  0.3105 -0.1304
 7719TIP3   OH244571   0.405   1.538   0.083  0.0014  0.0088 -0.2263
 7719TIP3    H144572   0.390   1.628   0.114 -0.9224 -0.1927 -0.0805
 7719TIP3    H244573   0.325   1.491   0.104 -0.0900 -0.5067 -1.6287
 7720TIP3   OH244574   3.458   0.858   4.255  0.7775 -0.8288  0.7274
 7720TIP3    H144575   3.470   0.953   4.258  1.5018 -0.7845 -1.5124
 7720TIP3    H244576   3.545   0.822   4.275  1.0091 -0.9232 -0.3477
 7721TIP3   OH244577   5.899   4.881   3.843  0.1203 -0.0130 -0.3886
 7721TIP3    H144578   5.958   4.887   3.918  0.4186 -0.2081 -0.6032
 7721TIP3    H244579   5.957   4.871   3.768 -0.1977 -1.0338 -0.5233
 7722TIP3   OH244580   3.889   0.572   2.187  0.1290 -0.3026  0.0933
 7722TIP3    H144581   3.845   0.641   2.138  0.5967 -0.0797 -0.0137
 7722TIP3    H244582   3.834   0.495   2.174 -0.4168  0.0560  0.2444
 7723TIP3   OH244583   0.442   2.526   5.716  0.4703  0.3011 -0.4020
 7723TIP3    H144584   0.504   2.459   5.745  1.0744  1.0182 -0.0103
 7723TIP3    H244585   0.390   2.482   5.649  1.7212 -0.1805 -1.1013
 7724TIP3   OH244586   6.190   0.953  16.865 -0.2353 -0.0702  0.2623
 7724TIP3    H144587   6.145   0.872  16.889 -1.2807 -0.4892 -2.6832
 7724TIP3    H244588   6.182   0.957  16.770  3.6109  1.3003 -0.1776
 7725TIP3   OH244589   6.627   3.501   2.172 -0.2787 -0.3774  0.3000
 7725TIP3    H144590   6.666   3.567   2.115  0.6660 -0.9443  0.2781
 7725TIP3    H244591   6.608   3.548   2.253 -3.3281  0.9219 -1.0094
 7726TIP3   OH244592   2.922   1.978  17.254 -0.5899  0.0999 -0.1522
 7726TIP3    H144593   2.878   1.978  17.338 -1.4183 -2.1673 -0.5154
 7726TIP3    H244594   2.874   2.041  17.201 -1.0137  0.4131  0.5969
 7727TIP3   OH244595   2.783   0.163   1.466 -0.2307 -0.6857 -0.1088
 7727TIP3    H144596   2.813   0.250   1.440 -0.7371  0.2387  2.0995
 7727TIP3    H244597   2.846   0.135   1.533 -1.2145 -1.0711  0.6928
 7728TIP3   OH244598   3.751   4.515  12.021  0.7812 -0.2758 -0.4190
 7728TIP3    H144599   3.682   4.560  11.972 -0.7540 -2.2141 -0.1613
 7728TIP3    H244600   3.710   4.434  12.052  2.2260 -0.0509  2.4665
 7729TIP3   OH244601   4.158   2.912   5.764 -0.0413 -0.5304 -0.6353
 7729TIP3    H144602   4.234   2.886   5.818 -1.0367 -1.4551  0.3714
 7729TIP3    H244603   4.169   3.006   5.752 -0.0888 -0.1550  1.7477
 7730TIP3   OH244604   3.322   1.043   0.346  0.2301  0.0563  0.4765
 7730TIP3    H144605   3.287   0.965   0.388  0.3645  1.1265  2.7073
 7730TIP3    H244606   3.245   1.090   0.313 -0.3892  1.3067  3.4099
 7731TIP3   OH244607   4.265   3.617   5.084 -0.1947 -0.1207  0.2135
 7731TIP3    H144608   4.172   3.636   5.074 -0.2504 -0.1640  0.6298
 7731TIP3    H244609   4.300   3.623   4.996 -0.2339  1.7555  0.2885
 7732TIP3   OH244610   3.420   6.144  17.040  0.4617  0.0520 -0.1050
 7732TIP3    H144611   3.443   6.122  17.130  1.5381  0.2620 -0.3132
 7732TIP3    H244612   3.329   6.173  17.045  0.2007 -0.8612  0.7527
 7733TIP3   OH244613   3.275   4.020  12.132  0.1575 -0.1432  0.6451
 7733TIP3    H144614   3.209   4.081  12.100  1.3925  1.3485  0.7940
 7733TIP3    H244615   3.268   3.944  12.074 -0.3839  0.7910 -0.5685
 7734TIP3   OH244616   0.876   3.535   0.109 -0.1071 -0.1926 -0.5223
 7734TIP3    H144617   0.967   3.510   0.123 -0.6013 -2.1361 -0.4446
 7734TIP3    H244618   0.848   3.482   0.034 -0.9611  0.9425 -1.0345
 7735TIP3   OH244619   0.946   5.566   2.176 -0.0823 -0.3936  0.2241
 7735TIP3    H144620   0.882   5.631   2.205 -1.2631 -1.3345 -0.1891
 7735TIP3    H244621   0.923   5.486   2.225 -2.7074 -2.3276 -3.6532
 7736TIP3   OH244622   1.791   4.567  17.171  0.2812 -0.2569  0.1589
 7736TIP3    H144623   1.863   4.570  17.108 -0.5563  0.4063 -0.7979
 7736TIP3    H244624   1.832   4.592  17.255  1.5128 -1.6536  0.0173
 7737TIP3   OH244625   0.146   0.117   4.894 -0.4257 -0.3567 -0.3403
 7737TIP3    H144626   0.146   0.203   4.936 -1.9662 -0.9215  0.9057
 7737TIP3    H244627   0.117   0.134   4.804 -1.9611  0.3215  0.2439
 7738TIP3   OH244628   6.253   0.465  16.249  0.2845 -0.6383  0.2550
 7738TIP3    H144629   6.307   0.447  16.173  0.8530  0.8013  0.2927
 7738TIP3    H244630   6.312   0.452  16.324  0.3409  0.0771  0.3386
 7739TIP3   OH244631   3.835   3.303   1.638 -0.6267  0.0736 -0.2003
 7739TIP3    H144632   3.842   3.224   1.585 -1.3359 -0.1430  0.0133
 7739TIP3    H244633   3.922   3.314   1.677 -0.1304  0.1686 -1.2976
 7740TIP3   OH244634   5.562   0.956  15.745 -0.0045 -0.6698  0.7188
 7740TIP3    H144635   5.470   0.936  15.729 -0.0213 -0.6741  0.8198
 7740TIP3    H244636   5.563   1.047  15.774  0.0171 -0.6847  0.7659
 7741TIP3   OH244637   2.879   5.367  17.046 -0.2256  0.2313  0.2679
 7741TIP3    H144638   2.867   5.310  17.122 -0.6728 -0.9230 -0.6381
 7741TIP3    H244639   2.959   5.334  17.004  0.6437  1.5534  0.8031
 7742TIP3   OH244640   0.115   0.388  15.106  0.1532  0.5691  0.2595
 7742TIP3    H144641   0.194   0.353  15.065  0.0592  1.2124 -0.5114
 7742TIP3    H244642   0.106   0.340  15.188 -0.5073 -1.9136 -1.1476
 7743TIP3   OH244643   4.701   0.381   4.588  0.0911 -0.8733  0.1919
 7743TIP3    H144644   4.711   0.323   4.664 -0.6897 -1.9202 -0.4678
 7743TIP3    H244645   4.787   0.419   4.574  0.8988 -2.6581  0.0651
 7744TIP3   OH244646   2.365   4.239  13.382 -0.0502  0.0762  0.2145
 7744TIP3    H144647   2.313   4.311  13.345 -0.8423 -0.4384  0.3059
 7744TIP3    H244648   2.455   4.256  13.352 -0.4272  0.4637 -0.7297
 7745TIP3   OH244649   5.246   0.372  16.685 -0.3719  0.1433  0.5308
 7745TIP3    H144650   5.171   0.428  16.704 -1.4279 -0.1477 -2.1818
 7745TIP3    H244651   5.296   0.420  16.620 -0.5653 -1.4050 -0.8386
 7746TIP3   OH244652   3.665   2.089  11.173  0.1689 -0.2888  0.0710
 7746TIP3    H144653   3.602   2.070  11.242 -0.0504 -1.9208 -0.5256
 7746TIP3    H244654   3.675   2.184  11.175 -1.8672 -0.0375  0.5646
 7747TIP3   OH244655   5.802   4.459   0.410  0.5150 -0.4058  0.3805
 7747TIP3    H144656   5.842   4.394   0.352 -0.7423 -0.5658 -0.3407
 7747TIP3    H244657   5.844   4.445   0.495  3.3648  0.7114 -0.7316
 7748TIP3   OH244658   0.146   2.221  16.606  0.2290  0.1395 -0.2239
 7748TIP3    H144659   0.220   2.279  16.584  0.5227  0.4605  1.4326
 7748TIP3    H244660   0.107   2.199  16.522  0.3989  2.3848 -0.9812
 7749TIP3   OH244661   1.575   5.620   5.704  0.0611  0.5919 -0.2906
 7749TIP3    H144662   1.520   5.561   5.653  0.2517  0.7727 -0.7139
 7749TIP3    H244663   1.621   5.672   5.638  2.2873 -0.9288 -0.0559
 7750TIP3   OH244664   4.571   6.229   5.901 -0.2697 -0.1090  0.5052
 7750TIP3    H144665   4.576   6.311   5.852  0.5398 -0.9510 -0.8984
 7750TIP3    H244666   4.493   6.238   5.955 -0.8587  1.1146 -0.5034
 7751TIP3   OH244667   5.913   1.695   3.812  0.3597  0.7024 -0.2604
 7751TIP3    H144668   6.005   1.669   3.819  0.7229  1.9012 -0.4822
 7751TIP3    H244669   5.915   1.779   3.767 -0.6822  1.8035  1.6081
 7752TIP3   OH244670   1.887   4.526  12.097 -0.4070 -0.3102 -0.2064
 7752TIP3    H144671   1.855   4.439  12.074 -0.0848 -0.1537 -1.3259
 7752TIP3    H244672   1.867   4.536  12.190  0.1222 -1.8169  0.0858
 7753TIP3   OH244673   1.342   6.706  15.177  0.1084  0.4788 -0.4790
 7753TIP3    H144674   1.249   6.703  15.155  0.1634  1.2751 -0.8390
 7753TIP3    H244675   1.346   6.751  15.261  0.3999  3.6879 -2.0807
 7754TIP3   OH244676   1.494   5.836   3.553  0.3101 -0.6820 -0.4382
 7754TIP3    H144677   1.425   5.895   3.583  0.8124 -0.5819  0.5798
 7754TIP3    H244678   1.575   5.883   3.573  0.7121 -1.5848  0.1389
 7755TIP3   OH244679   5.555   0.597   1.415  0.3367  0.0312  0.2044
 7755TIP3    H144680   5.544   0.659   1.487  0.3726 -0.5084  0.6854
 7755TIP3    H244681   5.650   0.596   1.399  0.2134  1.0947 -0.7136
 7756TIP3   OH244682   4.459   1.698   1.222  0.0334 -0.5090  0.0386
 7756TIP3    H144683   4.493   1.787   1.211 -0.1434 -0.3044  1.0328
 7756TIP3    H244684   4.398   1.686   1.149 -1.7890  1.1001  1.1739
 7757TIP3   OH244685   2.700   4.598   5.764 -0.5189  0.1594 -0.3570
 7757TIP3    H144686   2.689   4.685   5.802 -0.1922  0.1321 -0.1966
 7757TIP3    H244687   2.633   4.544   5.807  0.3075 -0.0440  0.7253
 7758TIP3   OH244688   1.937   2.430  14.859  0.7496 -0.4393  0.1055
 7758TIP3    H144689   1.927   2.338  14.835 -2.2038  0.5994 -3.6562
 7758TIP3    H244690   1.888   2.440  14.940 -1.8087 -1.6725 -1.1979
 7759TIP3   OH244691   2.806   5.282  15.069  0.0279  0.0343 -0.0589
 7759TIP3    H144692   2.813   5.292  15.164 -1.8808  0.5423  0.0533
 7759TIP3    H244693   2.888   5.320  15.036 -0.5837  2.7727  1.2354
 7760TIP3   OH244694   4.268   4.117  12.259  0.3770 -0.3808  0.5001
 7760TIP3    H144695   4.324   4.102  12.335  1.3715 -0.9418 -0.3229
 7760TIP3    H244696   4.219   4.035  12.248 -0.5683  0.0689  1.1499
 7761TIP3   OH244697   4.787   4.125  14.877 -0.7274 -0.0847 -0.2441
 7761TIP3    H144698   4.741   4.063  14.821 -1.5336  0.2732  0.0025
 7761TIP3    H244699   4.857   4.074  14.916 -0.3486 -0.4147 -1.3265
 7762TIP3   OH244700   1.180   5.633   0.496  0.0229  0.0432  0.6785
 7762TIP3    H144701   1.129   5.553   0.493  1.1301 -0.6972  0.7357
 7762TIP3    H244702   1.191   5.651   0.590 -0.0097  0.1172  0.6681
 7763TIP3   OH244703   3.036   1.313  11.745 -0.0178 -0.2429 -0.7996
 7763TIP3    H144704   3.026   1.403  11.775 -1.3779 -0.4409 -0.6042
 7763TIP3    H244705   3.116   1.314  11.692  1.0353  0.6491  0.7454
 7764TIP3   OH244706   3.124   2.249   0.315 -0.5100  0.6148  0.4779
 7764TIP3    H144707   3.123   2.326   0.371  0.0057  0.8719  0.1391
 7764TIP3    H244708   3.035   2.246   0.278 -0.5803  0.9502  0.6165
 7765TIP3   OH244709   3.763   6.681  16.096 -0.1702  0.0751  0.1069
 7765TIP3    H144710   3.722   6.654  16.178  0.2494 -0.1355  0.2489
 7765TIP3    H244711   3.837   6.735  16.122 -0.4987  0.6611 -0.1567
 7766TIP3   OH244712   4.576   3.246   4.429  0.7406 -0.0944 -0.6692
 7766TIP3    H144713   4.519   3.239   4.506  1.6040 -2.4372 -0.1650
 7766TIP3    H244714   4.517   3.233   4.354 -0.0913  2.1225 -0.4603
 7767TIP3   OH244715   1.308   2.686  14.560 -0.1080 -0.1524 -0.0416
 7767TIP3    H144716   1.403   2.681  14.548  0.0662  0.7766  0.7855
 7767TIP3    H244717   1.280   2.756  14.501 -0.3029 -0.5349 -0.4033
 7768TIP3   OH244718   1.449   3.225  16.226  0.0736  0.6355 -0.1125
 7768TIP3    H144719   1.440   3.296  16.163 -2.3793  0.1748 -0.3508
 7768TIP3    H244720   1.406   3.150  16.185  2.6280 -1.0929  0.1046
 7769TIP3   OH244721   1.637   5.173  14.491 -0.2034 -0.3052  0.0029
 7769TIP3    H144722   1.688   5.251  14.470 -1.0117  0.2113 -0.0421
 7769TIP3    H244723   1.702   5.102  14.493  0.7589  0.5795  1.4636
 7770TIP3   OH244724   6.427   2.506  11.226 -0.6639 -0.2075 -0.3259
 7770TIP3    H144725   6.369   2.462  11.289 -0.6070 -0.4775 -0.4614
 7770TIP3    H244726   6.391   2.483  11.141 -1.5049  1.1937 -0.3771
 7771TIP3   OH244727   1.299   2.060  12.510  0.5356  0.5139  0.5881
 7771TIP3    H144728   1.339   2.017  12.585 -0.1121 -0.6076  0.3126
 7771TIP3    H244729   1.208   2.073  12.535  0.1318 -0.5343 -0.2581
 7772TIP3   OH244730   2.934   1.556  15.139 -0.5983 -0.3572 -0.0584
 7772TIP3    H144731   2.928   1.488  15.207  1.5150 -1.3698 -0.8052
 7772TIP3    H244732   2.974   1.511  15.065  0.6678  1.6632 -0.6617
 7773TIP3   OH244733   1.241   4.648   3.358 -0.1701  0.1193  0.6288
 7773TIP3    H144734   1.205   4.713   3.298  2.8609  0.7613 -0.6605
 7773TIP3    H244735   1.193   4.567   3.339 -1.0214  0.9365 -0.8294
 7774TIP3   OH244736   2.026   3.189   1.385 -0.0066 -0.5142 -0.2519
 7774TIP3    H144737   2.099   3.214   1.442 -0.3448  1.6744 -0.6759
 7774TIP3    H244738   2.064   3.186   1.297 -0.2772  0.0412 -0.3952
 7775TIP3   OH244739   2.578   1.960  14.754  0.2224 -0.0240  0.3163
 7775TIP3    H144740   2.608   1.909  14.679 -1.0128 -1.9277  1.0615
 7775TIP3    H244741   2.584   2.051  14.724 -2.0007 -0.7300 -2.7973
 7776TIP3   OH244742   1.875   1.010   2.024 -0.6528  0.4418 -0.2580
 7776TIP3    H144743   1.868   0.941   1.958 -3.3488  1.5147 -1.2650
 7776TIP3    H244744   1.798   0.998   2.079 -0.1420  1.4996  0.7320
 7777TIP3   OH244745   0.570   1.883  12.530  0.6152  0.0587  0.0719
 7777TIP3    H144746   0.546   1.864  12.439  0.9691 -2.1012  0.3833
 7777TIP3    H244747   0.546   1.804  12.578  2.8476  0.1350  1.4190
 7778TIP3   OH244748   2.808   1.118   4.526  0.5382 -0.0599  0.1363
 7778TIP3    H144749   2.851   1.049   4.475 -0.3043 -1.5531  1.3461
 7778TIP3    H244750   2.748   1.159   4.463  0.1078 -1.3130 -0.3057
 7779TIP3   OH244751   4.436   3.602   1.023  0.4065  0.4801  0.1940
 7779TIP3    H144752   4.417   3.552   0.944  0.9082  0.0562  0.3379
 7779TIP3    H244753   4.531   3.604   1.029  0.3810 -0.3966  1.3387
 7780TIP3   OH244754   4.578   4.818  17.009 -0.1044 -0.3407  0.3731
 7780TIP3    H144755   4.577   4.905  17.049 -0.2415 -0.2236  0.1223
 7780TIP3    H244756   4.670   4.790  17.015 -0.1299 -0.3374  0.7841
 7781TIP3   OH244757   3.737   3.984  16.564  0.0925 -0.0749  0.0490
 7781TIP3    H144758   3.759   3.890  16.566 -0.6980 -0.2616  1.3484
 7781TIP3    H244759   3.747   4.012  16.655  0.7758  1.2327 -0.4167
 7782TIP3   OH244760   2.322   3.267   1.491 -0.3850  0.0097 -0.0220
 7782TIP3    H144761   2.382   3.272   1.566 -0.3402 -0.7413  0.0079
 7782TIP3    H244762   2.362   3.201   1.434 -2.2887 -2.2186  1.0599
 7783TIP3   OH244763   0.910   4.247   5.836  0.1488 -0.3318  0.1081
 7783TIP3    H144764   0.826   4.263   5.878  1.5597  0.5152  2.9242
 7783TIP3    H244765   0.971   4.306   5.881  2.5603 -2.0819 -0.6045
 7784TIP3   OH244766   3.004   1.793   1.089  0.0080  0.2245 -0.4421
 7784TIP3    H144767   2.994   1.778   0.995  0.2955 -0.1660 -0.4134
 7784TIP3    H244768   2.914   1.802   1.122 -0.1780 -1.1709 -0.5105
 7785TIP3   OH244769   4.036   6.123   0.966 -0.5457  0.5445  0.0533
 7785TIP3    H144770   4.110   6.107   0.906 -0.6610  0.3989 -0.0509
 7785TIP3    H244771   3.958   6.114   0.911 -0.7752 -1.7291  0.6329
 7786TIP3   OH244772   5.120   2.998  14.319  0.5147  0.0771  0.1485
 7786TIP3    H144773   5.162   2.976  14.402 -1.1649 -1.8739  0.5348
 7786TIP3    H244774   5.131   2.920  14.265 -0.1153  0.6104 -0.7735
 7787TIP3   OH244775   3.541   5.105   5.040  0.5895 -0.2940 -0.4557
 7787TIP3    H144776   3.513   5.111   5.131 -0.8000  1.1468 -0.9209
 7787TIP3    H244777   3.525   5.014   5.016  1.5792 -0.8536  0.9000
 7788TIP3   OH244778   0.477   6.445   5.621  0.5222 -0.0496  0.4770
 7788TIP3    H144779   0.483   6.446   5.716  0.6956  0.0184  0.4677
 7788TIP3    H244780   0.390   6.479   5.601  1.2292  1.9602  0.5642
 7789TIP3   OH244781   0.553   2.860  15.155 -1.0118  0.2997 -0.2547
 7789TIP3    H144782   0.593   2.815  15.229  1.1566  0.8974 -1.0032
 7789TIP3    H244783   0.556   2.797  15.083 -3.3915 -0.3920  0.1721
 7790TIP3   OH244784   4.807   1.401  15.144  0.4498 -0.3600  0.5072
 7790TIP3    H144785   4.744   1.332  15.164 -1.5326  1.8351  2.4758
 7790TIP3    H244786   4.754   1.476  15.116  2.4183  0.6934 -0.6885
 7791TIP3   OH244787   6.122   1.120   2.534  0.5529  0.8366 -0.3997
 7791TIP3    H144788   6.029   1.143   2.541 -0.2639 -2.3759  1.1230
 7791TIP3    H244789   6.156   1.127   2.623  0.5427 -2.1535 -0.0545
 7792TIP3   OH244790   5.646   0.639   4.689  0.4383  0.6545 -0.3339
 7792TIP3    H144791   5.619   0.619   4.599 -2.3282 -0.8761  0.6978
 7792TIP3    H244792   5.713   0.573   4.709 -1.5538 -1.4492 -0.1895
 7793TIP3   OH244793   0.659   0.430  13.701  0.3194 -0.5783  0.2189
 7793TIP3    H144794   0.696   0.348  13.670  1.3785  0.6184 -1.9051
 7793TIP3    H244795   0.731   0.475  13.745  1.2721  1.2373 -2.8905
 7794TIP3   OH244796   5.250   6.094   4.298 -0.3331  0.0395  0.2053
 7794TIP3    H144797   5.272   6.028   4.233 -1.1929  0.6700 -0.7687
 7794TIP3    H244798   5.189   6.153   4.252 -1.2155  0.3258  1.6747
 7795TIP3   OH244799   0.269   3.258   1.826 -0.0721 -0.2980  0.7144
 7795TIP3    H144800   0.224   3.337   1.856 -1.2400 -0.8202  0.3752
 7795TIP3    H244801   0.317   3.286   1.747  0.1038  0.2306  1.0079
 7796TIP3   OH244802   1.080   4.948  12.249  0.1465 -0.1369  0.0071
 7796TIP3    H144803   1.152   4.949  12.186  0.5456 -1.0324  0.4351
 7796TIP3    H244804   1.102   5.016  12.312 -0.2456  0.7548 -0.7996
 7797TIP3   OH244805   0.916   5.849  17.094 -0.4731 -0.5085  0.1260
 7797TIP3    H144806   0.860   5.791  17.146 -0.1069 -0.5977  0.4312
 7797TIP3    H244807   0.887   5.937  17.116 -2.2450 -0.5732 -1.6852
 7798TIP3   OH244808   6.219   5.946  15.930  0.1288 -0.3532 -0.0618
 7798TIP3    H144809   6.127   5.963  15.907  0.0466 -0.5519  0.1102
 7798TIP3    H244810   6.258   5.911  15.851 -0.0007 -0.4715 -0.0749
 7799TIP3   OH244811   1.972   6.513   0.088 -0.6589 -0.3783 -0.2555
 7799TIP3    H144812   1.904   6.516   0.021 -3.3247 -3.0460  2.0291
 7799TIP3    H244813   2.008   6.424   0.081 -0.8364 -0.6274  1.6491
 7800TIP3   OH244814   2.129   4.270   2.384 -0.1847  0.1735  0.4265
 7800TIP3    H144815   2.139   4.214   2.307 -3.3960  0.6827 -0.5084
 7800TIP3    H244816   2.148   4.358   2.351 -1.2926  0.3571  0.2431
 7801TIP3   OH244817   6.606   4.395  10.707  0.5057  0.2216  0.0059
 7801TIP3    H144818   6.700   4.386  10.724  0.6462 -0.8265 -1.1754
 7801TIP3    H244819   6.567   4.315  10.741  0.0007  0.6932  0.5773
 7802TIP3   OH244820   5.468   5.904  14.170  0.3532  0.7130  0.5356
 7802TIP3    H144821   5.536   5.837  14.162  1.0375  1.2744  1.4476
 7802TIP3    H244822   5.480   5.960  14.094 -0.5798 -0.4867 -0.5396
 7803TIP3   OH244823   6.364   2.715  12.593  0.2045  0.1457  0.1569
 7803TIP3    H144824   6.332   2.798  12.557  0.0630 -0.3149 -0.8026
 7803TIP3    H244825   6.419   2.678  12.523  0.0707 -0.6854  0.4823
 7804TIP3   OH244826   6.659   1.296   0.397 -0.3842 -0.8901  0.0849
 7804TIP3    H144827   6.609   1.304   0.478 -0.0228  1.0453  0.1575
 7804TIP3    H244828   6.728   1.362   0.404 -0.6701 -0.2920 -1.9864
 7805TIP3   OH244829   1.824   1.807  13.431  0.2292  0.0174 -0.4880
 7805TIP3    H144830   1.863   1.719  13.430  0.5507  0.1507 -1.8565
 7805TIP3    H244831   1.836   1.840  13.342  1.6034  2.1112  0.3865
 7806TIP3   OH244832   4.267   1.727  11.360 -0.1160  0.0122  0.3444
 7806TIP3    H144833   4.287   1.821  11.358  0.4173 -0.1039  0.2181
 7806TIP3    H244834   4.171   1.724  11.359 -0.1379  0.5291 -0.7966
 7807TIP3   OH244835   5.030   3.145   3.418  0.0940  0.5378 -0.6000
 7807TIP3    H144836   4.967   3.139   3.347 -1.1156 -0.7995  0.5160
 7807TIP3    H244837   4.978   3.174   3.494  0.6490 -1.1538  0.4811
 7808TIP3   OH244838   2.127   5.311   4.630 -0.1322  0.2794  0.3064
 7808TIP3    H144839   2.142   5.254   4.706 -0.2272  1.7457  1.4675
 7808TIP3    H244840   2.151   5.398   4.661  2.2090  0.6213 -2.1066
 7809TIP3   OH244841   4.628   3.585   3.616 -0.3721 -0.3542  0.5852
 7809TIP3    H144842   4.535   3.606   3.628  0.0550  1.2402  1.4362
 7809TIP3    H244843   4.628   3.503   3.566 -2.2350 -1.2630  1.9408
 7810TIP3   OH244844   2.905   1.767   4.477  0.0670  0.0257 -0.1328
 7810TIP3    H144845   2.829   1.747   4.533 -0.1072 -0.0594 -0.3949
 7810TIP3    H244846   2.922   1.860   4.491  1.2748 -0.4120  1.5788
 7811TIP3   OH244847   0.365   2.800   2.543 -0.4527  0.3548  0.1591
 7811TIP3    H144848   0.432   2.826   2.480 -0.5949  1.0060  0.2653
 7811TIP3    H244849   0.360   2.705   2.536  0.2907  0.3263 -0.0414
 7812TIP3   OH244850   2.944   6.125  13.797  0.0303 -0.7615 -0.3082
 7812TIP3    H144851   2.959   6.219  13.806 -0.0310 -0.7190 -0.6169
 7812TIP3    H244852   2.934   6.093  13.886 -0.9794 -0.3053 -0.2374
 7813TIP3   OH244853   0.612   5.721   3.347  0.0693  0.0790 -0.6787
 7813TIP3    H144854   0.635   5.792   3.287  1.1983 -0.3728 -0.8212
 7813TIP3    H244855   0.566   5.764   3.419 -0.1496  0.8082 -1.2441
 7814TIP3   OH244856   3.609   1.108  13.131 -0.1720 -0.3836 -0.0192
 7814TIP3    H144857   3.688   1.057  13.114 -0.7760 -1.6169  0.7773
 7814TIP3    H244858   3.540   1.043  13.139 -1.1996  0.6554 -0.2839
 7815TIP3   OH244859   0.678   0.598  15.968  0.4662 -0.4199 -0.1266
 7815TIP3    H144860   0.743   0.644  16.021 -0.5367 -0.2127  0.9687
 7815TIP3    H244861   0.610   0.663  15.952  1.4828  0.0450 -3.1577
 7816TIP3   OH244862   6.626   6.659   0.950 -0.8139 -0.2106 -0.3825
 7816TIP3    H144863   6.586   6.713   0.882  1.8472  1.8791 -0.4629
 7816TIP3    H244864   6.596   6.695   1.032  2.0287  2.6133 -0.3819
 7817TIP3   OH244865   3.990   2.958   0.305  0.4000  0.1003 -0.1722
 7817TIP3    H144866   3.968   3.003   0.223 -1.3811  1.2730  0.8997
 7817TIP3    H244867   4.032   3.024   0.359  1.1688 -0.5613  0.0751
 7818TIP3   OH244868   4.873   4.872  14.377  0.8437  0.5123 -0.0344
 7818TIP3    H144869   4.960   4.836  14.360  1.4313  2.6820 -2.1717
 7818TIP3    H244870   4.888   4.943  14.439  0.8657  1.7868 -1.4547
 7819TIP3   OH244871   3.481   0.869  15.179  0.0022  0.2593 -0.1903
 7819TIP3    H144872   3.572   0.859  15.208 -0.0931  1.3651  0.4908
 7819TIP3    H244873   3.483   0.946  15.122 -0.5408  0.3813 -0.0417
 7820TIP3   OH244874   3.398   5.004  10.977  0.7421 -0.5946 -0.6446
 7820TIP3    H144875   3.358   4.918  10.963 -0.4140 -0.2438  0.3182
 7820TIP3    H244876   3.449   4.994  11.058  0.5059 -0.3485 -0.4626
 7821TIP3   OH244877   2.789   1.495   5.287  0.1534  0.8816  0.2888
 7821TIP3    H144878   2.734   1.458   5.356  0.6009  0.8656  0.6389
 7821TIP3    H244879   2.874   1.509   5.328 -0.0855  2.6003  0.2753
 7822TIP3   OH244880   5.906   6.325  16.721 -0.4795  0.3379 -0.4330
 7822TIP3    H144881   5.887   6.300  16.812  0.6916  1.2187  0.0751
 7822TIP3    H244882   5.834   6.286  16.671  0.4792 -2.9239  0.4402
 7823TIP3   OH244883   1.437   5.693  11.583 -0.1534  0.0768  0.9657
 7823TIP3    H144884   1.435   5.777  11.629  0.9435  1.4610 -1.3467
 7823TIP3    H244885   1.457   5.716  11.493 -0.6336 -2.6409  0.0863
 7824TIP3   OH244886   5.250   0.942   4.679  0.5144 -0.1804 -0.3051
 7824TIP3    H144887   5.243   0.847   4.684 -1.1072 -0.0856 -0.1965
 7824TIP3    H244888   5.176   0.969   4.624  0.9816  1.0161 -0.3812
 7825TIP3   OH244889   4.991   0.646  16.300  0.0144  0.0125  0.2679
 7825TIP3    H144890   5.002   0.676  16.390 -1.2209 -0.5058  0.6133
 7825TIP3    H244891   4.896   0.632  16.291 -0.0539  1.2517 -1.4970
 7826TIP3   OH244892   5.396   1.128   5.583 -0.2401  0.3024  0.3721
 7826TIP3    H144893   5.487   1.128   5.553 -0.4228  2.9196 -0.4265
 7826TIP3    H244894   5.349   1.181   5.518 -2.1604 -0.1961  1.2802
 7827TIP3   OH244895   5.465   2.067   2.725 -0.0840 -0.0551  0.0602
 7827TIP3    H144896   5.400   2.110   2.670  1.0779  0.6362 -0.8161
 7827TIP3    H244897   5.432   2.076   2.814  0.3850  3.2490  0.0092
 7828TIP3   OH244898   4.409   3.620  12.429 -0.3823  0.1934 -0.3540
 7828TIP3    H144899   4.418   3.525  12.437 -0.9177  0.2094  0.5534
 7828TIP3    H244900   4.334   3.632  12.370 -0.1811  0.0525 -0.6388
 7829TIP3   OH244901   2.452   1.835   5.244 -0.4769  0.1844 -0.2934
 7829TIP3    H144902   2.432   1.742   5.234  0.0477 -0.0340  0.5178
 7829TIP3    H244903   2.545   1.843   5.220 -0.8204  0.7102 -1.4860
 7830TIP3   OH244904   0.033   5.817  13.132 -0.2778  0.1296  0.5868
 7830TIP3    H144905   0.020   5.722  13.127  0.1622  0.0753  0.4929
 7830TIP3    H244906   0.123   5.828  13.162  0.9239  0.4946 -2.7296
 7831TIP3   OH244907   4.924   5.228   0.676  0.3280  0.2669 -0.1693
 7831TIP3    H144908   4.976   5.288   0.623 -0.7638  0.6543 -0.8167
 7831TIP3    H244909   4.911   5.275   0.759 -1.1752  1.2815 -0.9479
 7832TIP3   OH244910   5.646   2.275   2.198  0.1299 -0.0639  0.0078
 7832TIP3    H144911   5.611   2.189   2.173 -0.2130  0.0412  0.1138
 7832TIP3    H244912   5.707   2.298   2.129  0.6151 -0.6280  0.2388
 7833TIP3   OH244913   0.367   3.341  14.905  0.0159  0.9198 -0.0402
 7833TIP3    H144914   0.404   3.267  14.952  1.8952  0.9266 -1.3901
 7833TIP3    H244915   0.355   3.409  14.972  2.8831  1.0451  0.4678
 7834TIP3   OH244916   3.698   0.715   4.288 -0.2373  0.0652  0.0060
 7834TIP3    H144917   3.747   0.737   4.368  0.3474 -1.7891  0.1939
 7834TIP3    H244918   3.765   0.684   4.227 -0.9209 -0.4178 -0.5086
 7835TIP3   OH244919   2.194   5.210  16.505 -0.2279 -0.3514 -0.2967
 7835TIP3    H144920   2.279   5.165  16.498 -0.5917 -0.8843 -1.5727
 7835TIP3    H244921   2.138   5.165  16.441 -1.8765 -0.8702  1.4052
 7836TIP3   OH244922   0.895   6.266   1.886 -0.0547 -0.8006 -0.4072
 7836TIP3    H144923   0.927   6.208   1.955 -0.3983  0.2365  0.6498
 7836TIP3    H244924   0.970   6.323   1.866 -0.4764  0.0477  0.3661
 7837TIP3   OH244925   3.718   0.900  10.989 -0.4611 -0.1057  0.2458
 7837TIP3    H144926   3.680   0.817  11.019 -1.4213  0.2195 -0.0347
 7837TIP3    H244927   3.643   0.958  10.977  0.0879  0.4043 -0.8367
 7838TIP3   OH244928   1.296   2.714   5.959  0.5488 -0.4019  0.5713
 7838TIP3    H144929   1.265   2.801   5.938  0.2519 -0.3629  1.1517
 7838TIP3    H244930   1.272   2.701   6.051  1.2289 -0.8102  0.7003
 7839TIP3   OH244931   2.361   6.703  12.299 -0.0203 -1.0026  0.0238
 7839TIP3    H144932   2.362   6.716  12.204  1.6304  0.1561  0.1791
 7839TIP3    H244933   2.270   6.718  12.324 -0.2913 -0.4088 -1.2504
 7840TIP3   OH244934   4.767   3.942   0.575  0.0475 -0.1559 -0.1851
 7840TIP3    H144935   4.743   4.026   0.537  1.6999 -0.4460 -2.0429
 7840TIP3    H244936   4.849   3.918   0.531 -0.0378 -2.4365  0.7427
 7841TIP3   OH244937   5.454   5.279  14.190 -0.0427  0.2368  0.3343
 7841TIP3    H144938   5.445   5.213  14.121  2.1264 -0.4467  0.6339
 7841TIP3    H244939   5.378   5.266  14.246 -1.3242  0.1318 -1.3383
 7842TIP3   OH244940   3.263   3.388   6.098 -0.3851 -0.2648 -0.1140
 7842TIP3    H144941   3.215   3.462   6.059  1.5514  0.8308 -0.5239
 7842TIP3    H244942   3.279   3.416   6.189  2.2186  0.8518 -0.8405
 7843TIP3   OH244943   4.454   5.095   4.280  0.1567 -0.3700  0.2181
 7843TIP3    H144944   4.384   5.097   4.345  0.6878  0.0648  0.7867
 7843TIP3    H244945   4.528   5.057   4.326  0.8279  0.8444  0.1671
 7844TIP3   OH244946   5.848   3.516   3.349 -0.0108 -0.5982  0.4126
 7844TIP3    H144947   5.902   3.437   3.346  0.2869 -0.4012  0.6503
 7844TIP3    H244948   5.824   3.525   3.441  0.9108  0.2377  0.5780
 7845TIP3   OH244949   0.743   3.417  15.662  0.1660 -0.2494  0.1732
 7845TIP3    H144950   0.804   3.428  15.589 -1.2358  0.2608 -0.9797
 7845TIP3    H244951   0.719   3.325  15.660  1.1257 -0.5333  0.8543
 7846TIP3   OH244952   3.677   1.507   5.750 -0.3457  0.6053  0.3174
 7846TIP3    H144953   3.730   1.565   5.804 -0.3587  0.5523  0.3876
 7846TIP3    H244954   3.618   1.566   5.703 -0.9652  0.5955  1.0477
 7847TIP3   OH244955   4.799   3.540  11.816 -0.2074 -0.4155  0.0916
 7847TIP3    H144956   4.869   3.483  11.784 -0.9182 -0.6989 -1.0192
 7847TIP3    H244957   4.777   3.595  11.741 -1.1033 -0.2635  0.4572
 7848TIP3   OH244958   4.019   5.546   3.413  0.4368 -0.3603 -0.4870
 7848TIP3    H144959   4.112   5.526   3.423  0.8231  0.9689 -1.1995
 7848TIP3    H244960   4.017   5.624   3.358 -1.1724 -1.4090 -2.0160
 7849TIP3   OH244961   0.777   5.369   0.851 -0.3710  0.2448  0.4743
 7849TIP3    H144962   0.780   5.276   0.875 -1.1379  0.7424  2.6726
 7849TIP3    H244963   0.722   5.372   0.773  0.1904 -1.2099 -0.0067
 7850TIP3   OH244964   2.733   6.081   4.773  0.7721 -0.7432 -0.0310
 7850TIP3    H144965   2.708   6.056   4.862  1.2974  0.1941  0.3961
 7850TIP3    H244966   2.684   6.021   4.716  1.4922 -2.2790  0.9116
 7851TIP3   OH244967   6.350   4.442   3.481  0.2387 -0.1009 -0.0723
 7851TIP3    H144968   6.284   4.440   3.411 -0.4893  0.8054  0.5624
 7851TIP3    H244969   6.356   4.351   3.511 -0.7807 -0.1944 -0.1083
 7852TIP3   OH244970   2.492   4.896  14.428 -0.0742 -0.1624  0.2770
 7852TIP3    H144971   2.422   4.901  14.493 -0.1780  1.7018  0.0590
 7852TIP3    H244972   2.474   4.966  14.366  1.2334 -0.5172 -0.5613
 7853TIP3   OH244973   6.193   3.109  17.259  0.0948 -0.0817 -0.2954
 7853TIP3    H144974   6.190   3.068  17.173 -1.4435 -0.2711 -0.1827
 7853TIP3    H244975   6.278   3.154  17.262 -0.4412  1.2157 -2.5074
 7854TIP3   OH244976   3.989   0.020   6.146 -0.0535 -1.0816  0.1732
 7854TIP3    H144977   4.052  -0.028   6.091 -1.1429 -1.8719 -0.4190
 7854TIP3    H244978   3.910  -0.033   6.143 -0.6976 -0.1967  1.0696
 7855TIP3   OH244979   3.172   4.670   1.620  0.2486  0.3703 -0.3659
 7855TIP3    H144980   3.110   4.614   1.666  1.1406 -0.1153  0.2913
 7855TIP3    H244981   3.121   4.744   1.590 -0.2882  0.9490  1.8557
 7856TIP3   OH244982   2.362   2.713  11.151 -0.4013 -0.6857  0.3584
 7856TIP3    H144983   2.328   2.634  11.194  0.2558 -2.0270 -1.4286
 7856TIP3    H244984   2.408   2.680  11.074 -0.7528  1.5282 -0.8824
 7857TIP3   OH244985   0.775   5.771   1.660  0.3935  0.5002 -0.2122
 7857TIP3    H144986   0.794   5.714   1.586  0.7821  0.4019 -0.0432
 7857TIP3    H244987   0.795   5.859   1.629  0.0900  0.5097 -0.3771
 7858TIP3   OH244988   5.417   4.958   5.140  0.4862  0.6452  0.4084
 7858TIP3    H144989   5.510   4.971   5.160  0.7227  1.6707 -1.2010
 7858TIP3    H244990   5.406   4.993   5.051 -1.2131 -0.4645  0.1362
 7859TIP3   OH244991   0.230   3.133   5.008 -0.0641  0.2882 -0.4187
 7859TIP3    H144992   0.258   3.218   5.043 -1.1940 -0.5245  2.8951
 7859TIP3    H244993   0.144   3.150   4.969 -0.7015  0.6082  1.0337
 7860TIP3   OH244994   3.219   0.979   2.833  0.1188  0.1043  0.4806
 7860TIP3    H144995   3.225   0.909   2.768 -1.0159  1.3751 -1.0762
 7860TIP3    H244996   3.299   0.970   2.884  1.6499 -0.3103 -1.8022
 7861TIP3   OH244997   2.549   1.179  13.243 -0.5396  0.6679 -0.4545
 7861TIP3    H144998   2.471   1.233  13.231 -0.5247  0.0530 -4.4865
 7861TIP3    H244999   2.618   1.226  13.195  0.7492 -0.4436  0.2521
 7862TIP3   OH245000   6.030   0.992  13.932  0.0033  0.1533 -0.0902
 7862TIP3    H145001   6.041   0.932  14.006  2.7026 -0.0338 -0.5457
 7862TIP3    H245002   6.119   1.010  13.902 -0.9067  1.8404 -2.0327
 7863TIP3   OH245003   4.779   0.344   2.193  0.3511 -0.0051  0.0390
 7863TIP3    H145004   4.750   0.421   2.241 -1.4887 -0.8038  0.2767
 7863TIP3    H245005   4.725   0.343   2.114  2.6702  0.7626 -1.7059
 7864TIP3   OH245006   3.355   2.837  12.633 -0.1503 -0.1266  0.1726
 7864TIP3    H145007   3.368   2.932  12.627 -0.5874 -0.0091  0.9649
 7864TIP3    H245008   3.291   2.826  12.703 -2.0902 -0.8557 -1.6473
 7865TIP3   OH245009   3.176   4.706   3.378  0.0097 -0.0909  0.1833
 7865TIP3    H145010   3.136   4.661   3.304 -1.1186 -0.0237  0.7323
 7865TIP3    H245011   3.230   4.639   3.421  1.2679  0.0588 -1.0939
 7866TIP3   OH245012   2.483   3.866  17.293  0.0662  0.0739 -0.4564
 7866TIP3    H145013   2.485   3.809  17.370  0.6011 -0.4902 -0.8749
 7866TIP3    H245014   2.415   3.931  17.312  0.3144  0.0438  0.5583
 7867TIP3   OH245015   0.660   3.244   3.338 -0.0504 -0.1249 -0.3056
 7867TIP3    H145016   0.588   3.206   3.388 -0.1815 -0.2927 -0.6212
 7867TIP3    H245017   0.730   3.257   3.402 -0.7002  0.9751  0.2239
 7868TIP3   OH245018   1.594   3.100   4.300  0.2312 -0.3203 -0.1011
 7868TIP3    H145019   1.660   3.062   4.358 -0.5297 -0.4367  0.6986
 7868TIP3    H245020   1.514   3.050   4.318 -0.4216  0.7116 -0.0798
 7869TIP3   OH245021   4.550   2.868  14.176 -0.5166  0.0316  0.9343
 7869TIP3    H145022   4.492   2.932  14.135  0.9444  1.1912  0.6040
 7869TIP3    H245023   4.538   2.788  14.124 -2.9027 -0.2501  1.7998
 7870TIP3   OH245024   4.042   3.833   2.642  0.2146 -0.0507 -0.3499
 7870TIP3    H145025   3.966   3.782   2.670 -0.2832  0.6341 -0.4178
 7870TIP3    H245026   4.040   3.827   2.546  0.3184 -0.1281 -0.3477
 7871TIP3   OH245027   2.739   2.064  15.211 -0.3571  0.1473  0.4984
 7871TIP3    H145028   2.817   2.111  15.181  0.4136 -0.0370  2.1040
 7871TIP3    H245029   2.773   1.989  15.260 -1.5458 -0.3209  0.6482
 7872TIP3   OH245030   0.393   4.531  14.177 -1.1042  0.0423 -0.1010
 7872TIP3    H145031   0.378   4.578  14.095  0.1918 -1.4199 -1.2580
 7872TIP3    H245032   0.305   4.516  14.212 -1.8432 -0.6729 -2.0801
 7873TIP3   OH245033   5.332   3.414  12.383 -0.3253  0.3278  0.2248
 7873TIP3    H145034   5.311   3.421  12.476 -1.3507 -0.5873  0.0853
 7873TIP3    H245035   5.343   3.320  12.368  1.4618  0.5845 -0.2594
 7874TIP3   OH245036   0.593   5.785  17.039  0.1062  0.2472  0.1264
 7874TIP3    H145037   0.608   5.814  17.129  0.5509  1.7623 -0.3996
 7874TIP3    H245038   0.517   5.835  17.010 -0.4328 -0.7128 -0.1381
 7875TIP3   OH245039   0.303   4.338  11.386  0.5317  0.2113 -0.2066
 7875TIP3    H145040   0.308   4.333  11.291 -0.2694 -0.4950 -0.2317
 7875TIP3    H245041   0.338   4.254  11.417 -2.8148 -1.3241 -0.0972
 7876TIP3   OH245042   1.591   1.475   5.998 -0.0996 -0.3919 -0.2114
 7876TIP3    H145043   1.514   1.502   6.047  0.5746  0.0438  0.6440
 7876TIP3    H245044   1.571   1.387   5.967 -1.4532  0.2054 -1.1503
 7877TIP3   OH245045   6.596   2.781   0.360  0.0392  0.1497 -0.1750
 7877TIP3    H145046   6.645   2.704   0.332  0.9064  0.8594 -0.6064
 7877TIP3    H245047   6.642   2.812   0.438 -1.2746 -0.7123  1.0145
 7878TIP3   OH245048   0.094   0.098  10.729 -0.3867  0.6998 -0.2932
 7878TIP3    H145049   0.108   0.184  10.690 -0.3896  1.8912  2.1857
 7878TIP3    H245050  -0.000   0.083  10.721 -0.2027  0.2165 -2.0154
 7879TIP3   OH245051   2.098   2.165   4.205  0.3070 -0.0455  0.5386
 7879TIP3    H145052   2.090   2.124   4.119  3.3374 -2.8859  1.4120
 7879TIP3    H245053   2.016   2.145   4.249  0.4133 -2.5075 -0.2402
 7880TIP3   OH245054   4.534   6.672   2.637 -0.2786  0.0325  0.4742
 7880TIP3    H145055   4.444   6.684   2.606 -0.2944 -0.4467  0.3339
 7880TIP3    H245056   4.578   6.627   2.565 -0.3501 -1.2141  1.1859
 7881TIP3   OH245057   4.444   2.153  15.846 -0.3640 -0.4643  0.1168
 7881TIP3    H145058   4.509   2.193  15.788 -2.0090  2.3019  0.0302
 7881TIP3    H245059   4.396   2.092  15.789 -0.3625  0.3642 -0.7932
 7882TIP3   OH245060   2.145   4.153   5.602 -0.1013  0.0739 -0.1008
 7882TIP3    H145061   2.223   4.139   5.548  1.1470  0.8590  1.3847
 7882TIP3    H245062   2.155   4.091   5.675 -0.5933  0.5399  0.3728
 7883TIP3   OH245063   3.188   6.030   5.491 -0.2262  0.7341  1.0158
 7883TIP3    H145064   3.233   6.037   5.575  1.9461  0.1258 -0.0186
 7883TIP3    H245065   3.196   5.938   5.467  0.8313  1.2106 -0.6626
 7884TIP3   OH245066   1.481   2.179   0.266  0.2166  0.3714  0.0337
 7884TIP3    H145067   1.398   2.168   0.219  0.4034  0.0342 -0.2265
 7884TIP3    H245068   1.513   2.265   0.238 -0.0995  0.5550  0.2256
 7885TIP3   OH245069   1.235   4.452   0.254  0.6942  0.3870 -0.2867
 7885TIP3    H145070   1.263   4.365   0.225 -0.1967  0.2261 -0.7097
 7885TIP3    H245071   1.240   4.447   0.350  3.8201  0.9877 -0.3173
 7886TIP3   OH245072   1.833   4.984   4.193 -0.3524 -0.4368  0.2962
 7886TIP3    H145073   1.879   5.027   4.265  2.0365  0.2255 -1.4745
 7886TIP3    H245074   1.747   5.026   4.191 -0.1759  0.1317  2.1724
 7887TIP3   OH245075   3.794   4.647   4.584  0.1879 -0.7468 -0.5614
 7887TIP3    H145076   3.770   4.613   4.498 -1.1767 -1.0531 -0.0805
 7887TIP3    H245077   3.711   4.654   4.631  0.8381  0.0818  0.4978
 7888TIP3   OH245078   3.836   4.241   2.338  0.3226 -0.0375  0.1970
 7888TIP3    H145079   3.868   4.172   2.397  1.2564  0.7833  0.6908
 7888TIP3    H245080   3.909   4.303   2.333 -1.0689  1.7504  1.0710
 7889TIP3   OH245081   5.650   4.116   4.163 -0.3997  0.3639 -0.4612
 7889TIP3    H145082   5.678   4.037   4.117 -0.1935 -0.1871  0.5860
 7889TIP3    H245083   5.692   4.110   4.249 -0.3463  1.6372 -0.3763
 7890TIP3   OH245084   0.125   3.862   3.449  0.1992 -0.1009  0.5958
 7890TIP3    H145085   0.044   3.844   3.401 -1.3298  0.9192  2.6819
 7890TIP3    H245086   0.176   3.781   3.441 -0.3178 -0.2643 -1.9585
 7891TIP3   OH245087   3.380   5.385  14.477 -0.1350  0.3956  0.2638
 7891TIP3    H145088   3.285   5.387  14.488 -0.4780 -2.1116 -1.2754
 7891TIP3    H245089   3.396   5.437  14.398 -0.6260 -1.3150 -1.0269
 7892TIP3   OH245090   0.271   3.342   0.608 -0.4224 -0.5846  0.1781
 7892TIP3    H145091   0.316   3.313   0.528  0.9916  1.8111  0.0244
 7892TIP3    H245092   0.255   3.435   0.594 -1.3420 -0.4089  2.1642
 7893TIP3   OH245093   0.804   6.099  13.519 -0.2953  0.3322 -0.6105
 7893TIP3    H145094   0.860   6.158  13.469  0.7138  1.9892  2.2784
 7893TIP3    H245095   0.865   6.038  13.561 -0.8522  0.4577  0.4268
 7894TIP3   OH245096   3.040   3.754  10.893  0.1048 -0.3369 -0.1097
 7894TIP3    H145097   3.080   3.744  10.979 -0.8889 -1.1619  0.2628
 7894TIP3    H245098   3.078   3.683  10.841 -0.2710 -0.6401  0.0244
 7895TIP3   OH245099   3.145   4.510   3.726 -0.2757  0.1864  0.2371
 7895TIP3    H145100   3.171   4.501   3.818 -1.4865  1.5566  0.7514
 7895TIP3    H245101   3.054   4.539   3.729  0.1055  1.7158 -1.3635
 7896TIP3   OH245102   5.986   6.590  11.781 -0.1170 -0.6270 -0.3046
 7896TIP3    H145103   6.062   6.638  11.811 -1.4544  1.0560  0.5783
 7896TIP3    H245104   5.964   6.630  11.697 -0.3684 -0.7171 -0.2831
 7897TIP3   OH245105   3.212   2.166  13.894  1.0261  0.2615 -0.0697
 7897TIP3    H145106   3.181   2.256  13.883  0.7963  0.4682  1.9710
 7897TIP3    H245107   3.299   2.167  13.854  0.7979  1.2337 -0.5856
 7898TIP3   OH245108   6.583   6.284  15.258  0.1821  0.3761  0.0270
 7898TIP3    H145109   6.666   6.300  15.303  0.0097 -0.7237  0.7607
 7898TIP3    H245110   6.606   6.229  15.184  0.5955  2.8634 -1.8170
 7899TIP3   OH245111   6.071   6.745   5.947 -0.0223  0.1059  0.1368
 7899TIP3    H145112   6.055   6.786   5.862  1.4225 -1.0017 -0.7161
 7899TIP3    H245113   5.997   6.687   5.961 -0.7672  1.0307  0.1283
 7900TIP3   OH245114   6.054   0.963  16.287  0.0777 -0.4422  0.2913
 7900TIP3    H145115   6.119   1.033  16.281 -1.4502  1.4489  3.1925
 7900TIP3    H245116   6.105   0.882  16.290  1.9718  0.5549 -1.9256
 7901TIP3   OH245117   0.825   1.868   0.111  0.3683  0.2957  0.1155
 7901TIP3    H145118   0.814   1.799   0.045 -0.6873 -0.3524  0.9466
 7901TIP3    H245119   0.919   1.882   0.115  0.4568  0.4469 -1.6186
 7902TIP3   OH245120   4.146   6.338  13.193 -0.2726 -0.0908  0.0456
 7902TIP3    H145121   4.177   6.367  13.107 -0.5855 -0.1809 -0.0979
 7902TIP3    H245122   4.083   6.269  13.174 -2.2017  1.5131  0.2283
 7903TIP3   OH245123   2.323   5.369  12.440 -0.1995  0.6409 -0.1080
 7903TIP3    H145124   2.251   5.422  12.407  0.0128 -0.3879 -2.3888
 7903TIP3    H245125   2.351   5.317  12.365  1.9600 -0.0640  1.1031
 7904TIP3   OH245126   1.514   2.003  14.028 -0.3054  0.1559 -0.7075
 7904TIP3    H145127   1.442   2.049  13.987 -0.3200 -0.7349 -1.7339
 7904TIP3    H245128   1.548   1.945  13.959  0.3001 -0.6677  0.2463
 7905TIP3   OH245129   3.878   1.744  10.867 -0.2508 -0.0909  0.3974
 7905TIP3    H145130   3.892   1.839  10.875  1.3570 -0.3649  1.1970
 7905TIP3    H245131   3.787   1.731  10.894 -0.8383  1.3232 -0.7454
 7906TIP3   OH245132   5.880   1.720  12.470 -0.2807 -0.2968  0.0095
 7906TIP3    H145133   5.896   1.814  12.473  0.1214 -0.3736  1.4766
 7906TIP3    H245134   5.786   1.710  12.480 -0.1485 -0.0612  1.9003
 7907TIP3   OH245135   1.521   6.676  13.647  0.0516 -0.4844 -0.3351
 7907TIP3    H145136   1.537   6.734  13.572  0.2780  1.2088  0.9442
 7907TIP3    H245137   1.571   6.716  13.719 -0.4930 -1.8075  0.8344
 7908TIP3   OH245138   4.451   5.551  13.924  0.1052  0.0738  0.1872
 7908TIP3    H145139   4.381   5.561  13.989 -1.9131 -0.4565 -1.7500
 7908TIP3    H245140   4.493   5.637  13.921 -0.2157  0.3095  1.6522
 7909TIP3   OH245141   4.978   0.439   4.610  0.3629 -0.0765  0.1495
 7909TIP3    H145142   5.034   0.405   4.539  0.8367 -1.5752  1.1948
 7909TIP3    H245143   4.965   0.531   4.587  1.4227 -0.2400 -1.3029
 7910TIP3   OH245144   4.665   3.131   4.990  0.0027  0.2495 -0.0866
 7910TIP3    H145145   4.735   3.087   5.038 -1.3181 -1.5953  0.2620
 7910TIP3    H245146   4.606   3.163   5.058 -1.8167 -2.2757 -0.3103
 7911TIP3   OH245147   1.276   5.956  11.872  0.1381 -0.1059  0.4484
 7911TIP3    H145148   1.260   6.038  11.918 -0.9223 -0.3588  0.5523
 7911TIP3    H245149   1.189   5.926  11.845  0.6776 -0.2772 -1.1908
 7912TIP3   OH245150   2.234   4.868  15.825  0.5442  0.2261 -0.2190
 7912TIP3    H145151   2.157   4.833  15.868 -0.0990  0.6519 -1.0027
 7912TIP3    H245152   2.293   4.892  15.897 -0.5684  1.0588  0.4409
 7913TIP3   OH245153   5.575   3.954   0.634  0.5340 -0.1026  0.1016
 7913TIP3    H145154   5.661   3.982   0.666  0.3442  1.6568 -0.8177
 7913TIP3    H245155   5.578   3.969   0.540 -1.0243  0.7312  0.1490
 7914TIP3   OH245156   3.140   5.139  16.120  0.3121  0.5289  0.3772
 7914TIP3    H145157   3.222   5.107  16.083 -0.0625  1.1567 -1.1006
 7914TIP3    H245158   3.117   5.075  16.188  0.8576 -0.9243 -0.7449
 7915TIP3   OH245159   4.944   6.230  13.314 -0.2777  0.5153 -0.5264
 7915TIP3    H145160   5.028   6.190  13.291  1.0904  2.5701  0.5513
 7915TIP3    H245161   4.962   6.277  13.396 -2.6705  0.4977  0.0769
 7916TIP3   OH245162   3.546   3.757   3.141 -0.2424 -0.2719  0.4511
 7916TIP3    H145163   3.495   3.705   3.204  0.5242 -0.3242  1.0459
 7916TIP3    H245164   3.632   3.716   3.141 -0.7537 -1.5867 -2.1914
 7917TIP3   OH245165   4.493   4.616  16.407 -0.5951  0.7900 -0.3071
 7917TIP3    H145166   4.486   4.595  16.500 -1.4561 -2.0980 -0.9297
 7917TIP3    H245167   4.552   4.691  16.404 -0.9178  1.2700  2.5720
 7918TIP3   OH245168   0.093   2.061   5.815 -0.0170  0.0562  0.5025
 7918TIP3    H145169   0.079   2.153   5.838  0.3097  0.1547  0.3252
 7918TIP3    H245170   0.177   2.061   5.768  0.2243 -0.3997  0.9263
 7919TIP3   OH245171   2.597   5.712   3.254 -0.0384  0.5376  0.0449
 7919TIP3    H145172   2.532   5.651   3.221 -0.0421  1.3370 -1.5387
 7919TIP3    H245173   2.547   5.788   3.284  0.0982  0.6627 -0.0398
 7920TIP3   OH245174   6.081   0.049  10.749  0.3880  0.1213 -0.0584
 7920TIP3    H145175   6.063   0.117  10.684  0.1863  0.5899  0.4801
 7920TIP3    H245176   6.108  -0.027  10.697 -2.1975 -0.3340 -0.8815
 7921TIP3   OH245177   0.842   1.796  13.113 -0.0619 -0.6381 -0.1842
 7921TIP3    H145178   0.872   1.743  13.187  0.2449 -1.0495 -0.5938
 7921TIP3    H245179   0.899   1.873  13.113 -1.2977  0.3134  1.1516
 7922TIP3   OH245180   3.557   1.410   1.646  0.5889 -0.1358 -0.2698
 7922TIP3    H145181   3.652   1.406   1.655  0.6742 -0.6444 -1.2327
 7922TIP3    H245182   3.532   1.491   1.690  1.5080  0.1805 -0.3065
 7923TIP3   OH245183   4.746   0.505  12.127  0.1930 -0.0653  0.1295
 7923TIP3    H145184   4.793   0.567  12.073 -0.2935 -0.7006 -1.0613
 7923TIP3    H245185   4.733   0.429  12.071 -1.2074 -0.3578  0.7989
 7924TIP3   OH245186   1.775   1.839   5.505  0.7803 -0.3281 -0.2202
 7924TIP3    H145187   1.846   1.876   5.559  1.1533 -1.6581  0.2413
 7924TIP3    H245188   1.801   1.857   5.415  1.2431  0.0231 -0.0196
 7925TIP3   OH245189   4.017   5.693  13.592 -0.6934 -0.6542 -0.3970
 7925TIP3    H145190   3.931   5.650  13.598 -0.6411 -0.5712  2.3391
 7925TIP3    H245191   4.002   5.781  13.627  0.2439 -0.1730 -1.1736
 7926TIP3   OH245192   4.345   4.417  11.594 -0.3786  0.3398 -0.5558
 7926TIP3    H145193   4.290   4.380  11.664  0.6112 -1.1830 -0.5410
 7926TIP3    H245194   4.287   4.477  11.547 -1.4022  0.5022  0.8297
 7927TIP3   OH245195   0.240   6.015   1.643 -0.0437 -0.9236 -0.7667
 7927TIP3    H145196   0.147   6.010   1.619  0.5691 -2.1689 -3.2125
 7927TIP3    H245197   0.262   6.108   1.635 -1.1371 -0.5817  0.0978
 7928TIP3   OH245198   3.886   5.930   1.401 -0.1897 -0.9177 -0.4857
 7928TIP3    H145199   3.943   5.883   1.339  1.4842 -0.1664  0.4178
 7928TIP3    H245200   3.911   6.022   1.392 -0.2354 -0.7410  0.9389
 7929TIP3   OH245201   3.967   2.057  11.044 -0.4684 -0.6848  0.3795
 7929TIP3    H145202   3.878   2.092  11.049 -0.3434 -0.3211  0.0954
 7929TIP3    H245203   3.979   2.032  10.953 -0.5434 -1.4520  0.5741
 7930TIP3   OH245204   5.403   5.408   4.070 -0.1855 -0.1044  0.5044
 7930TIP3    H145205   5.439   5.484   4.024 -0.9211  0.3220  0.6183
 7930TIP3    H245206   5.467   5.389   4.139  0.5559 -0.2894 -0.2186
 7931TIP3   OH245207   2.551   3.301  12.634 -0.1346 -0.4599  0.2468
 7931TIP3    H145208   2.541   3.391  12.667  1.3411  0.6700 -2.0528
 7931TIP3    H245209   2.468   3.282  12.591 -0.1160  0.2213 -0.1055
 7932TIP3   OH245210   0.485   2.965   0.672 -0.2826 -0.1565 -0.6882
 7932TIP3    H145211   0.542   2.966   0.749 -0.6996 -0.6301 -0.3708
 7932TIP3    H245212   0.490   3.055   0.638  0.4126 -0.1159 -0.4908
 7933TIP3   OH245213   0.877   5.813   0.884 -0.5855 -0.0200 -0.3164
 7933TIP3    H145214   0.968   5.839   0.900 -0.1379 -0.0367 -2.4539
 7933TIP3    H245215   0.865   5.734   0.937 -0.1461  1.2608  1.8133
 7934TIP3   OH245216   0.108   0.686  14.531 -0.0709  0.2064 -0.0319
 7934TIP3    H145217   0.024   0.657  14.566 -0.5000 -0.1151 -1.2786
 7934TIP3    H245218   0.109   0.653  14.441  1.0231  0.9392 -0.3042
 7935TIP3   OH245219   1.231   5.121  14.273 -0.0188 -0.1256  0.1746
 7935TIP3    H145220   1.164   5.188  14.262 -0.1698 -0.2086  0.5565
 7935TIP3    H245221   1.211   5.082  14.358  1.5870  1.1005  1.1749
 7936TIP3   OH245222   1.572   3.301  13.588 -0.0529  0.1841  0.4631
 7936TIP3    H145223   1.602   3.389  13.568 -0.3029  0.0119 -0.7645
 7936TIP3    H245224   1.611   3.281  13.673  0.0720  1.4353  0.7185
 7937TIP3   OH245225   1.196   6.153  12.977  0.0862  0.3522 -0.0669
 7937TIP3    H145226   1.139   6.150  13.054 -1.2507  0.0661 -1.0355
 7937TIP3    H245227   1.223   6.062  12.963  1.4931  0.5944  0.8695
 7938TIP3   OH245228   4.021   3.894   2.194  0.1054  0.4222 -0.2025
 7938TIP3    H145229   4.053   3.843   2.119  0.8567  0.8485 -0.1820
 7938TIP3    H245230   3.997   3.828   2.259  2.2513  0.0714  0.3055
 7939TIP3   OH245231   0.049   5.434   0.443  0.3276 -0.5107 -0.5756
 7939TIP3    H145232   0.093   5.403   0.522 -1.3377 -0.5690  0.3728
 7939TIP3    H245233   0.098   5.512   0.418 -0.3026  0.7256  1.7350
 7940TIP3   OH245234   1.127   1.596   4.576 -0.0087  0.3838 -0.2107
 7940TIP3    H145235   1.219   1.575   4.559 -0.2687 -0.3897 -0.7111
 7940TIP3    H245236   1.129   1.645   4.658  0.8983  0.8355 -0.4840
 7941TIP3   OH245237   5.977   2.920  16.474 -0.2648  0.4372 -0.4522
 7941TIP3    H145238   5.924   2.889  16.547  0.1472  1.8199  0.4750
 7941TIP3    H245239   5.989   3.014  16.490  1.2310  0.4514 -1.3994
 7942TIP3   OH245240   5.635   4.089  12.744 -0.0256 -0.7688 -0.3895
 7942TIP3    H145241   5.558   4.090  12.687  0.6525  2.1089 -1.4344
 7942TIP3    H245242   5.603   4.055  12.827 -1.8996 -1.6982 -1.4394
 7943TIP3   OH245243   0.959   6.475   4.542  0.4814 -0.4217  0.1853
 7943TIP3    H145244   0.925   6.519   4.464 -1.6778 -1.0290  0.7141
 7943TIP3    H245245   0.887   6.479   4.605  1.5740 -1.4253  1.5618
 7944TIP3   OH245246   1.960   5.978   1.968  0.1576  0.1850  0.1665
 7944TIP3    H145247   2.017   5.910   1.932 -0.7429 -0.8264  0.6194
 7944TIP3    H245248   1.872   5.942   1.963 -0.7103  2.3740 -2.0537
 7945TIP3   OH245249   6.427   4.208  14.344 -0.3614 -0.2621 -0.0142
 7945TIP3    H145250   6.430   4.299  14.373  1.4048  0.2960 -1.6940
 7945TIP3    H245251   6.478   4.161  14.410  2.7362  0.8137 -1.4531
 7946TIP3   OH245252   2.982   4.523  13.565  0.4868  0.3256  0.2581
 7946TIP3    H145253   2.986   4.452  13.630 -2.9250  0.1158  0.4382
 7946TIP3    H245254   3.014   4.600  13.612  1.0118 -0.4347  1.1817
 7947TIP3   OH245255   2.988   2.614  13.704 -0.0145  0.4254  0.3332
 7947TIP3    H145256   3.030   2.664  13.634 -0.1889 -1.2215 -0.9890
 7947TIP3    H245257   2.931   2.678  13.748  1.5679  1.9527  0.2575
 7948TIP3   OH245258   0.535   3.228   5.773  0.3682  0.1782  0.0238
 7948TIP3    H145259   0.497   3.193   5.693  0.5836 -0.8135  0.3520
 7948TIP3    H245260   0.479   3.303   5.794 -0.5234 -0.3738 -0.3091
 7949TIP3   OH245261   2.531   3.658  16.691  0.4162 -0.0214 -0.2588
 7949TIP3    H145262   2.612   3.613  16.715  1.5804  0.8488 -2.2751
 7949TIP3    H245263   2.467   3.588  16.679  0.2943 -0.6297  3.0157
 7950TIP3   OH245264   3.558   0.652   2.174  0.4461  0.0177 -0.1207
 7950TIP3    H145265   3.474   0.632   2.216  0.1393 -1.5182 -1.3865
 7950TIP3    H245266   3.612   0.575   2.191  0.6027 -0.2699 -1.7467
 7951TIP3   OH245267   3.401   0.890   6.653  0.6106 -0.8606  0.2558
 7951TIP3    H145268   3.318   0.936   6.643  0.2210 -1.0581  2.1794
 7951TIP3    H245269   3.463   0.942   6.602 -0.1675  0.8242  0.9435
 7952TIP3   OH245270   5.124   4.554  14.047 -0.2798 -0.0092 -0.4546
 7952TIP3    H145271   5.098   4.643  14.073 -1.2501  0.2374 -2.1096
 7952TIP3    H245272   5.201   4.568  13.991  0.1820 -0.3077  0.1004
 7953TIP3   OH245273   3.855   1.025  12.667  0.5304  0.2459 -1.0037
 7953TIP3    H145274   3.814   1.109  12.649 -1.6833 -0.1890  1.4377
 7953TIP3    H245275   3.906   1.040  12.747  1.7874 -0.2903 -1.6626
 7954TIP3   OH245276   2.676   3.859   1.450  0.3695  0.2112 -0.0970
 7954TIP3    H145277   2.646   3.925   1.388 -0.7204  0.2769  0.4627
 7954TIP3    H245278   2.736   3.905   1.508  0.5531  0.4108 -0.4438
 7955TIP3   OH245279   3.718   3.120   5.275 -0.3476  0.2756  1.1443
 7955TIP3    H145280   3.799   3.074   5.297 -0.2568 -0.0946  0.0868
 7955TIP3    H245281   3.694   3.167   5.355  1.1608  0.7726  1.3305
 7956TIP3   OH245282   3.131   2.604   5.940 -0.3678 -0.5536 -0.1210
 7956TIP3    H145283   3.101   2.560   6.019 -0.3718 -1.4573 -0.6106
 7956TIP3    H245284   3.212   2.649   5.967 -0.5843 -0.5116  0.4826
 7957TIP3   OH245285   1.748   0.020  15.002  0.2296 -0.1028  0.5288
 7957TIP3    H145286   1.832  -0.017  14.976  0.9018  0.8291  1.3065
 7957TIP3    H245287   1.740   0.101  14.950 -0.9412 -0.9624 -0.7066
 7958TIP3   OH245288   3.633   0.260   3.007 -0.1654  0.0338 -0.0372
 7958TIP3    H145289   3.625   0.287   3.099 -1.2420 -1.0020  0.2103
 7958TIP3    H245290   3.658   0.167   3.012 -0.0251  0.0253 -0.7921
 7959TIP3   OH245291   5.326   0.088   6.215  0.4357  0.0295  0.1615
 7959TIP3    H145292   5.297   0.003   6.179  0.1200  0.9193 -1.8323
 7959TIP3    H245293   5.264   0.107   6.284  0.0290 -0.9942  0.1010
 7960TIP3   OH245294   3.243   0.796  11.240  0.1524 -0.8756 -0.0819
 7960TIP3    H145295   3.255   0.890  11.232 -0.1895 -0.8224  0.0441
 7960TIP3    H245296   3.193   0.772  11.162  1.3465 -1.1518 -0.7880
 7961TIP3   OH245297   0.399   4.311  16.626  0.1078 -0.3756 -0.0254
 7961TIP3    H145298   0.336   4.272  16.565  0.2042  0.2620 -0.5405
 7961TIP3    H245299   0.397   4.254  16.702 -1.4850 -0.0697  0.1761
 7962TIP3   OH245300   4.402   0.359  12.575  0.3044  0.1674 -0.0071
 7962TIP3    H145301   4.371   0.412  12.649 -1.4177 -1.9293  0.8865
 7962TIP3    H245302   4.331   0.364  12.511  1.2575  0.9705 -1.0346
 7963TIP3   OH245303   4.481   5.272  12.081 -0.2455  0.2622 -0.0545
 7963TIP3    H145304   4.527   5.193  12.053  0.9695  0.8796  0.1240
 7963TIP3    H245305   4.395   5.241  12.110 -0.2540 -0.8146 -1.1814
 7964TIP3   OH245306   3.969   0.379  16.273 -0.1437 -0.4603  0.4389
 7964TIP3    H145307   3.874   0.370  16.267 -0.2018 -1.5762  2.2638
 7964TIP3    H245308   3.982   0.463  16.317 -0.2761 -0.2585  0.0970
 7965TIP3   OH245309   2.819   3.610   3.327 -0.0264 -0.0650 -0.1910
 7965TIP3    H145310   2.804   3.677   3.260 -0.4395 -1.2747 -1.3361
 7965TIP3    H245311   2.868   3.656   3.395 -2.1437  1.9917  0.0882
 7966TIP3   OH245312   2.175   5.722  12.514  0.0445  0.7019  0.1691
 7966TIP3    H145313   2.205   5.670  12.589 -0.3989  0.7447  0.3816
 7966TIP3    H245314   2.121   5.662  12.463 -1.1600  1.1656  0.8578
 7967TIP3   OH245315   4.691   6.047   3.800 -0.2386 -0.1609 -0.3927
 7967TIP3    H145316   4.679   6.033   3.706 -1.2442  0.1561 -0.3174
 7967TIP3    H245317   4.786   6.054   3.811  0.0000 -1.7669 -1.1544
 7968TIP3   OH245318   1.737   1.297   1.653 -0.2843 -0.8530 -0.1929
 7968TIP3    H145319   1.715   1.281   1.561 -1.3928  1.2058 -0.3453
 7968TIP3    H245320   1.825   1.334   1.650 -0.0210 -1.4850 -0.3511
 7969TIP3   OH245321   1.601   2.219   2.434 -0.0957 -0.0204 -0.2999
 7969TIP3    H145322   1.506   2.210   2.435 -0.0809 -0.3165 -1.1951
 7969TIP3    H245323   1.616   2.305   2.394  0.0381 -0.5072 -1.3200
 7970TIP3   OH245324   3.127   3.007  12.722 -0.1277 -0.1238 -0.0938
 7970TIP3    H145325   3.196   3.041  12.778 -0.1563 -1.2914  0.6962
 7970TIP3    H245326   3.056   2.985  12.782 -1.4797  1.6734 -0.9612
 7971TIP3   OH245327   3.694   5.594  16.802 -0.2557 -0.2464 -0.0715
 7971TIP3    H145328   3.706   5.658  16.872 -1.4698  1.3714 -1.2646
 7971TIP3    H245329   3.754   5.622  16.733  0.2602 -1.2908 -0.0789
 7972TIP3   OH245330   3.339   0.956   4.765  0.0865 -0.6319 -0.1378
 7972TIP3    H145331   3.389   0.916   4.694  0.7883  1.5139 -0.9330
 7972TIP3    H245332   3.375   1.045   4.773 -0.9303 -0.3334  1.9696
 7973TIP3   OH245333   1.992   3.013   2.486 -0.0380 -0.2424  0.3134
 7973TIP3    H145334   2.004   2.983   2.576  0.2465  1.2901  0.8044
 7973TIP3    H245335   1.982   2.932   2.435  1.6914 -1.2046  1.4273
 7974TIP3   OH245336   4.164   3.040   2.308  0.1718  0.2551  0.1254
 7974TIP3    H145337   4.133   3.090   2.383  1.0580 -1.1411  1.4864
 7974TIP3    H245338   4.260   3.048   2.311  0.2264  0.0772 -0.7789
 7975TIP3   OH245339   4.712   3.148   2.012  0.2131 -0.5331  0.7325
 7975TIP3    H145340   4.759   3.076   1.971  1.3903  0.3050  0.5670
 7975TIP3    H245341   4.735   3.143   2.105  0.4786 -0.2261  0.6820
 7976TIP3   OH245342   4.939   5.512  13.572  0.1828  0.1002  0.6623
 7976TIP3    H145343   4.847   5.491  13.588 -0.1426  0.7963 -0.2212
 7976TIP3    H245344   4.945   5.523  13.477  1.0519  0.6260  0.7659
 7977TIP3   OH245345   2.289   3.648  12.232 -0.4203  0.5605 -1.1362
 7977TIP3    H145346   2.233   3.587  12.281  0.0678  0.0733 -1.1815
 7977TIP3    H245347   2.373   3.645  12.277 -0.5052  1.5176 -0.8903
 7978TIP3   OH245348   2.062   4.723   0.720 -0.0753  0.5467 -0.1682
 7978TIP3    H145349   2.031   4.660   0.655  0.2161  0.4849 -0.2523
 7978TIP3    H245350   2.087   4.669   0.795 -1.1300  0.6794  0.2961
 7979TIP3   OH245351   5.303   1.207  13.509  0.5929 -0.4561 -0.2519
 7979TIP3    H145352   5.279   1.269  13.441  1.0472 -0.0307 -0.0247
 7979TIP3    H245353   5.390   1.175  13.485  0.4556 -0.8424 -0.2515
 7980TIP3   OH245354   0.123   0.011  12.450 -0.1165 -0.0354 -0.1882
 7980TIP3    H145355   0.168   0.041  12.371 -0.3631  0.4370 -0.1523
 7980TIP3    H245356   0.038  -0.020  12.418  0.7752 -2.4001 -0.4840
 7981TIP3   OH245357   3.518   3.226  14.328  0.7443  0.0589 -0.2743
 7981TIP3    H145358   3.539   3.194  14.415  0.6705 -0.0588 -0.2992
 7981TIP3    H245359   3.466   3.156  14.288 -1.5705  1.1803  0.5522
 7982TIP3   OH245360   0.699   4.154  12.142 -0.5629  0.4359 -0.9327
 7982TIP3    H145361   0.784   4.156  12.186 -0.6726 -0.5462 -0.6667
 7982TIP3    H245362   0.647   4.221  12.187 -1.2892 -1.7504  1.7228
 7983TIP3   OH245363   4.915   2.767   4.672 -0.2267  0.5008 -0.0302
 7983TIP3    H145364   4.964   2.849   4.665 -0.4960  0.6930  0.2643
 7983TIP3    H245365   4.899   2.741   4.581  2.9392 -1.1444 -0.2466
 7984TIP3   OH245366   5.403   3.188  15.831 -0.2501  0.1043  0.5244
 7984TIP3    H145367   5.416   3.283  15.834 -2.6076  0.5247 -0.4222
 7984TIP3    H245368   5.391   3.169  15.738 -0.4650 -1.0180  0.7733
 7985TIP3   OH245369   1.221   0.675  12.235 -0.0598  0.2551  0.1336
 7985TIP3    H145370   1.239   0.703  12.146  1.0117  1.6205  0.7411
 7985TIP3    H245371   1.126   0.677  12.243 -0.2961 -1.5791 -1.4564
 7986TIP3   OH245372   3.597   5.564   3.228  0.3168 -0.2274 -0.0388
 7986TIP3    H145373   3.665   5.497   3.225  0.3188 -0.3252  1.5174
 7986TIP3    H245374   3.642   5.646   3.209  0.3818 -0.5834 -1.5772
 7987TIP3   OH245375   2.709   5.711  14.763 -0.3554 -0.3266  0.5970
 7987TIP3    H145376   2.647   5.768  14.719 -1.0442 -1.4560  0.0798
 7987TIP3    H245377   2.663   5.627  14.773  0.5804 -0.7678  1.4590
 7988TIP3   OH245378   4.629   0.426  12.961  0.0160  0.0437 -0.7325
 7988TIP3    H145379   4.541   0.413  12.995  0.1939  1.8454  0.5806
 7988TIP3    H245380   4.618   0.428  12.866 -1.2835 -0.1737 -0.6035
 7989TIP3   OH245381   2.297   0.248  11.618  0.0520  0.4657 -0.0915
 7989TIP3    H145382   2.312   0.170  11.671 -1.9551  0.1351  0.0773
 7989TIP3    H245383   2.233   0.221  11.552 -0.3588  1.8512 -0.3079
 7990TIP3   OH245384   1.959   4.522   5.501  0.2976 -0.0724  0.5046
 7990TIP3    H145385   2.019   4.469   5.449 -0.6402 -1.1334  0.4585
 7990TIP3    H245386   1.945   4.601   5.449  1.3302  0.0090  0.3343
 7991TIP3   OH245387   3.129   4.186   4.644 -0.3955 -0.1108 -0.0561
 7991TIP3    H145388   3.223   4.183   4.629 -0.5792  0.6422 -1.5512
 7991TIP3    H245389   3.117   4.250   4.714  0.2712 -1.1051  0.9920
 7992TIP3   OH245390   4.393   0.910  13.837 -0.4679  0.1659 -0.2525
 7992TIP3    H145391   4.404   0.834  13.781  1.8330  0.0385  0.2552
 7992TIP3    H245392   4.454   0.975  13.802  0.8392  0.1691  1.8657
 7993TIP3   OH245393   6.091   3.036   2.227  0.9627  0.4216 -0.0703
 7993TIP3    H145394   6.120   3.051   2.317  0.3938  0.2449  0.1489
 7993TIP3    H245395   6.079   3.124   2.191 -1.2614  0.5468  0.8465
 7994TIP3   OH245396   2.614   0.578   3.859 -0.5025  0.4314 -0.1993
 7994TIP3    H145397   2.666   0.570   3.779  1.3359  0.0624  0.9965
 7994TIP3    H245398   2.639   0.663   3.896 -1.2273  0.5312  0.0840
 7995TIP3   OH245399   4.132   0.771  11.720 -0.0093  0.0238  0.3888
 7995TIP3    H145400   4.051   0.720  11.727 -0.7947  0.7621 -1.9721
 7995TIP3    H245401   4.197   0.710  11.686 -0.5528  0.1763 -1.0123
 7996TIP3   OH245402   1.768   4.279   3.531 -0.8912  0.5204  0.3038
 7996TIP3    H145403   1.746   4.205   3.587  0.6702 -1.1879 -1.2026
 7996TIP3    H245404   1.697   4.283   3.467 -0.8187  0.1155  0.1983
 7997TIP3   OH245405   6.672   1.707   0.491  0.2542 -0.1852 -0.5102
 7997TIP3    H145406   6.697   1.791   0.530  1.0825 -0.6337 -0.0362
 7997TIP3    H245407   6.606   1.730   0.425 -0.7109  0.6645  0.6974
 7998TIP3   OH245408   2.575   5.652  11.189 -0.3184 -0.1155  0.4757
 7998TIP3    H145409   2.607   5.742  11.185 -0.3502 -0.0315  1.6545
 7998TIP3    H245410   2.630   5.604  11.128  0.0665  0.6006  0.2446
 7999TIP3   OH245411   2.872   5.002  11.873  0.1434  0.3195  0.1173
 7999TIP3    H145412   2.850   5.094  11.887 -1.9368 -0.0932 -0.1976
 7999TIP3    H245413   2.789   4.959  11.856  1.1971 -1.4302 -0.9599
 8000TIP3   OH245414   6.747   0.840  13.253 -0.1214  0.5336 -0.2460
 8000TIP3    H145415   6.677   0.807  13.308  0.9036  2.2487  2.2588
 8000TIP3    H245416   6.827   0.820  13.301  0.8832  1.5977 -1.3860
 8001TIP3   OH245417   5.205   2.646  13.652  0.0869  0.5483  0.3725
 8001TIP3    H145418   5.217   2.622  13.560  0.3248  0.2474  0.4788
 8001TIP3    H245419   5.240   2.735  13.659  1.0385  0.1844  0.3888
 8002TIP3   OH245420   4.778   1.359   0.773 -0.1680 -0.3756 -0.3744
 8002TIP3    H145421   4.749   1.444   0.806 -1.2717  0.0452 -2.2594
 8002TIP3    H245422   4.873   1.368   0.765 -0.2162  0.5283 -0.1315
 8003TIP3   OH245423   4.933   3.903   4.208 -0.5077 -0.0258  0.0313
 8003TIP3    H145424   4.988   3.964   4.258 -0.4272 -0.4349  0.4493
 8003TIP3    H245425   4.970   3.817   4.226 -1.2357 -0.3027  0.2664
 8004TIP3   OH245426   5.291   2.115  13.156  0.2774  0.3613 -0.0503
 8004TIP3    H145427   5.330   2.041  13.202 -0.0094 -0.2141 -0.7085
 8004TIP3    H245428   5.267   2.177  13.224  1.5565  0.3489  0.4351
 8005TIP3   OH245429   0.024   4.680   2.092 -0.0116  0.6254  0.2195
 8005TIP3    H145430  -0.066   4.713   2.094 -0.1289  0.4736 -1.4270
 8005TIP3    H245431   0.076   4.755   2.062  0.3586  0.5872  0.7578
 8006TIP3   OH245432   0.454   2.862   1.811  0.6926 -0.2370 -0.4528
 8006TIP3    H145433   0.420   2.774   1.828  0.1011  0.4026  2.0327
 8006TIP3    H245434   0.396   2.920   1.860  2.8380  1.2877  0.4184
 8007TIP3   OH245435   2.015   3.549  16.205  0.7008 -0.3259 -0.3237
 8007TIP3    H145436   2.082   3.600  16.157  0.4148  1.4831  1.0800
 8007TIP3    H245437   1.949   3.614  16.228 -0.5545 -1.7086  0.0954
 8008TIP3   OH245438   4.473   3.183  11.825 -0.4858  0.2427 -0.2790
 8008TIP3    H145439   4.406   3.150  11.885 -0.1501 -0.1009 -0.0875
 8008TIP3    H245440   4.540   3.220  11.882 -0.1357 -0.1430 -0.4344
 8009TIP3   OH245441   3.067   0.501  14.945  0.3222 -1.2719  0.0627
 8009TIP3    H145442   3.157   0.525  14.921 -0.2007 -0.0970 -0.7964
 8009TIP3    H245443   3.078   0.431  15.009  1.9405  1.1211  2.6406
 8010TIP3   OH245444   0.193   5.708   6.493  0.5389 -0.7667 -0.2349
 8010TIP3    H145445   0.263   5.773   6.493  0.6290 -0.7819 -2.4202
 8010TIP3    H245446   0.128   5.743   6.431 -0.1446 -1.9833 -0.2348
 8011TIP3   OH245447   3.931   5.214   3.578  0.4128  0.3021 -0.5867
 8011TIP3    H145448   4.005   5.173   3.624 -0.2730  1.5159  1.7506
 8011TIP3    H245449   3.900   5.145   3.519  1.6379 -1.2366  0.4467
 8012TIP3   OH245450   1.638   3.503  14.388 -0.1453  0.1664  0.1583
 8012TIP3    H145451   1.686   3.578  14.424  0.8173 -0.0458 -0.6263
 8012TIP3    H245452   1.701   3.431  14.394 -1.5226 -0.9483  2.2024
 8013TIP3   OH245453   6.674   2.805   0.637 -0.3023  0.2789  0.2836
 8013TIP3    H145454   6.661   2.729   0.694 -0.2058 -0.4741 -0.6711
 8013TIP3    H245455   6.618   2.873   0.674 -1.9208 -0.8744  0.0224
 8014TIP3   OH245456   3.906   3.640   3.854  0.2012  0.0311 -0.0114
 8014TIP3    H145457   3.851   3.666   3.928  0.5782  0.0566  0.2585
 8014TIP3    H245458   3.968   3.712   3.843 -0.8283  0.7652 -1.3435
 8015TIP3   OH245459   2.219   6.347   2.048 -0.5528 -0.3252 -0.7649
 8015TIP3    H145460   2.262   6.346   1.962 -0.8986 -0.6114 -0.9380
 8015TIP3    H245461   2.290   6.331   2.110 -0.1532  0.7550 -0.9219
 8016TIP3   OH245462   0.477   2.202   5.317 -0.4269  0.0313  0.5158
 8016TIP3    H145463   0.547   2.230   5.375 -0.4091  1.2407 -0.0463
 8016TIP3    H245464   0.519   2.140   5.257 -0.2155 -0.4447  1.1420
 8017TIP3   OH245465   2.238   4.302   0.660 -0.7160 -0.2297  0.5587
 8017TIP3    H145466   2.149   4.314   0.628  0.0506 -1.0916 -2.1583
 8017TIP3    H245467   2.232   4.314   0.755 -3.5515  0.4789  0.3526
 8018TIP3   OH245468   1.946   5.493  15.934 -0.0147 -0.0824  0.0331
 8018TIP3    H145469   2.015   5.480  15.999  0.9101 -0.4663 -1.0180
 8018TIP3    H245470   1.971   5.572  15.887 -0.3434 -0.1637 -0.2836
 8019TIP3   OH245471   3.515   1.258  13.359 -0.2007 -0.6134  0.1571
 8019TIP3    H145472   3.508   1.349  13.330 -1.0520 -0.6042  0.3713
 8019TIP3    H245473   3.560   1.213  13.287  0.1299 -0.0487  0.0049
 8020TIP3   OH245474   4.991   3.365  15.212 -0.6152  0.2357 -0.4655
 8020TIP3    H145475   4.970   3.375  15.305 -1.0646  0.2942 -0.5723
 8020TIP3    H245476   4.990   3.454  15.178  0.2718  0.2847 -0.3749
 8021TIP3   OH245477   3.756   1.600   2.477  0.1903 -0.1522  0.3651
 8021TIP3    H145478   3.771   1.679   2.425 -1.1422  0.1756  0.4463
 8021TIP3    H245479   3.670   1.613   2.517  0.3751 -1.2197  1.1707
 8022TIP3   OH245480   4.065   3.853  16.978 -0.2930  0.1515  0.0987
 8022TIP3    H145481   3.982   3.831  16.938 -0.0872 -1.0864  0.3210
 8022TIP3    H245482   4.124   3.871  16.905  0.1697 -2.4080 -0.2277
 8023TIP3   OH245483   4.852   2.342   4.326 -0.1531  0.2174  0.3742
 8023TIP3    H145484   4.919   2.281   4.294  1.7125  2.4210 -0.2209
 8023TIP3    H245485   4.811   2.297   4.400  0.6241 -2.0037 -0.4805
 8024TIP3   OH245486   1.971   4.003   1.243  0.3499 -0.0027 -0.0793
 8024TIP3    H145487   2.062   4.014   1.215  0.3188 -1.1263 -0.6841
 8024TIP3    H245488   1.948   4.086   1.284  1.4067  0.5615 -0.5966
 8025TIP3   OH245489   2.453   2.308   1.226  0.2481 -0.2574 -0.1710
 8025TIP3    H145490   2.489   2.347   1.147  1.7606 -1.8270 -0.2925
 8025TIP3    H245491   2.384   2.369   1.253  0.4232  0.8518 -2.0745
 8026TIP3   OH245492   1.782   4.089  13.655 -0.4510 -0.0702 -0.1324
 8026TIP3    H145493   1.863   4.041  13.673 -0.2205  0.5160  0.4502
 8026TIP3    H245494   1.731   4.030  13.600  0.6107 -0.2182 -0.9968
 8027TIP3   OH245495   0.773   0.665  11.478  0.4345 -0.1284  0.4687
 8027TIP3    H145496   0.801   0.708  11.397  1.2223 -1.4372  0.0097
 8027TIP3    H245497   0.763   0.736  11.541  0.7344  0.8169 -0.5160
 8028TIP3   OH245498   2.359   3.721   0.640 -0.3378 -0.0928 -0.2434
 8028TIP3    H145499   2.421   3.766   0.583  1.0103 -1.0051  0.4268
 8028TIP3    H245500   2.382   3.750   0.728 -0.0396 -1.3428  0.1231
 8029TIP3   OH245501   5.256   4.322   2.234  0.2378  0.7572  0.4362
 8029TIP3    H145502   5.227   4.411   2.215 -0.4098 -0.2015 -4.3468
 8029TIP3    H245503   5.178   4.267   2.219  1.5872 -0.8994 -0.9821
 8030TIP3   OH245504   1.340   2.903   5.100  0.9610 -0.5216  0.1334
 8030TIP3    H145505   1.261   2.949   5.131  0.3039 -0.6671 -1.2580
 8030TIP3    H245506   1.412   2.947   5.144  0.2350  0.8781 -0.0192
 8031TIP3   OH245507   1.181   5.944  11.508  0.2671 -0.1865 -0.2944
 8031TIP3    H145508   1.180   5.893  11.427  0.9932  0.2975 -0.6165
 8031TIP3    H245509   1.144   5.885  11.573 -1.8657 -0.0430 -1.2811
 8032TIP3   OH245510   1.064   1.331   3.562 -0.3010 -0.3079  0.2963
 8032TIP3    H145511   1.029   1.364   3.645  0.9735 -3.5414  2.2931
 8032TIP3    H245512   0.988   1.291   3.519 -0.7621  0.4077  0.4355
 8033TIP3   OH245513   3.712   0.599   5.298  0.5307  0.2133  0.2230
 8033TIP3    H145514   3.638   0.560   5.345 -0.2169  3.1995  1.7056
 8033TIP3    H245515   3.676   0.624   5.213  0.6271 -0.8072 -0.1413
 8034TIP3   OH245516   2.032   1.537  11.535  0.0392 -0.0302 -0.0660
 8034TIP3    H145517   1.999   1.468  11.593 -1.4503 -0.3712 -1.2511
 8034TIP3    H245518   2.005   1.619  11.577 -0.7041 -0.2626 -0.0770
 8035TIP3   OH245519   1.810   1.002   4.677  0.3874 -0.1580  0.6100
 8035TIP3    H145520   1.841   1.069   4.616 -0.7262  0.2179  0.4357
 8035TIP3    H245521   1.869   0.928   4.663  1.1778  0.5156  0.2753
 8036TIP3   OH245522   6.219   3.602   5.960  0.2950  0.3204 -0.3225
 8036TIP3    H145523   6.138   3.632   6.000  0.7638 -0.4133  1.2285
 8036TIP3    H245524   6.194   3.581   5.869 -0.8806  1.5642 -0.3240
 8037TIP3   OH245525   5.776   1.479  14.862 -0.3215 -0.0728  0.0677
 8037TIP3    H145526   5.745   1.418  14.795  1.0551  0.1780 -0.8599
 8037TIP3    H245527   5.830   1.542  14.813 -0.2134  0.7931  1.2656
 8038TIP3   OH245528   4.026   5.750   5.207  0.2265  0.3683 -0.3701
 8038TIP3    H145529   4.012   5.668   5.254  0.2361  0.6647  0.1569
 8038TIP3    H245530   3.940   5.773   5.173  0.3891 -0.3196 -1.2978
 8039TIP3   OH245531   5.937   0.830   1.880  0.1224 -0.8129 -0.7516
 8039TIP3    H145532   5.851   0.791   1.887 -0.6173  0.5255 -1.8896
 8039TIP3    H245533   5.937   0.899   1.947  0.8777 -1.7524  0.2515
 8040TIP3   OH245534   4.034   6.067   3.686 -0.2775 -0.8571  0.6403
 8040TIP3    H145535   4.058   6.147   3.733  3.1510 -0.2379 -1.8249
 8040TIP3    H245536   3.939   6.060   3.700 -1.0211  4.1851  0.2799
 8041TIP3   OH245537   3.934   1.686   3.026  0.2961  0.3295  0.0054
 8041TIP3    H145538   4.027   1.679   3.048  0.5789 -2.2173 -1.6255
 8041TIP3    H245539   3.933   1.738   2.945  0.4026 -0.4189 -0.4816
 8042TIP3   OH245540   0.547   4.471  11.423 -0.1529 -0.1410 -0.6882
 8042TIP3    H145541   0.484   4.400  11.411 -0.1357 -0.3273  0.2467
 8042TIP3    H245542   0.615   4.434  11.481 -0.0287  0.5562 -0.3729
 8043TIP3   OH245543   5.373   4.197   1.982 -0.2028  0.1958  0.6594
 8043TIP3    H145544   5.453   4.158   1.949 -2.0708 -2.8740 -0.6685
 8043TIP3    H245545   5.364   4.165   2.072 -0.9325 -1.2238  0.1038
 8044TIP3   OH245546   2.752   2.520   0.869  0.0244  0.4273  0.0913
 8044TIP3    H145547   2.793   2.605   0.857  0.3779  0.7083  2.7747
 8044TIP3    H245548   2.810   2.458   0.825  2.7237  0.9759  2.6127
 8045TIP3   OH245549   3.486   1.224   0.446 -0.2018 -0.2667  0.2747
 8045TIP3    H145550   3.480   1.290   0.377  0.7398 -0.8591 -0.4042
 8045TIP3    H245551   3.444   1.146   0.408  3.2197 -1.6652 -1.0519
 8046TIP3   OH245552   4.463   2.755  16.367 -0.3046 -0.4427  0.5555
 8046TIP3    H145553   4.453   2.714  16.281  2.2993 -0.2868  0.0752
 8046TIP3    H245554   4.381   2.738  16.412 -1.3082 -1.5377 -1.5391
 8047TIP3   OH245555   4.219   6.045   0.780 -0.4743 -0.2119  0.4322
 8047TIP3    H145556   4.254   5.957   0.767 -0.9998 -0.3768  0.1200
 8047TIP3    H245557   4.296   6.102   0.774 -0.0352 -0.6936  1.2419
 8048TIP3   OH245558   0.576   1.672   5.386 -0.5558  0.5048 -0.4763
 8048TIP3    H145559   0.580   1.717   5.470 -1.7556  0.4502 -0.3742
 8048TIP3    H245560   0.539   1.736   5.326  0.5150  0.6254 -1.0418
 8049TIP3   OH245561   1.371   1.008  15.241  0.7686  0.2586  0.4976
 8049TIP3    H145562   1.379   1.085  15.185  0.0590 -1.1111 -1.6370
 8049TIP3    H245563   1.382   1.041  15.330 -0.0954  2.9088 -0.2788
 8050TIP3   OH245564   6.186   1.712   0.163  0.8859 -0.2016  0.6687
 8050TIP3    H145565   6.220   1.698   0.075  0.3052 -0.3129  0.4604
 8050TIP3    H245566   6.210   1.802   0.184  3.1432 -0.9107  1.3572
 8051TIP3   OH245567   1.216   3.897  17.151 -0.5040 -0.0300  0.5650
 8051TIP3    H145568   1.129   3.934  17.139 -0.4412  0.1405  0.6391
 8051TIP3    H245569   1.213   3.814  17.104 -0.7574 -0.0984  0.6993
 8052TIP3   OH245570   3.733   2.965  13.837 -0.4101 -0.2830  0.6634
 8052TIP3    H145571   3.675   3.002  13.770  0.5443  0.3561  0.1428
 8052TIP3    H245572   3.700   2.877  13.852 -1.1568 -0.1398 -0.0418
 8053TIP3   OH245573   3.983   3.634   6.198 -0.3920  0.2400 -0.4563
 8053TIP3    H145574   4.044   3.697   6.237 -1.0341  0.1665  0.7190
 8053TIP3    H245575   4.038   3.572   6.151  0.3314  0.9815 -0.6161
 8054TIP3   OH245576   0.953   4.045  15.567 -0.4937 -0.3325  0.1653
 8054TIP3    H145577   1.040   4.040  15.609 -1.2413 -1.1218  1.7337
 8054TIP3    H245578   0.893   4.064  15.640 -1.4942  1.7255 -1.1094
 8055TIP3   OH245579   5.126   2.335  15.500  0.1059 -0.0996  0.1751
 8055TIP3    H145580   5.047   2.351  15.552 -0.0690 -0.2771 -0.0381
 8055TIP3    H245581   5.198   2.365  15.556 -0.0266 -0.9186  0.7941
 8056TIP3   OH245582   2.678   6.018   4.403 -0.6369 -0.1296  0.3545
 8056TIP3    H145583   2.728   5.950   4.357  0.2878  0.7001  0.1242
 8056TIP3    H245584   2.656   5.978   4.487 -0.5747 -0.9123  0.0158
 8057TIP3   OH245585   6.288   4.698   5.694 -0.0365 -0.5193 -0.5635
 8057TIP3    H145586   6.221   4.631   5.709 -2.4391  2.1075  1.7295
 8057TIP3    H245587   6.263   4.738   5.611 -1.2919  0.3156  0.1832
 8058TIP3   OH245588   2.626   2.627   1.730  0.0903  0.3010 -0.2786
 8058TIP3    H145589   2.701   2.674   1.766  0.3522  0.1933 -0.6887
 8058TIP3    H245590   2.655   2.596   1.645  0.1620 -1.2005  0.2607
 8059TIP3   OH245591   0.582   1.154  11.593  0.5007  0.5078 -0.0453
 8059TIP3    H145592   0.592   1.174  11.500  0.5535  0.3386 -0.0770
 8059TIP3    H245593   0.489   1.167  11.611  0.0482 -1.4921 -0.6188
 8060TIP3   OH245594   5.816   1.783  17.044  0.2352  0.0684 -0.7468
 8060TIP3    H145595   5.781   1.826  17.122  0.2952  0.2556 -0.8234
 8060TIP3    H245596   5.839   1.695  17.074 -1.7637 -0.5941 -1.0642
 8061TIP3   OH245597   2.854   4.850  11.462 -0.5909  0.0576 -0.5832
 8061TIP3    H145598   2.763   4.851  11.489 -0.0954  0.0199  1.2650
 8061TIP3    H245599   2.894   4.925  11.507  0.2183  0.2869 -1.6416
 8062TIP3   OH245600   4.679   1.585   2.632  0.0580 -0.4067  0.3301
 8062TIP3    H145601   4.662   1.494   2.607  3.7784 -0.2614 -4.3141
 8062TIP3    H245602   4.678   1.633   2.549  0.0853  3.5017  2.3509
 8063TIP3   OH245603   4.143   6.327  12.637  0.2604  0.5680  1.2474
 8063TIP3    H145604   4.079   6.393  12.661  1.5339  1.6063  1.8815
 8063TIP3    H245605   4.145   6.329  12.541 -0.8899  0.2719  1.2079
 8064TIP3   OH245606   1.879   5.273  16.996 -0.2053  0.4577  0.2888
 8064TIP3    H145607   1.823   5.349  17.012  1.0417  1.5564 -0.4272
 8064TIP3    H245608   1.945   5.304  16.934 -1.0261 -1.8191 -1.9078
 8065TIP3   OH245609   4.355   2.589   0.424  0.0842  0.6083 -0.1045
 8065TIP3    H145610   4.317   2.676   0.436  1.0083  1.2299 -1.4700
 8065TIP3    H245611   4.397   2.570   0.508  0.4201  1.7784  0.0153
 8066TIP3   OH245612   2.875   2.896  12.812  0.0640  0.2778 -0.2203
 8066TIP3    H145613   2.820   2.973  12.797 -1.5858 -0.4558  1.6095
 8066TIP3    H245614   2.839   2.857  12.891  1.1829 -2.1047 -0.8206
 8067TIP3   OH245615   2.432   0.315   3.795  0.4694  0.1602  0.5505
 8067TIP3    H145616   2.402   0.282   3.879  0.4038  0.5045  0.6659
 8067TIP3    H245617   2.468   0.402   3.815 -0.9938  0.9316 -0.0111
 8068TIP3   OH245618   4.036   3.927  11.380 -0.4052 -0.2228  0.0611
 8068TIP3    H145619   3.956   3.951  11.332 -0.3465  0.1818  0.1639
 8068TIP3    H245620   4.100   3.993  11.355 -0.0451 -0.6491 -0.1597
 8069TIP3   OH245621   4.635   4.610   4.799 -0.7822 -0.5695 -0.1389
 8069TIP3    H145622   4.663   4.588   4.888 -2.3103 -1.3063  0.1865
 8069TIP3    H245623   4.542   4.589   4.796 -0.6391 -1.1883 -2.1155
 8070TIP3   OH245624   6.512   1.010  12.604  0.3661 -0.1965  0.8683
 8070TIP3    H145625   6.483   0.946  12.540  1.6999 -1.2464  1.2653
 8070TIP3    H245626   6.515   0.962  12.687  1.7526  0.2386  1.1000
 8071TIP3   OH245627   3.749   0.082  14.328  0.1939 -0.1434 -0.1979
 8071TIP3    H145628   3.839   0.059  14.305  0.6572  0.7804  0.6340
 8071TIP3    H245629   3.748   0.083  14.423 -0.9413 -1.0301 -0.1930
 8072TIP3   OH245630   5.330   6.014  16.474  0.4629  0.3372  0.2305
 8072TIP3    H145631   5.305   5.941  16.531 -0.2404 -0.2198 -0.7552
 8072TIP3    H245632   5.389   6.067  16.527 -0.3298 -0.0550  1.5479
 8073TIP3   OH245633   1.349   6.338   3.802  0.4066 -0.2474 -0.0131
 8073TIP3    H145634   1.266   6.302   3.772  0.5140 -0.5163  0.0114
 8073TIP3    H245635   1.367   6.292   3.884  0.5916 -0.2085 -0.0308
 8074TIP3   OH245636   5.363   1.471  14.626 -0.6549  0.3628 -0.6275
 8074TIP3    H145637   5.441   1.515  14.658 -1.2720  1.5196 -0.6870
 8074TIP3    H245638   5.290   1.511  14.673 -1.2443 -0.5999 -0.6781
 8075TIP3   OH245639   0.376   5.361  11.762  0.1701 -0.2279  0.4740
 8075TIP3    H145640   0.445   5.350  11.697  1.2325  0.1843  1.5047
 8075TIP3    H245641   0.297   5.327  11.719  0.3752  1.8968 -1.7803
 8076TIP3   OH245642   6.548   5.996   0.649  0.2306  0.6211 -0.6592
 8076TIP3    H145643   6.608   5.940   0.601 -1.6097  0.5269 -3.0382
 8076TIP3    H245644   6.514   5.939   0.719  1.0437 -0.0707 -0.8103
 8077TIP3   OH245645   6.155   0.314   3.559 -0.2000 -0.1103 -0.3081
 8077TIP3    H145646   6.195   0.243   3.609 -1.8824  0.6857  2.4523
 8077TIP3    H245647   6.134   0.380   3.626 -3.8952  0.4746 -1.7988
 8078TIP3   OH245648   3.752   0.126   2.324 -0.3203 -0.1486  0.1564
 8078TIP3    H145649   3.764   0.032   2.339 -0.6110  0.2263  3.4567
 8078TIP3    H245650   3.658   0.140   2.335  0.0580  0.8663  2.4941
 8079TIP3   OH245651   4.148   5.886  15.499  1.0741  0.2345 -0.0992
 8079TIP3    H145652   4.184   5.811  15.547 -0.2025 -0.7140 -0.5656
 8079TIP3    H245653   4.066   5.906  15.542 -0.5156 -1.1677 -2.2728
 8080TIP3   OH245654   6.246   3.793  15.359  0.0391 -0.6708 -0.2014
 8080TIP3    H145655   6.306   3.862  15.330 -0.3075  0.3021  1.2726
 8080TIP3    H245656   6.168   3.840  15.388 -0.4636 -1.7381  0.2242
 8081TIP3   OH245657   6.223   6.097  14.574  0.5877  0.4556 -0.0283
 8081TIP3    H145658   6.231   6.171  14.513  2.7617 -0.6250 -1.1608
 8081TIP3    H245659   6.305   6.098  14.623 -0.6293  0.5706  2.1220
 8082TIP3   OH245660   5.722   6.678  11.293 -0.6184  0.2840 -0.1076
 8082TIP3    H145661   5.755   6.591  11.269  0.1212  1.0877 -2.2464
 8082TIP3    H245662   5.750   6.691  11.383 -0.9797 -1.7882  0.3501
 8083TIP3   OH245663   5.142   5.401  11.569  0.0477 -0.1573 -0.1767
 8083TIP3    H145664   5.221   5.358  11.601  1.3068  1.8773 -0.3531
 8083TIP3    H245665   5.149   5.491  11.601 -2.1389  0.1255 -0.3361
 8084TIP3   OH245666   3.088   0.049   0.496  0.4989  0.4022  0.2570
 8084TIP3    H145667   3.087   0.068   0.402  0.7035  0.0943  0.1914
 8084TIP3    H245668   3.146   0.115   0.534  1.2149 -0.0842  0.0291
 8085TIP3   OH245669   1.035   4.645  13.442 -0.7562  0.1808  0.0068
 8085TIP3    H145670   0.981   4.708  13.393 -2.2113 -1.5208 -0.7129
 8085TIP3    H245671   0.972   4.582  13.477  0.5195 -0.1381  1.8608
 8086TIP3   OH245672   3.988   2.635  16.857 -0.3707 -0.0223 -0.3971
 8086TIP3    H145673   3.989   2.634  16.953  1.2986  1.0798 -0.3621
 8086TIP3    H245674   4.016   2.548  16.831  0.0689 -0.0471  0.1462
 8087TIP3   OH245675   6.531   0.754   1.205 -0.2170  0.3922  0.1588
 8087TIP3    H145676   6.530   0.844   1.236 -1.8654 -0.2025  2.1549
 8087TIP3    H245677   6.549   0.702   1.284 -0.5310 -1.0749 -0.6905
 8088TIP3   OH245678   1.233   5.524  13.280 -0.0363 -0.3649 -0.3488
 8088TIP3    H145679   1.232   5.597  13.342  1.7828  0.3963 -1.1330
 8088TIP3    H245680   1.204   5.449  13.332 -1.8067  0.8429  0.5192
 8089TIP3   OH245681   1.073   3.793   1.716 -0.0692  0.4091  0.1864
 8089TIP3    H145682   1.029   3.877   1.730 -0.5396  0.0771  0.7899
 8089TIP3    H245683   1.158   3.803   1.759 -0.1940  0.5233  0.4091
 8090TIP3   OH245684   0.499   1.466  11.822  0.1547  0.3596 -0.2144
 8090TIP3    H145685   0.525   1.485  11.913  1.2299  1.1008 -0.6620
 8090TIP3    H245686   0.564   1.510  11.769 -0.4787 -0.0610 -1.3672
 8091TIP3   OH245687   4.813   2.722   4.423  0.2609 -0.3641 -0.0693
 8091TIP3    H145688   4.744   2.656   4.422 -0.9809  0.7389 -3.5091
 8091TIP3    H245689   4.767   2.805   4.439  0.9194  0.2532 -1.2247
 8092TIP3   OH245690   4.860   6.280   4.054  0.2217 -0.0970 -0.7241
 8092TIP3    H145691   4.857   6.199   4.105 -0.0174  0.0686 -0.4695
 8092TIP3    H245692   4.790   6.270   3.990  1.2146 -0.7658 -1.7348
 8093TIP3   OH245693   6.546   6.551  15.096  0.0493 -0.4770 -0.7891
 8093TIP3    H145694   6.493   6.593  15.163  0.5256 -0.2819 -0.5326
 8093TIP3    H245695   6.584   6.475  15.140 -0.5775 -1.0299 -1.1703
 8094TIP3   OH245696   0.085   6.735  13.767  0.3400 -0.3427  0.3321
 8094TIP3    H145697  -0.002   6.695  13.764  0.0756  0.2088  0.5227
 8094TIP3    H245698   0.122   6.719  13.680 -0.9076  1.4940 -0.6204
 8095TIP3   OH245699   6.223   4.618  11.780  0.2990  0.6817  0.0812
 8095TIP3    H145700   6.298   4.675  11.762 -0.5622  1.2391 -2.0591
 8095TIP3    H245701   6.237   4.542  11.723 -1.0317  1.0864 -0.8284
 8096TIP3   OH245702   2.590   3.736   2.951 -0.1570  0.2439  0.1096
 8096TIP3    H145703   2.629   3.650   2.962  1.9774  0.9149 -1.4455
 8096TIP3    H245704   2.501   3.719   2.923  0.8450 -1.5910 -2.3346
 8097TIP3   OH245705   4.907   0.855  14.898 -0.6408 -0.5002  0.4470
 8097TIP3    H145706   4.834   0.849  14.837  1.2552 -0.4221 -1.9781
 8097TIP3    H245707   4.915   0.948  14.918  0.0266 -0.2249 -0.9655
 8098TIP3   OH245708   3.412   3.094  12.604 -0.2541 -0.3504  0.1287
 8098TIP3    H145709   3.395   3.154  12.678 -2.9254 -0.7046 -0.0925
 8098TIP3    H245710   3.401   3.149  12.526 -1.3666 -0.7789 -0.0408
 8099TIP3   OH245711   3.363   6.283  15.154  0.6902 -0.4213 -0.3773
 8099TIP3    H145712   3.391   6.192  15.161  0.6825 -0.5616 -1.8038
 8099TIP3    H245713   3.268   6.277  15.142  0.6283 -0.1953 -0.0076
 8100TIP3   OH245714   2.514   5.223  16.258 -0.3340 -0.0177  0.4921
 8100TIP3    H145715   2.445   5.157  16.249 -0.3364  0.2595 -2.7484
 8100TIP3    H245716   2.593   5.178  16.228  0.4536  0.3621  1.9486
 8101TIP3   OH245717   1.349   1.404  14.753  0.5735 -0.0250 -0.1177
 8101TIP3    H145718   1.435   1.391  14.713  0.1667 -0.3431 -0.9146
 8101TIP3    H245719   1.292   1.430  14.680  0.3360  1.7892  0.6558
 8102TIP3   OH245720   2.289   5.568   3.904  0.2182  0.0013 -0.4890
 8102TIP3    H145721   2.381   5.573   3.931  0.0724  1.2009 -0.1647
 8102TIP3    H245722   2.255   5.656   3.919 -0.4475  0.1548 -2.6145
 8103TIP3   OH245723   3.496   1.996  15.847  0.1736  1.0925 -0.1035
 8103TIP3    H145724   3.591   2.007  15.852  0.4814 -0.5645 -1.2224
 8103TIP3    H245725   3.462   2.047  15.920  1.9701  1.1916  0.7329
 8104TIP3   OH245726   1.791   4.872  11.226 -0.1915 -0.1552 -0.5654
 8104TIP3    H145727   1.827   4.916  11.302 -0.2800 -1.3527  0.1963
 8104TIP3    H245728   1.777   4.942  11.162 -1.0425  1.0175  0.8585
 8105TIP3   OH245729   5.191   3.596  16.222  0.4769 -0.3932 -0.8052
 8105TIP3    H145730   5.275   3.628  16.254  0.4934  0.9531 -2.1052
 8105TIP3    H245731   5.165   3.658  16.154 -1.7894 -0.5395 -0.1480
 8106TIP3   OH245732   5.427   2.464  14.668 -0.0717  0.2877 -0.0043
 8106TIP3    H145733   5.412   2.541  14.613  0.7985 -0.6565 -1.6633
 8106TIP3    H245734   5.340   2.439  14.699 -0.5500  1.0774 -0.6600
 8107TIP3   OH245735   5.391   6.443  11.216  0.7684 -0.0771 -0.0854
 8107TIP3    H145736   5.297   6.435  11.232  0.5967 -2.3772 -1.6702
 8107TIP3    H245737   5.411   6.535  11.233 -1.6326  0.3294  0.8926
 8108TIP3   OH245738   2.119   6.236  16.633 -0.8217 -0.4259 -0.3594
 8108TIP3    H145739   2.071   6.262  16.554  0.3784  2.9905 -0.0911
 8108TIP3    H245740   2.175   6.310  16.654 -1.4901 -0.8887  4.1016
 8109TIP3   OH245741   2.757   2.035  13.602  0.5895 -0.3308 -0.6376
 8109TIP3    H145742   2.679   2.007  13.553 -1.4572  0.4221  1.9577
 8109TIP3    H245743   2.775   2.123  13.570 -0.6044  0.0823 -0.2167
 8110TIP3   OH245744   4.024   4.333   5.599 -0.2499 -0.3189 -0.1228
 8110TIP3    H145745   4.039   4.266   5.532 -0.2529 -0.7978  0.3528
 8110TIP3    H245746   4.093   4.398   5.584 -0.8072  0.0503 -1.1800
 8111TIP3   OH245747   2.091   1.546  14.438 -0.3795  0.2213  0.5595
 8111TIP3    H145748   2.046   1.466  14.412 -1.0598 -0.1056  2.5640
 8111TIP3    H245749   2.184   1.527  14.423 -0.7180  0.6353 -2.8843
 8112TIP3   OH245750   5.589   0.982   0.922  0.0047 -0.3715 -0.1039
 8112TIP3    H145751   5.643   1.057   0.948 -0.5735  0.3240 -0.8703
 8112TIP3    H245752   5.516   0.982   0.984 -0.1594 -0.1120 -0.2981
 8113TIP3   OH245753   0.133   5.173  11.972 -0.5723 -0.1294 -0.7031
 8113TIP3    H145754   0.068   5.173  12.041 -0.4723 -0.7123 -0.6012
 8113TIP3    H245755   0.088   5.207  11.895 -0.0152  3.0522  0.2337
 8114TIP3   OH245756   6.212   2.297  12.421 -0.4695 -0.3178  0.6480
 8114TIP3    H145757   6.169   2.380  12.442 -0.7128 -0.2169 -0.2171
 8114TIP3    H245758   6.294   2.323  12.380  1.4586 -0.4586  3.9970
 8115TIP3   OH245759   1.260   2.644   1.078  0.4267  0.0349 -0.1510
 8115TIP3    H145760   1.261   2.620   1.170 -1.3245 -0.7464 -0.2835
 8115TIP3    H245761   1.171   2.622   1.049  1.3219 -0.9738 -2.3394
 8116TIP3   OH245762   1.808   4.012  16.567  0.0121 -0.0525  0.0171
 8116TIP3    H145763   1.774   4.036  16.481 -1.8231  0.4001  0.8239
 8116TIP3    H245764   1.870   4.083  16.589 -0.8804  0.7997 -0.1662
 8117TIP3   OH245765   3.010   4.549   6.765 -0.2429 -0.1570  0.3549
 8117TIP3    H145766   3.025   4.629   6.716  1.3743 -1.5239 -1.5357
 8117TIP3    H245767   3.074   4.487   6.731 -1.3796 -2.2574  1.7896
 8118TIP3   OH245768   3.879   2.543  13.993 -0.4603  0.5019  0.0272
 8118TIP3    H145769   3.905   2.454  13.969 -1.2137 -0.1105  1.3839
 8118TIP3    H245770   3.861   2.538  14.087 -0.6084  2.0719  0.1048
 8119TIP3   OH245771   5.806   1.902  16.809 -0.1034 -0.3260  0.0518
 8119TIP3    H145772   5.853   1.853  16.876 -0.8312 -1.3039 -0.1159
 8119TIP3    H245773   5.717   1.911  16.844 -0.4118 -0.5868 -0.6378
 8120TIP3   OH245774   3.522   3.979  14.987 -0.0406 -0.7115  0.3068
 8120TIP3    H145775   3.427   3.991  14.986 -0.2667 -2.2162 -1.2015
 8120TIP3    H245776   3.554   4.039  14.919 -0.2093 -1.9639 -0.9163
 8121TIP3   OH245777   1.913   2.351   5.731 -0.3428 -0.0579  0.0930
 8121TIP3    H145778   2.006   2.327   5.736 -0.5455 -1.0606 -0.7377
 8121TIP3    H245779   1.866   2.269   5.741 -1.1829  0.5379  1.2166
 8122TIP3   OH245780   3.508   3.512   4.854  0.5098  0.2306  0.1013
 8122TIP3    H145781   3.556   3.571   4.911  1.3224 -0.0358 -0.2914
 8122TIP3    H245782   3.493   3.433   4.906  2.7267 -0.6879 -0.5366
 8123TIP3   OH245783   6.159   3.921  15.076  0.3386 -0.2607 -0.0939
 8123TIP3    H145784   6.142   3.901  15.168 -0.4855 -0.9731 -0.3829
 8123TIP3    H245785   6.109   4.000  15.059  2.4461  1.3263  0.6768
 8124TIP3   OH245786   0.855   3.933   2.962  0.8549  0.4303  0.1635
 8124TIP3    H145787   0.841   3.971   3.049 -0.3464  2.1568 -0.7198
 8124TIP3    H245788   0.768   3.909   2.932  1.3002 -0.5146 -0.4299
 8125TIP3   OH245789   3.720   3.543   1.612 -0.1073  0.0911 -0.3434
 8125TIP3    H145790   3.748   3.452   1.626 -0.9375 -0.4611 -1.9097
 8125TIP3    H245791   3.793   3.584   1.568  0.0544  0.0164 -0.1463
 8126TIP3   OH245792   3.812   5.349  15.544 -0.2343  0.1815  0.1562
 8126TIP3    H145793   3.760   5.394  15.610 -1.2322  1.4977 -1.4434
 8126TIP3    H245794   3.750   5.289  15.501  0.3605 -0.5425  0.2834
 8127TIP3   OH245795   6.491   1.661  13.424 -0.4829  0.2068 -0.3063
 8127TIP3    H145796   6.577   1.669  13.466 -1.3421 -0.1647  1.6728
 8127TIP3    H245797   6.435   1.721  13.473 -1.3868  0.3833 -1.5103
 8128TIP3   OH245798   1.785   6.236  13.143 -0.1015 -0.4112 -0.3826
 8128TIP3    H145799   1.816   6.319  13.109  0.6069 -0.1381  0.8676
 8128TIP3    H245800   1.805   6.172  13.075  0.9846  0.1616 -0.6077
 8129TIP3   OH245801   0.147   5.885  13.838 -0.2945 -0.5080 -0.3524
 8129TIP3    H145802   0.212   5.955  13.827  0.2348 -0.6203  1.6263
 8129TIP3    H245803   0.126   5.858  13.749  2.5583 -0.6248 -1.0877
 8130TIP3   OH245804   3.436   4.146   2.535  0.1308 -0.3475  0.3650
 8130TIP3    H145805   3.461   4.204   2.462 -1.9120  2.4301  1.7068
 8130TIP3    H245806   3.469   4.190   2.613 -0.7125 -1.4885  1.4027
 8131TIP3   OH245807   6.389   0.014   2.173 -0.4818  0.1146 -0.4280
 8131TIP3    H145808   6.465   0.028   2.231 -1.1396  1.3649  0.1691
 8131TIP3    H245809   6.366  -0.078   2.186 -0.3798  0.2694  1.0567
 8132TIP3   OH245810   0.930   2.411   0.809 -0.7586 -0.3292 -0.1085
 8132TIP3    H145811   0.976   2.358   0.874  0.1818  2.0019  1.2430
 8132TIP3    H245812   0.897   2.348   0.745  0.6029 -2.4690  1.1977
 8133TIP3   OH245813   4.130   6.100  10.779 -0.6290 -0.4188 -0.3819
 8133TIP3    H145814   4.082   6.062  10.705  0.3586 -1.2544 -0.6034
 8133TIP3    H245815   4.093   6.057  10.856 -1.3411  0.1196 -0.4089
 8134TIP3   OH245816   1.076   1.713   0.609  0.5978 -0.5219  0.1371
 8134TIP3    H145817   1.085   1.746   0.519  1.5923  0.2055  0.4864
 8134TIP3    H245818   0.988   1.676   0.612  0.0838  0.5807 -0.7751
 8135TIP3   OH245819   3.383   3.469  11.639  0.5286  0.1772  0.7085
 8135TIP3    H145820   3.421   3.445  11.723 -0.5832  0.9008  1.4465
 8135TIP3    H245821   3.289   3.466  11.654  0.2764 -0.6466 -0.8022
 8136TIP3   OH245822   5.508   4.569   2.723  0.1556 -0.4021  0.0302
 8136TIP3    H145823   5.587   4.516   2.714 -0.4628 -1.2272 -0.6825
 8136TIP3    H245824   5.507   4.594   2.816  1.6923  0.3621 -0.1155
 8137TIP3   OH245825   4.670   1.604  13.415 -0.2829 -0.0071  0.1919
 8137TIP3    H145826   4.616   1.549  13.472 -0.1498  1.5341  1.9063
 8137TIP3    H245827   4.607   1.656  13.366 -0.4258  1.4759  1.8691
 8138TIP3   OH245828   2.600   3.118   2.638  0.1844  0.7688 -0.4652
 8138TIP3    H145829   2.607   3.177   2.713  1.6015  1.9678 -1.4741
 8138TIP3    H245830   2.518   3.070   2.653  1.1237 -0.1409  2.5781
 8139TIP3   OH245831   3.232   0.041   5.723 -0.3070 -0.3827  0.7179
 8139TIP3    H145832   3.227   0.041   5.627 -0.6185 -1.4254  0.7169
 8139TIP3    H245833   3.317   0.081   5.743 -0.4614  0.3196  0.0316
 8140TIP3   OH245834   6.285   5.189   4.628  0.0927 -0.7679  0.7071
 8140TIP3    H145835   6.258   5.247   4.557  0.7356 -0.2598  0.8707
 8140TIP3    H245836   6.289   5.102   4.588  0.9809 -0.4066 -0.0344
 8141TIP3   OH245837   3.733   1.830  14.917  0.0236 -1.0343  0.1314
 8141TIP3    H145838   3.665   1.898  14.923 -0.3500 -1.2982 -0.9100
 8141TIP3    H245839   3.688   1.749  14.939  0.4441 -0.9774  1.2565
 8142TIP3   OH245840   0.755   2.688   4.784 -0.4106 -0.0060 -0.0288
 8142TIP3    H145841   0.810   2.696   4.861 -1.8004 -0.9274  1.1041
 8142TIP3    H245842   0.666   2.700   4.816 -1.1139 -1.4743 -1.2783
 8143TIP3   OH245843   6.430   3.217   5.383  0.0386  0.4534  0.2438
 8143TIP3    H145844   6.428   3.253   5.472 -0.8852  1.1743 -0.0452
 8143TIP3    H245845   6.388   3.132   5.390  0.5595  0.2215  0.6080
 8144TIP3   OH245846   4.518   0.993   4.410  0.1223  0.7178 -0.4548
 8144TIP3    H145847   4.489   1.001   4.319 -1.3558 -1.5481 -0.2337
 8144TIP3    H245848   4.556   0.906   4.416 -1.3534  0.1537  1.4966
 8145TIP3   OH245849   4.330   6.623  12.825  0.0711 -0.2588 -0.1052
 8145TIP3    H145850   4.383   6.553  12.788  1.0367 -0.5851  1.7670
 8145TIP3    H245851   4.266   6.579  12.880 -0.1021  0.2564  0.1180
 8146TIP3   OH245852   4.561   6.275  14.769 -0.7517  0.3094 -0.4006
 8146TIP3    H145853   4.565   6.348  14.707  0.2907 -1.5196 -2.6784
 8146TIP3    H245854   4.468   6.257  14.780 -0.9873  1.4375 -0.4947
 8147TIP3   OH245855   4.754   4.614   2.112 -0.5561 -0.6055  0.6208
 8147TIP3    H145856   4.838   4.569   2.114 -1.1732 -1.7873  0.3572
 8147TIP3    H245857   4.691   4.549   2.141 -1.3365  0.3909  1.1943
 8148TIP3   OH245858   1.572   5.754  12.522 -0.1805 -0.4899  0.3855
 8148TIP3    H145859   1.636   5.689  12.550  1.1012  0.6841  0.3202
 8148TIP3    H245860   1.488   5.708  12.523  0.7925 -2.4130 -0.6332
 8149TIP3   OH245861   3.056   4.021  16.290  0.2454 -0.4616  0.0063
 8149TIP3    H145862   3.126   3.988  16.233  0.6763  1.4572 -0.6535
 8149TIP3    H245863   3.006   3.943  16.314 -0.1489 -1.3483 -3.2250
 8150TIP3   OH245864   2.505   5.369   1.281  0.1116  0.0282  0.1804
 8150TIP3    H145865   2.528   5.350   1.372  1.0959  1.0999  0.1744
 8150TIP3    H245866   2.589   5.389   1.239 -0.3566 -0.2245 -0.9133
 8151TIP3   OH245867   5.706   5.115  11.628 -0.5702 -0.3777  0.4533
 8151TIP3    H145868   5.785   5.061  11.622 -0.8087 -1.4571  4.3891
 8151TIP3    H245869   5.637   5.054  11.654 -2.5371  0.7362 -1.8054
 8152TIP3   OH245870   6.283   6.268  14.361 -0.3264 -0.1135 -0.1458
 8152TIP3    H145871   6.244   6.349  14.328  1.1565  1.3164  1.3921
 8152TIP3    H245872   6.356   6.251  14.302 -1.6896 -1.4171 -1.5530
 8153TIP3   OH245873   5.926   3.174  15.566  0.2898 -0.6261  0.0907
 8153TIP3    H145874   5.832   3.154  15.571 -0.3244  2.1927  2.0690
 8153TIP3    H245875   5.969   3.096  15.602 -1.3037 -1.7028 -0.2355
 8154TIP3   OH245876   6.012   6.551   0.828  0.3021 -0.2977 -0.8587
 8154TIP3    H145877   6.104   6.558   0.855  0.7587 -0.7315 -2.1980
 8154TIP3    H245878   5.964   6.535   0.909  1.0991  2.1783  0.1942
 8155TIP3   OH245879   1.238   6.448  11.433 -0.0350  0.0116  0.0085
 8155TIP3    H145880   1.172   6.435  11.500  0.3558  0.4057  0.4753
 8155TIP3    H245881   1.296   6.372  11.440  1.2957  1.0994  1.6337
 8156TIP3   OH245882   1.934   4.838  11.518  0.5618 -0.4010  0.2063
 8156TIP3    H145883   2.003   4.882  11.568 -0.6127  0.8056  0.8274
 8156TIP3    H245884   1.874   4.803  11.584  0.0186 -0.4897 -0.3232
 8157TIP3   OH245885   5.111   0.129   4.653 -0.5722 -0.1781 -0.6460
 8157TIP3    H145886   5.059   0.072   4.595 -1.8385 -0.3166  0.5468
 8157TIP3    H245887   5.052   0.202   4.673 -0.6712 -0.7423  1.3961
 8158TIP3   OH245888   5.059   2.715  16.451  0.1364 -0.6272 -0.1514
 8158TIP3    H145889   5.012   2.661  16.515  0.2172 -1.5824 -0.8836
 8158TIP3    H245890   5.142   2.670  16.438 -0.5233 -1.3460 -2.1217
 8159TIP3   OH245891   5.112   0.408  16.263  0.0408  0.0217 -0.4832
 8159TIP3    H145892   5.041   0.348  16.243 -0.5271  0.5033  0.0676
 8159TIP3    H245893   5.069   0.490  16.287  0.7609  0.1971  0.2518
 8160TIP3   OH245894   3.204   1.525  11.918  0.4104 -0.4815 -0.2358
 8160TIP3    H145895   3.276   1.464  11.934  1.6349  1.0887  0.5724
 8160TIP3    H245896   3.245   1.611  11.918 -1.4186  0.4474 -0.1829
 8161TIP3   OH245897   1.034   5.237  13.098  0.1450  0.0828 -0.0806
 8161TIP3    H145898   0.948   5.199  13.082  1.2899 -2.3149 -0.8881
 8161TIP3    H245899   1.043   5.237  13.193 -1.7292  2.8965  0.2390
 8162TIP3   OH245900   2.238   4.874   2.667 -0.0045 -0.1146 -0.0747
 8162TIP3    H145901   2.325   4.854   2.702 -0.2900  1.5710  1.8382
 8162TIP3    H245902   2.181   4.805   2.701 -0.0040  0.7180  1.7790
 8163TIP3   OH245903   2.832   6.643   3.236  0.3937 -0.2787 -0.0370
 8163TIP3    H145904   2.897   6.702   3.276  0.3970  0.5827 -1.2702
 8163TIP3    H245905   2.862   6.555   3.260  0.7414  0.1789  1.3177
 8164TIP3   OH245906   6.219   5.872   6.601  0.3045  0.1137 -0.5680
 8164TIP3    H145907   6.221   5.812   6.676  1.8269 -0.2196 -0.8456
 8164TIP3    H245908   6.157   5.832   6.540 -0.7121  0.2281  0.3592
 8165TIP3   OH245909   0.219   4.879   1.622  0.7924 -0.1733 -0.2755
 8165TIP3    H145910   0.180   4.931   1.693  2.0347  0.1177  0.2141
 8165TIP3    H245911   0.227   4.941   1.549 -1.3593 -0.7010 -1.0505
 8166TIP3   OH245912   5.436   4.062   2.207  0.4996 -0.0466  0.2943
 8166TIP3    H145913   5.448   4.134   2.269 -0.5933  0.6088 -0.2146
 8166TIP3    H245914   5.401   3.990   2.260  1.9086 -0.3292  0.8672
 8167TIP3   OH245915   0.242   5.991   4.601  0.3436  0.0467 -0.5361
 8167TIP3    H145916   0.219   5.901   4.578  1.7188 -0.4254 -0.1760
 8167TIP3    H245917   0.331   6.002   4.567  0.2140  1.2591 -0.5276
 8168TIP3   OH245918   0.412   1.023  11.897 -0.1339 -0.0472 -0.3261
 8168TIP3    H145919   0.497   0.990  11.866 -0.4835 -1.3141 -0.0106
 8168TIP3    H245920   0.364   1.042  11.817  0.1793 -0.0382 -0.5167
 8169TIP3   OH245921   1.281   0.095   4.191  0.6258  0.0586  0.5932
 8169TIP3    H145922   1.364   0.128   4.156  0.1871 -1.1586 -1.7308
 8169TIP3    H245923   1.290   0.000   4.188 -0.6842 -0.0782  0.7700
 8170TIP3   OH245924   0.959   3.507  15.821  0.1683  0.3433  0.0704
 8170TIP3    H145925   0.998   3.419  15.821  0.0813  0.1891  3.0383
 8170TIP3    H245926   0.868   3.493  15.796  0.1023 -0.4793  0.7215
 8171TIP3   OH245927   3.237   2.175  15.608 -0.4342 -0.1019  0.1503
 8171TIP3    H145928   3.326   2.151  15.583 -0.1635  2.5644 -2.0082
 8171TIP3    H245929   3.248   2.255  15.660 -1.5421  1.0960 -1.3625
 8172TIP3   OH245930   1.216   4.045  14.392  0.2444 -0.2345 -0.4337
 8172TIP3    H145931   1.186   4.136  14.393  2.5035  0.5502 -0.3371
 8172TIP3    H245932   1.135   3.994  14.393 -1.0797  1.7538 -0.2598
 8173TIP3   OH245933   1.084   3.026   5.512 -0.0610  0.1422 -0.0011
 8173TIP3    H145934   1.085   3.119   5.535  0.6301  0.1787 -0.1385
 8173TIP3    H245935   1.000   3.013   5.468 -0.3722  0.5914  0.4415
 8174TIP3   OH245936   0.079   1.133   1.820  0.2767 -0.2053  0.2223
 8174TIP3    H145937   0.013   1.073   1.855  1.3268 -0.9662  0.9883
 8174TIP3    H245938   0.162   1.089   1.837  1.0449  1.1574  0.1538
 8175TIP3   OH245939   3.390   4.428  10.690  0.2235  0.2943 -0.0469
 8175TIP3    H145940   3.323   4.470  10.745  1.0438  1.4684  0.1055
 8175TIP3    H245941   3.448   4.500  10.665  0.2757 -0.3433 -1.8755
 8176TIP3   OH245942   2.684   0.824  15.225  0.2454 -0.3813  0.1974
 8176TIP3    H145943   2.778   0.835  15.210  0.5841 -3.0433 -0.0534
 8176TIP3    H245944   2.675   0.735  15.259 -2.0666  0.3119  1.6538
 8177TIP3   OH245945   4.815   2.723  14.109 -0.0361 -0.2247 -0.6771
 8177TIP3    H145946   4.905   2.744  14.086 -0.4476  1.1673 -1.1179
 8177TIP3    H245947   4.777   2.806  14.136 -0.2754 -1.3301  2.8479
 8178TIP3   OH245948   1.126   6.746  12.876 -0.7877  0.0605  0.2047
 8178TIP3    H145949   1.175   6.703  12.806  0.3854  1.0692  0.3615
 8178TIP3    H245950   1.112   6.835  12.843  0.4978  0.8005  1.5387
 8179TIP3   OH245951   1.233   0.648   5.103 -0.4179  0.5140 -0.2005
 8179TIP3    H145952   1.143   0.632   5.074 -0.9683  0.9839  1.1930
 8179TIP3    H245953   1.263   0.721   5.049  0.2640 -1.5783 -2.8698
 8180TIP3   OH245954   2.742   0.765  16.221  0.3296 -0.2015 -0.0318
 8180TIP3    H145955   2.756   0.675  16.190  2.6567  0.5637 -1.4608
 8180TIP3    H245956   2.805   0.775  16.293  0.1607  0.3282  0.0482
 8181TIP3   OH245957   2.063   4.941   0.139 -0.7956 -0.6273 -0.2188
 8181TIP3    H145958   2.078   4.920   0.046  0.6774  0.9883 -0.3931
 8181TIP3    H245959   2.124   4.883   0.186 -0.7328 -0.6515 -0.3281
 8182TIP3   OH245960   5.691   1.912  13.327  0.4271  0.3824  0.3038
 8182TIP3    H145961   5.780   1.885  13.347  0.2204  0.2828  1.0970
 8182TIP3    H245962   5.695   2.007  13.321  0.6216  0.3654  0.1235
 8183TIP3   OH245963   4.293   6.256  14.733 -0.6159  0.5073 -0.9656
 8183TIP3    H145964   4.297   6.186  14.669  1.7394 -1.2331  0.9183
 8183TIP3    H245965   4.226   6.228  14.796  2.2503 -1.7699  1.3926
 8184TIP3   OH245966   2.931   4.313   4.509 -0.8921  0.5989  0.0480
 8184TIP3    H145967   2.924   4.251   4.436 -1.3688 -1.5164  1.7995
 8184TIP3    H245968   3.009   4.285   4.557 -0.3165  2.2544  0.1310
 8185TIP3   OH245969   4.195   5.922  16.653 -0.4098 -0.0303 -0.2676
 8185TIP3    H145970   4.242   5.841  16.674  0.0872  0.3967  0.3121
 8185TIP3    H245971   4.264   5.982  16.623 -0.7974  0.1258 -0.8646
 8186TIP3   OH245972   0.438   4.289   2.971  0.0497 -0.6212 -0.5275
 8186TIP3    H145973   0.387   4.260   3.048  0.7012  3.4810  1.7438
 8186TIP3    H245974   0.371   4.311   2.906 -0.9575  0.7902  0.8886
 8187TIP3   OH245975   6.250   4.612  17.048  0.4264  0.3711 -0.7036
 8187TIP3    H145976   6.264   4.687  17.105 -1.4102  0.2569 -0.0360
 8187TIP3    H245977   6.256   4.648  16.959  0.1271  1.2063 -0.3953
 8188TIP3   OH245978   4.424   2.615  15.819 -0.1159  0.2756  0.5085
 8188TIP3    H145979   4.361   2.659  15.875 -0.0111  1.1592 -0.0408
 8188TIP3    H245980   4.381   2.609  15.734 -0.3546 -1.2352  0.7083
 8189TIP3   OH245981   3.618   2.382  12.066 -0.2194  0.3954  0.1986
 8189TIP3    H145982   3.668   2.334  12.001  1.7927  0.7928  1.3552
 8189TIP3    H245983   3.547   2.322  12.091 -0.2068 -0.2898 -1.3173
 8190TIP3   OH245984   4.088   4.370   4.465 -0.4786 -0.2774  0.6962
 8190TIP3    H145985   4.177   4.339   4.445 -0.2786 -0.5849  1.9505
 8190TIP3    H245986   4.097   4.465   4.470 -0.4452 -0.2260 -0.1687
 8191TIP3   OH245987   6.506   1.162  13.495 -0.5070  0.2635 -0.3441
 8191TIP3    H145988   6.531   1.251  13.521  1.3718  0.0922 -1.3906
 8191TIP3    H245989   6.563   1.142  13.420 -1.8491 -1.3167 -1.0112
 8192TIP3   OH245990   0.293   5.914   2.596 -0.3535  0.4049 -0.8169
 8192TIP3    H145991   0.229   5.914   2.525 -1.8648  0.2708  0.4901
 8192TIP3    H245992   0.321   6.005   2.604 -0.1375  0.4138 -1.5943
 8193TIP3   OH245993   2.879   3.029  14.608  0.1115  0.0104 -0.3114
 8193TIP3    H145994   2.847   2.940  14.625  0.4470 -0.3071 -1.2384
 8193TIP3    H245995   2.869   3.075  14.691  0.4165 -1.0510  0.3312
 8194TIP3   OH245996   4.092   1.571   5.057 -0.1724  0.6275 -0.2130
 8194TIP3    H145997   4.123   1.659   5.039  2.1243 -0.2977 -1.1968
 8194TIP3    H245998   4.162   1.514   5.024 -1.7035 -1.5665  0.1313
 8195TIP3   OH245999   0.946   4.663   3.583  0.5585 -0.0304 -1.0792
 8195TIP3    H146000   1.038   4.683   3.604  0.2477  1.5455 -1.0918
 8195TIP3    H246001   0.896   4.731   3.628 -0.6556 -1.0779 -0.7737
 8196TIP3   OH246002   1.386   1.343  14.303 -0.5227  0.1968  0.0509
 8196TIP3    H146003   1.346   1.333  14.217  0.4169  1.2602 -0.5476
 8196TIP3    H246004   1.480   1.330  14.287 -0.1736  1.7759  0.6212
 8197TIP3   OH246005   1.529   0.760  16.648  0.2024 -0.0383  0.2648
 8197TIP3    H146006   1.529   0.719  16.734  0.5496 -1.2222 -0.2663
 8197TIP3    H246007   1.436   0.778  16.630  0.0756 -0.2954  0.6475
 8198TIP3   OH246008   6.203   0.786  12.493 -0.9622  0.0132  0.5038
 8198TIP3    H146009   6.284   0.816  12.452  0.0780  0.4970  2.7464
 8198TIP3    H246010   6.211   0.691  12.496 -0.4536  0.0569  0.6920
 8199TIP3   OH246011   0.766   5.183  11.300 -0.6513 -0.4453  0.5624
 8199TIP3    H146012   0.735   5.093  11.288 -2.2808  0.1390  0.2067
 8199TIP3    H246013   0.712   5.218  11.371  0.3780  0.0880  1.1077
 8200TIP3   OH246014   2.460   2.705  14.226 -0.1293  0.0054  0.7891
 8200TIP3    H146015   2.519   2.668  14.160  0.3367 -1.1159  1.7934
 8200TIP3    H246016   2.455   2.798  14.204  0.5443 -0.2168 -0.4195
 8201TIP3   OH246017   5.647   5.812  15.570 -0.0987  0.1186 -0.1931
 8201TIP3    H146018   5.720   5.751  15.573 -1.7558 -1.9978 -0.6015
 8201TIP3    H246019   5.597   5.786  15.492 -0.3472  2.6908 -0.9888
 8202TIP3   OH246020   0.928   5.834   4.353  0.4180 -0.8568 -0.6910
 8202TIP3    H146021   0.910   5.872   4.439  0.5746 -2.3518  0.0503
 8202TIP3    H246022   0.967   5.904   4.302  1.0924 -0.1625  0.7353
 8203TIP3   OH246023   1.215   4.865  15.449 -0.1153  0.1927 -0.0471
 8203TIP3    H146024   1.159   4.943  15.444  2.7741  2.4609  0.1013
 8203TIP3    H246025   1.195   4.827  15.534 -1.3703  0.9682  0.0316
 8204TIP3   OH246026   4.478   2.138  11.699 -0.4260  0.0649 -0.0892
 8204TIP3    H146027   4.399   2.123  11.752  0.0879 -0.5689  0.5294
 8204TIP3    H246028   4.539   2.182  11.759 -0.2284  0.3320 -0.4880
 8205TIP3   OH246029   4.620   1.952  15.124  0.2216  0.1186  0.0991
 8205TIP3    H146030   4.534   1.994  15.133  0.0900 -0.1022 -0.1229
 8205TIP3    H246031   4.681   2.024  15.112  0.1120  0.2979  0.5908
 8206TIP3   OH246032   1.020   3.021   6.311 -0.1304 -0.6835 -1.0738
 8206TIP3    H146033   0.954   2.980   6.367 -0.5435  0.7274 -0.4865
 8206TIP3    H246034   1.041   3.104   6.354  0.2570 -0.0028 -2.4871
 8207TIP3   OH246035   2.616   0.878  13.720 -0.1746  0.2747 -0.2086
 8207TIP3    H146036   2.621   0.904  13.628 -1.9478 -1.2044 -0.7784
 8207TIP3    H246037   2.546   0.812  13.723  2.0060 -2.1772  1.6363
 8208TIP3   OH246038   4.977   3.529   3.282 -0.1886  0.6307 -0.8161
 8208TIP3    H146039   4.964   3.615   3.241 -0.5684  1.6558  1.2880
 8208TIP3    H246040   4.900   3.478   3.257  0.1697  0.7745 -2.3119
 8209TIP3   OH246041   3.365   4.632  16.887  0.2077  0.2151 -0.5812
 8209TIP3    H146042   3.420   4.684  16.946 -0.9235  0.4915  0.2636
 8209TIP3    H246043   3.370   4.543  16.922  1.2210 -0.0406 -1.3419
 8210TIP3   OH246044   2.375   0.981  13.860 -0.4573 -0.4834 -0.1377
 8210TIP3    H146045   2.462   0.973  13.899 -0.3816  0.2740 -0.1412
 8210TIP3    H246046   2.318   1.007  13.933 -0.5910 -0.5024 -0.2355
 8211TIP3   OH246047   6.511   2.044   0.849 -0.5417  0.4349  0.0395
 8211TIP3    H146048   6.488   1.977   0.785 -1.7822  0.7093  0.1779
 8211TIP3    H246049   6.596   2.017   0.883 -0.5494 -0.5008 -0.6584
 8212TIP3   OH246050   1.160   5.272   6.426 -0.2747  0.5706 -0.0466
 8212TIP3    H146051   1.159   5.349   6.483  0.1233 -0.4683  1.4079
 8212TIP3    H246052   1.077   5.228   6.444 -0.1733  0.2699 -0.3139
 8213TIP3   OH246053   5.371   2.558  10.905 -0.0895  0.1997  0.7006
 8213TIP3    H146054   5.288   2.537  10.861  0.0820  0.5739  0.1813
 8213TIP3    H246055   5.425   2.596  10.835  1.1038 -1.5075  0.6512
 8214TIP3   OH246056   0.558   5.264  15.408  0.1332  0.4267 -0.1419
 8214TIP3    H146057   0.470   5.295  15.430  0.7320  1.6416  0.6404
 8214TIP3    H246058   0.610   5.281  15.486  0.8314 -1.3417 -0.1654
 8215TIP3   OH246059   4.281   5.448   4.255 -0.0331  0.6890 -0.1588
 8215TIP3    H146060   4.288   5.525   4.312  1.6613  0.3540  0.1638
 8215TIP3    H246061   4.220   5.390   4.299 -1.3607  1.8452 -0.4240
 8216TIP3   OH246062   0.717   5.282   3.538  0.1258 -0.3998  0.2808
 8216TIP3    H146063   0.625   5.288   3.565 -0.4476  0.0273 -1.6131
 8216TIP3    H246064   0.733   5.363   3.490  0.8286 -1.3933 -1.2473
 8217TIP3   OH246065   0.813   5.709  12.577 -0.0011 -0.2025  0.2192
 8217TIP3    H146066   0.906   5.729  12.570 -0.1644  1.1454  1.4240
 8217TIP3    H246067   0.772   5.761  12.508  0.0020  0.4974  0.7263
 8218TIP3   OH246068   4.917   1.182   1.394  0.4025  0.5148 -0.4077
 8218TIP3    H146069   4.935   1.199   1.487  3.0133  0.8245 -0.8991
 8218TIP3    H246070   4.843   1.122   1.395 -0.2956  1.3033  1.8329
 8219TIP3   OH246071   1.045   5.125   4.027  0.1910 -0.5807  0.1658
 8219TIP3    H146072   1.022   5.064   3.957 -0.7193 -1.3209  1.0896
 8219TIP3    H246073   1.011   5.210   3.998  1.4596 -0.4786 -1.1238
 8220TIP3   OH246074   6.473   2.550  14.331 -0.5917 -0.3119 -0.0499
 8220TIP3    H146075   6.532   2.566  14.405 -0.4407 -0.5388 -0.1219
 8220TIP3    H246076   6.435   2.464  14.348 -0.9038 -0.1670 -0.0032
 8221TIP3   OH246077   1.004   0.238  11.896 -0.4019 -0.6914 -0.9274
 8221TIP3    H146078   0.959   0.163  11.856 -2.0434  0.9806 -2.4506
 8221TIP3    H246079   0.933   0.296  11.923  0.7461 -0.5439  2.1742
 8222TIP3   OH246080   5.552   4.497  14.405 -0.1901 -0.2421 -0.1184
 8222TIP3    H146081   5.526   4.415  14.448 -1.4140  0.2100  0.0508
 8222TIP3    H246082   5.527   4.565  14.467 -0.9700  0.3610 -1.0661
 8223TIP3   OH246083   2.964   4.959  17.095 -0.3727 -0.6907  0.6437
 8223TIP3    H146084   2.911   5.018  17.148  0.8253 -0.1803  1.3200
 8223TIP3    H246085   2.906   4.932  17.024 -0.8568  1.5577  0.1200
 8224TIP3   OH246086   2.216   1.970   3.697 -0.2358 -0.3724  0.6722
 8224TIP3    H146087   2.245   2.024   3.623  1.7383 -0.7820  1.1053
 8224TIP3    H246088   2.161   2.028   3.749 -1.5672 -0.0293 -1.0080
 8225TIP3   OH246089   6.078   0.297  14.828 -0.1017 -0.0214  0.1789
 8225TIP3    H146090   6.083   0.202  14.831 -1.6520 -0.1123  2.5639
 8225TIP3    H246091   6.166   0.325  14.804  0.6761 -2.0135  0.5205
 8226TIP3   OH246092   4.257   5.638   2.609 -0.0665  0.1134 -0.3032
 8226TIP3    H146093   4.287   5.548   2.623  1.6418  0.9486  2.0298
 8226TIP3    H246094   4.295   5.664   2.525  1.0804 -0.7258 -0.0658
 8227TIP3   OH246095   5.727   2.859   2.313 -0.5246 -0.1592 -0.4002
 8227TIP3    H146096   5.684   2.893   2.234 -0.9900 -1.4021 -0.6961
 8227TIP3    H246097   5.698   2.768   2.319  0.3667 -0.3919  0.6118
 8228TIP3   OH246098   5.494   0.895  13.019  0.7756 -0.0715  0.1004
 8228TIP3    H146099   5.539   0.812  13.035  0.5964 -0.3256 -0.6648
 8228TIP3    H246100   5.565   0.957  13.002  0.9563  0.1346  1.4489
 8229TIP3   OH246101   1.688   3.608  15.454 -0.6026  0.1789  0.2336
 8229TIP3    H146102   1.636   3.599  15.374 -0.9441  0.8131  0.3745
 8229TIP3    H246103   1.625   3.639  15.519 -0.0191  1.1684  0.3531
 8230TIP3   OH246104   1.950   1.904   1.424  0.0094 -0.3595 -0.0511
 8230TIP3    H146105   1.973   1.846   1.352 -1.6274 -0.7246 -0.3110
 8230TIP3    H246106   2.009   1.979   1.415 -1.9022  0.9163 -3.4351
 8231TIP3   OH246107   1.229   6.487  14.847  0.1914 -0.7143 -0.0174
 8231TIP3    H146108   1.138   6.485  14.818  0.2767  0.5074 -0.4358
 8231TIP3    H246109   1.228   6.441  14.931 -1.1525  0.7748  0.8450
 8232TIP3   OH246110   5.007   3.035   0.187 -0.1360  0.1665 -0.1808
 8232TIP3    H146111   5.060   2.962   0.155  0.9169  0.1197  1.5329
 8232TIP3    H246112   4.936   3.042   0.124  1.8641  0.2161 -2.5892
 8233TIP3   OH246113   3.456   0.797   3.185 -0.2537  0.3039 -0.7558
 8233TIP3    H146114   3.519   0.841   3.242 -0.8894 -0.1711  0.3506
 8233TIP3    H246115   3.440   0.860   3.114 -1.7395  2.2511  1.1672
 8234TIP3   OH246116   1.630   1.590  15.313  0.1549  0.5499 -0.0717
 8234TIP3    H146117   1.709   1.561  15.358 -0.7202 -0.0925  1.1078
 8234TIP3    H246118   1.647   1.573  15.220  2.2825  2.5519 -0.1360
 8235TIP3   OH246119   0.820   5.419  11.000 -0.9378  0.3034 -0.3850
 8235TIP3    H146120   0.786   5.475  10.931 -0.5953  0.0846 -0.7327
 8235TIP3    H246121   0.782   5.333  10.983 -0.0369  0.0002 -0.9160
 8236TIP3   OH246122   1.207   0.215   2.356  0.2345 -0.0425 -0.3024
 8236TIP3    H146123   1.139   0.198   2.291 -0.8082 -1.8203  1.1755
 8236TIP3    H246124   1.170   0.285   2.410 -1.2502 -2.0832  1.4875
 8237TIP3   OH246125   4.787   5.043  15.972  0.2445  0.1107 -0.0404
 8237TIP3    H146126   4.775   5.071  16.063 -0.1033  0.2079 -0.1168
 8237TIP3    H246127   4.756   4.953  15.969 -0.0853  0.2286 -0.1465
 8238TIP3   OH246128   6.658   6.351  14.574 -0.8425  0.0144  0.3543
 8238TIP3    H146129   6.644   6.427  14.518  2.5878 -0.9315 -2.1198
 8238TIP3    H246130   6.702   6.385  14.651 -1.5863  0.7963  0.4527
 8239TIP3   OH246131   0.953   0.828  13.854 -0.6596 -0.0282  0.2252
 8239TIP3    H146132   0.868   0.831  13.899 -1.1762 -1.1989 -0.6275
 8239TIP3    H246133   0.942   0.886  13.779 -0.0081  1.4169  1.1996
 8240TIP3   OH246134   3.274   3.213   1.010 -0.2259  0.2662  0.0067
 8240TIP3    H146135   3.276   3.195   1.104 -0.8973 -0.7265 -0.1608
 8240TIP3    H246136   3.366   3.226   0.987 -0.1263  1.3391  0.9438
 8241TIP3   OH246137   1.205   2.536  13.251 -0.3070  1.1214 -0.5822
 8241TIP3    H146138   1.222   2.533  13.345  0.7673 -0.1405 -0.7983
 8241TIP3    H246139   1.285   2.573  13.214 -0.0863  0.1048 -1.1410
 8242TIP3   OH246140   4.007   2.083   2.061 -0.2454 -0.2429  0.1517
 8242TIP3    H146141   4.066   2.054   2.130  1.1589 -1.4234 -1.4770
 8242TIP3    H246142   4.050   2.160   2.023 -0.9643  0.3454  0.5005
 8243TIP3   OH246143   0.108   4.528   1.069  0.7355 -0.4079 -0.2186
 8243TIP3    H146144   0.086   4.462   1.003  0.3084 -1.9637  1.4172
 8243TIP3    H246145   0.082   4.611   1.029  0.1601 -1.3234 -1.8525
 8244TIP3   OH246146   4.411   0.167  16.766  0.0836 -0.2893  0.7842
 8244TIP3    H146147   4.350   0.142  16.697 -0.2950 -1.3958  1.4949
 8244TIP3    H246148   4.488   0.112  16.751 -0.6871 -1.8366  2.2570
 8245TIP3   OH246149   5.454   0.150   5.072 -0.0831 -0.3332  0.3856
 8245TIP3    H146150   5.435   0.057   5.060 -2.4575 -0.1046  1.6328
 8245TIP3    H246151   5.383   0.195   5.026  1.3199  0.9125 -0.6431
 8246TIP3   OH246152   4.369   2.417   1.774 -0.0979 -0.7049  0.0474
 8246TIP3    H146153   4.406   2.476   1.708 -1.6643  0.9462  0.5501
 8246TIP3    H246154   4.307   2.362   1.726 -0.2269 -0.4506 -0.0766
 8247TIP3   OH246155   1.520   2.391  11.472 -0.2704 -0.2146 -0.0950
 8247TIP3    H146156   1.536   2.354  11.385 -0.3708  0.7069 -0.5195
 8247TIP3    H246157   1.471   2.323  11.518  1.0854 -1.3296 -0.2237
 8248TIP3   OH246158   1.091   1.903   0.322 -0.0949 -0.2770 -0.3788
 8248TIP3    H146159   1.102   1.903   0.227 -0.3679 -0.3682 -0.4096
 8248TIP3    H246160   0.997   1.913   0.336 -0.6430 -4.2681 -0.1811
 8249TIP3   OH246161   2.120   0.086  15.086 -0.7989 -0.3192  0.3630
 8249TIP3    H146162   2.210   0.092  15.054 -1.0083 -1.1291 -0.4334
 8249TIP3    H246163   2.071   0.049  15.012 -1.8503  0.4129  0.6701
 8250TIP3   OH246164   0.571   2.805  12.364  0.0001  0.3214  0.0329
 8250TIP3    H146165   0.511   2.811  12.290  1.0679 -1.0020 -0.9855
 8250TIP3    H246166   0.643   2.865  12.343 -0.4438  1.1564  0.7871
 8251TIP3   OH246167   4.234   2.660   4.864 -0.3104  0.1294 -0.0331
 8251TIP3    H146168   4.163   2.674   4.802  0.7304  1.2822 -1.0042
 8251TIP3    H246169   4.190   2.627   4.943 -2.0801  1.8006 -0.2284
 8252TIP3   OH246170   0.744   2.174   5.396  0.7570  0.6121  0.0254
 8252TIP3    H146171   0.821   2.221   5.429  1.6718 -0.0718 -1.0779
 8252TIP3    H246172   0.726   2.109   5.464  0.7379  1.1945  0.5967
 8253TIP3   OH246173   6.308   0.072  16.779 -0.2293  0.3707  0.2144
 8253TIP3    H146174   6.329   0.133  16.709  1.8712 -0.9641 -0.4134
 8253TIP3    H246175   6.280  -0.008  16.734  1.3606 -0.5774  0.8124
 8254TIP3   OH246176   3.145   4.616  16.704 -0.5264  0.3872 -0.6797
 8254TIP3    H146177   3.130   4.531  16.663 -1.2393 -0.0428  0.4078
 8254TIP3    H246178   3.207   4.599  16.775 -0.2745  0.8763 -0.7732
 8255TIP3   OH246179   0.470   3.122  12.653  0.5834  0.4115 -0.3148
 8255TIP3    H146180   0.495   3.137  12.562  1.7564 -1.6207 -0.3820
 8255TIP3    H246181   0.431   3.035  12.653 -1.0133  1.0667  0.8780
 8256TIP3   OH246182   6.213   1.294   5.107  0.0190  0.0170 -0.5222
 8256TIP3    H146183   6.160   1.372   5.094  1.3102  1.1309  0.6155
 8256TIP3    H246184   6.164   1.224   5.063 -1.7041  1.2343 -0.6272
 8257TIP3   OH246185   2.079   2.588   2.611 -0.4328  0.3212 -0.2465
 8257TIP3    H146186   2.054   2.527   2.542  0.5799 -1.6006  0.9945
 8257TIP3    H246187   2.120   2.661   2.565 -0.8768 -0.3263 -1.7384
 8258TIP3   OH246188   1.879   3.919   0.913  0.5928  0.2514 -0.1053
 8258TIP3    H146189   1.896   3.926   1.007 -0.0322 -1.1693  0.1559
 8258TIP3    H246190   1.940   3.980   0.872  0.2342  1.5936  1.2712
 8259TIP3   OH246191   0.885   2.535  16.205 -0.4839 -0.4232 -0.0055
 8259TIP3    H146192   0.936   2.455  16.214 -1.8912 -1.2657  1.0369
 8259TIP3    H246193   0.902   2.566  16.116  2.0224 -0.4784  0.3952
 8260TIP3   OH246194   4.429   5.722   3.877 -0.2282 -0.7113  0.4859
 8260TIP3    H146195   4.424   5.753   3.968  0.3947  2.0709 -0.3398
 8260TIP3    H246196   4.342   5.685   3.861 -0.6821 -0.3701  1.9351
 8261TIP3   OH246197   5.640   4.935  13.259 -0.7606 -0.3970  0.1038
 8261TIP3    H146198   5.588   4.937  13.340 -0.6379 -1.5644  0.2252
 8261TIP3    H246199   5.577   4.913  13.191 -0.5145 -1.3760  0.1852
 8262TIP3   OH246200   1.411   3.475  11.814 -0.0830 -0.3298 -0.5761
 8262TIP3    H146201   1.435   3.567  11.817 -0.1460 -0.3426  1.0243
 8262TIP3    H246202   1.480   3.430  11.862 -1.3179 -0.7941  0.8444
 8263TIP3   OH246203   1.469   5.901  15.701  0.4410  0.1442 -0.1665
 8263TIP3    H146204   1.475   5.976  15.760  1.9324 -0.3579  0.3427
 8263TIP3    H246205   1.483   5.825  15.756 -1.6224 -0.6003 -0.5782
 8264TIP3   OH246206   6.298   4.727   4.728 -0.1567  0.2808 -0.0643
 8264TIP3    H146207   6.391   4.722   4.752 -0.2692  3.0219  1.5111
 8264TIP3    H246208   6.276   4.640   4.697  3.0396 -0.3604 -0.9082
 8265TIP3   OH246209   3.163   3.798   4.865  0.3146  0.1534 -0.0604
 8265TIP3    H146210   3.237   3.843   4.906 -0.8329  0.9542  1.2358
 8265TIP3    H246211   3.130   3.860   4.800 -0.6679  0.8393  1.0494
 8266TIP3   OH246212   5.060   1.891   1.677  0.4082 -0.2910  0.1721
 8266TIP3    H146213   5.140   1.838   1.671 -0.1872 -1.0316 -1.7376
 8266TIP3    H246214   5.034   1.907   1.587 -2.1702 -0.9494  0.7006
 8267TIP3   OH246215   5.679   0.251  16.231 -0.0074 -0.2282 -0.5092
 8267TIP3    H146216   5.684   0.156  16.241  0.4761 -0.0404  1.5253
 8267TIP3    H246217   5.769   0.281  16.244  0.2252  0.4257 -3.0373
 8268TIP3   OH246218   2.795   4.316   1.924 -0.2024 -0.3609 -0.3955
 8268TIP3    H146219   2.702   4.326   1.943 -0.3610 -0.0693 -1.2404
 8268TIP3    H246220   2.832   4.275   2.002 -1.0185 -0.3842 -0.0095
 8269TIP3   OH246221   4.858   0.037   1.687 -0.2972  0.0177  0.0151
 8269TIP3    H146222   4.909   0.117   1.679 -0.6642  0.1940 -0.6507
 8269TIP3    H246223   4.923  -0.032   1.698 -0.0080  0.4890  1.4315
 8270TIP3   OH246224   1.271   5.679  12.103 -0.0724  0.2031  0.5057
 8270TIP3    H146225   1.313   5.762  12.080 -0.0025 -0.0195 -0.2002
 8270TIP3    H246226   1.264   5.681  12.198  2.2438 -0.0781  0.7405
 8271TIP3   OH246227   3.476   4.485   6.302  0.0699 -0.4136  1.0814
 8271TIP3    H146228   3.532   4.409   6.290  0.6691  0.0762  0.7214
 8271TIP3    H246229   3.439   4.474   6.389  0.9819 -0.5741  1.4570
 8272TIP3   OH246230   3.557   3.227   6.334 -0.2009 -0.4118 -0.2123
 8272TIP3    H146231   3.493   3.287   6.373  0.1948 -0.7227  0.9638
 8272TIP3    H246232   3.598   3.277   6.265 -1.0146  0.1255 -0.3217
 8273TIP3   OH246233   5.675   6.247  12.301  0.0040  0.2694  0.4925
 8273TIP3    H146234   5.758   6.268  12.258 -1.5178  1.9636 -1.8521
 8273TIP3    H246235   5.683   6.284  12.388  1.9283 -0.2144  0.5678
 8274TIP3   OH246236   1.311   0.752   2.903 -0.1980  0.1305 -0.0719
 8274TIP3    H146237   1.306   0.765   2.809 -0.6557 -2.4668 -0.4791
 8274TIP3    H246238   1.398   0.783   2.927  0.1164  0.3480 -1.4333
 8275TIP3   OH246239   5.013   4.895  10.681  0.1572 -0.2577 -0.5332
 8275TIP3    H146240   5.027   4.870  10.773  0.6809  1.6732 -0.0394
 8275TIP3    H246241   4.985   4.814  10.638 -0.9373 -1.0386  1.5024
 8276TIP3   OH246242   3.675   4.199   4.215 -0.0566  0.4110  0.3106
 8276TIP3    H146243   3.726   4.119   4.232 -0.2218  0.3908  0.7430
 8276TIP3    H246244   3.732   4.252   4.160  0.4623  0.4100  0.8294
 8277TIP3   OH246245   4.053   5.787   3.248 -0.9098  0.0878 -0.4610
 8277TIP3    H146246   4.037   5.855   3.183  1.5742 -0.3666 -1.6628
 8277TIP3    H246247   4.075   5.834   3.328 -0.9768  0.6798 -0.7877
 8278TIP3   OH246248   4.980   0.272   2.017  0.0539 -0.6972  0.8240
 8278TIP3    H146249   4.911   0.212   2.044  0.7905 -1.4484  1.0932
 8278TIP3    H246250   4.934   0.352   1.991 -0.8102 -0.5832  2.5475
 8279TIP3   OH246251   4.040   2.955   2.965  0.3226 -0.6022 -0.0406
 8279TIP3    H146252   4.092   2.964   3.045 -0.7293  1.5268  0.4822
 8279TIP3    H246253   3.965   3.012   2.978 -1.9330 -3.0983 -1.0013
 8280TIP3   OH246254   2.686   2.969   1.824 -0.0474  0.2939  0.1442
 8280TIP3    H146255   2.636   2.980   1.905 -1.3262 -1.6150 -0.3279
 8280TIP3    H246256   2.622   2.981   1.754  0.1136 -2.0336 -0.4755
 8281TIP3   OH246257   6.544   4.191   5.643  0.4218  0.0778  0.0834
 8281TIP3    H146258   6.613   4.144   5.690  0.4511  0.3116  0.2777
 8281TIP3    H246259   6.547   4.156   5.554  1.7594  1.1068 -0.3139
 8282TIP3   OH246260   5.238   1.189  11.966 -0.3674  0.0566  0.2871
 8282TIP3    H146261   5.150   1.212  11.996 -0.6070  0.0987 -0.4376
 8282TIP3    H246262   5.294   1.202  12.043 -0.7123  1.7178  0.2985
 8283TIP3   OH246263   2.877   3.833   5.944  0.5227  0.7911  0.1030
 8283TIP3    H146264   2.806   3.854   6.005  2.7645 -0.1041  3.2555
 8283TIP3    H246265   2.864   3.741   5.922  0.7869  0.5722  0.8383
 8284TIP3   OH246266   4.675   1.420  16.663 -0.5348  0.1629  0.2086
 8284TIP3    H146267   4.710   1.437  16.576 -1.0316 -0.4163 -0.1155
 8284TIP3    H246268   4.599   1.363  16.648 -0.7463  0.2193  1.0007
 8285TIP3   OH246269   3.893   4.931  13.474  0.1945  0.1070 -0.1164
 8285TIP3    H146270   3.960   4.893  13.531 -0.2824 -2.0929 -0.9266
 8285TIP3    H246271   3.941   4.983  13.410  1.0098 -0.3816  0.0943
 8286TIP3   OH246272   6.644   6.490  14.023 -0.2059  0.2353 -0.3240
 8286TIP3    H146273   6.699   6.486  13.944 -1.0928  1.2376 -1.0235
 8286TIP3    H246274   6.583   6.562  14.006  0.3286  1.2556  1.7718
 8287TIP3   OH246275   5.583   0.965   2.755 -0.3948  0.4265 -0.1501
 8287TIP3    H146276   5.562   1.055   2.781 -4.4619 -0.1449 -0.7705
 8287TIP3    H246277   5.540   0.910   2.821 -0.4152 -1.0366 -1.3206
 8288TIP3   OH246278   2.510   3.426   2.248  0.0768 -0.1541 -0.1409
 8288TIP3    H146279   2.483   3.486   2.316  1.4972  0.6419 -0.2363
 8288TIP3    H246280   2.535   3.346   2.295 -1.3693 -0.5442  0.0215
 8289TIP3   OH246281   2.015   5.782  11.509  0.5959 -0.0787 -0.5692
 8289TIP3    H146282   1.978   5.796  11.596  1.2029  1.4183 -0.5211
 8289TIP3    H246283   2.030   5.870  11.475  1.5073 -0.6425 -1.6966
 8290TIP3   OH246284   0.950   3.956  17.082  0.7098  0.1988  0.0871
 8290TIP3    H146285   0.866   3.994  17.058  0.3128 -0.8051 -0.1446
 8290TIP3    H246286   0.942   3.937  17.176 -0.0401 -1.6376 -0.3125
 8291TIP3   OH246287   5.900   6.162   0.039  0.1062  0.2933 -0.1457
 8291TIP3    H146288   5.985   6.161   0.082 -0.2757  0.8538  0.6449
 8291TIP3    H246289   5.849   6.095   0.085 -0.2993  0.8846  0.2774
 8292TIP3   OH246290   1.536   2.377  16.969 -0.4444 -0.5796 -0.1640
 8292TIP3    H146291   1.459   2.387  16.914  0.9974 -0.4256 -2.2783
 8292TIP3    H246292   1.513   2.308  17.031 -2.0000 -1.0411 -1.2114
 8293TIP3   OH246293   6.752   1.362  12.501 -0.2026 -0.5478 -0.8163
 8293TIP3    H146294   6.795   1.380  12.417  1.2368  1.4058  0.2488
 8293TIP3    H246295   6.671   1.413  12.497 -0.6675 -1.3165 -1.4164
 8294TIP3   OH246296   4.901   0.532  14.512 -0.0636 -0.2669 -0.2036
 8294TIP3    H146297   4.941   0.618  14.496  0.5744 -1.0488 -3.5192
 8294TIP3    H246298   4.816   0.536  14.469  0.3191 -1.5091 -1.1464
 8295TIP3   OH246299   0.022   4.391   6.511 -0.3994 -0.5186 -0.4948
 8295TIP3    H146300   0.046   4.362   6.599  1.1736  0.8798 -0.4157
 8295TIP3    H246301  -0.073   4.399   6.513 -0.5538 -2.1557  0.5353
 8296TIP3   OH246302   1.691   3.483   0.002  0.1597 -0.1831  0.1042
 8296TIP3    H146303   1.783   3.455  -0.003  0.1625 -0.1087 -0.2936
 8296TIP3    H246304   1.669   3.507  -0.088 -0.2286 -0.1272  0.2154
 8297TIP3   OH246305   2.868   0.860   0.914  0.0075 -0.1334  0.1385
 8297TIP3    H146306   2.824   0.929   0.964 -0.3969  0.3288 -0.8292
 8297TIP3    H246307   2.915   0.809   0.980  0.3336  1.0758  0.8845
 8298TIP3   OH246308   3.822   3.962  15.457 -0.2273  0.3494  0.3899
 8298TIP3    H146309   3.782   4.005  15.381  1.4042  0.6522 -0.3469
 8298TIP3    H246310   3.871   3.889  15.419  2.3475  1.7484  0.8442
 8299TIP3   OH246311   3.043   4.909  13.818 -0.5535  0.2404 -0.2695
 8299TIP3    H146312   3.038   4.926  13.724 -0.3257  0.3047 -0.2697
 8299TIP3    H246313   2.998   4.983  13.858 -1.2541 -0.1225 -0.3542
 8300TIP3   OH246314   3.251   3.876  17.049 -0.1653 -0.0037  0.2203
 8300TIP3    H146315   3.169   3.841  17.014 -0.1218 -0.1758  0.2907
 8300TIP3    H246316   3.318   3.843  16.989 -0.1112 -0.1414  0.3577
 8301TIP3   OH246317   3.952   0.318  13.331  0.4428 -0.5356 -0.2237
 8301TIP3    H146318   3.862   0.351  13.329  0.6246 -0.0202  0.0413
 8301TIP3    H246319   3.970   0.295  13.239  0.1972 -0.2141 -0.3555
 8302TIP3   OH246320   0.667   6.417  15.149 -0.1848 -0.1392 -0.3190
 8302TIP3    H146321   0.636   6.355  15.082  1.6955 -0.4511 -0.9458
 8302TIP3    H246322   0.713   6.362  15.212 -0.1637  0.4146  0.1525
 8303TIP3   OH246323   1.126   1.149  11.870 -0.6659 -0.8518 -0.0271
 8303TIP3    H146324   1.162   1.213  11.932 -1.3226  0.5341 -1.0265
 8303TIP3    H246325   1.187   1.075  11.875 -0.1701 -0.3908  1.5434
 8304TIP3   OH246326   6.161   6.514   0.282  0.3552 -0.1718 -0.2783
 8304TIP3    H146327   6.079   6.561   0.296  0.5555  0.5922 -1.4926
 8304TIP3    H246328   6.201   6.509   0.368  0.8929  2.9763 -0.2464
 8305TIP3   OH246329   6.510   0.198  14.865 -0.7333  0.0928  0.6264
 8305TIP3    H146330   6.551   0.261  14.924  0.3320 -1.0246  1.1212
 8305TIP3    H246331   6.445   0.154  14.919 -1.7470  0.9833  0.1806
 8306TIP3   OH246332   5.845   6.597  12.265  0.0258  0.1376  0.3465
 8306TIP3    H146333   5.807   6.599  12.178  1.6142  1.1517 -0.3614
 8306TIP3    H246334   5.816   6.679  12.306 -1.4794 -0.7564  1.1462
 8307TIP3   OH246335   6.063   0.879  10.895 -0.1682  0.1370 -0.1771
 8307TIP3    H146336   6.158   0.882  10.910 -0.3372 -1.5091  1.7766
 8307TIP3    H246337   6.048   0.795  10.851 -0.7053  0.5031 -0.7076
 8308TIP3   OH246338   4.120   4.910   5.772  0.6591  0.4343 -0.1953
 8308TIP3    H146339   4.147   4.922   5.681  2.1489 -1.1357 -0.0145
 8308TIP3    H246340   4.190   4.948   5.824 -0.8352  2.6160  0.3756
 8309TIP3   OH246341   5.455   1.539   3.928  0.3103 -0.0017  0.7076
 8309TIP3    H146342   5.449   1.443   3.920 -0.5737  0.1210 -0.5964
 8309TIP3    H246343   5.405   1.559   4.007  0.0527 -0.5882  0.7035
 8310TIP3   OH246344   1.241   3.485   4.496 -0.2401  0.0374 -0.5556
 8310TIP3    H146345   1.246   3.415   4.561 -0.0919  0.6108  0.0575
 8310TIP3    H246346   1.311   3.545   4.519 -1.0403  0.9466 -0.4093
 8311TIP3   OH246347   6.027   6.176  15.836 -0.1381 -0.2123  0.0362
 8311TIP3    H146348   6.006   6.258  15.792  0.4834 -0.0327  0.0552
 8311TIP3    H246349   5.994   6.108  15.777  0.8672  0.0242 -0.8320
 8312TIP3   OH246350   5.609   6.602  13.827  0.5557 -0.0132  0.4693
 8312TIP3    H146351   5.612   6.582  13.921  1.0489 -2.6458 -0.0543
 8312TIP3    H246352   5.699   6.621  13.803  1.0662 -2.8654 -0.1143
 8313TIP3   OH246353   2.631   4.368  16.114  0.0183 -0.1538  0.2611
 8313TIP3    H146354   2.710   4.392  16.065  0.6753  0.0474  1.3812
 8313TIP3    H246355   2.645   4.277  16.139  0.7983  0.4209  2.0791
 8314TIP3   OH246356   5.517   0.112  15.030 -0.2472 -0.1006 -0.5685
 8314TIP3    H146357   5.574   0.184  15.000 -0.9408  0.4128 -0.6835
 8314TIP3    H246358   5.467   0.150  15.103 -0.6082 -0.4718 -0.6210
 8315TIP3   OH246359   3.978   6.283   4.174 -0.0348  0.0393  0.8939
 8315TIP3    H146360   4.030   6.202   4.172 -1.1065 -0.6866  1.2122
 8315TIP3    H246361   3.906   6.263   4.234 -2.0820  0.1249 -1.3955
 8316TIP3   OH246362   5.830   4.370   2.245 -0.3989  0.6332 -0.2322
 8316TIP3    H146363   5.801   4.291   2.290 -1.7700 -0.1422 -2.3267
 8316TIP3    H246364   5.751   4.424   2.237 -0.0243  1.0973 -0.9806
 8317TIP3   OH246365   4.734   1.338  17.187  0.2243 -0.0358 -0.1947
 8317TIP3    H146366   4.708   1.288  17.265  2.6749 -1.4347 -0.1748
 8317TIP3    H246367   4.690   1.294  17.115 -1.8859  1.1272  0.3073
 8318TIP3   OH246368   1.772   2.062  16.470 -0.2478 -0.1630  0.0256
 8318TIP3    H146369   1.722   2.071  16.389  0.3789 -1.6708 -0.5656
 8318TIP3    H246370   1.707   2.045  16.537 -0.6986  0.1323 -0.3324
 8319TIP3   OH246371   6.152   4.709   5.156  0.2429 -0.3031 -0.4804
 8319TIP3    H146372   6.190   4.666   5.080  1.3992  0.4864 -0.3748
 8319TIP3    H246373   6.215   4.694   5.227 -1.3112 -1.9368  0.6383
 8320TIP3   OH246374   0.932   3.574  13.132 -0.1320  0.2188 -0.2107
 8320TIP3    H146375   1.012   3.545  13.089 -0.3738 -0.4819 -0.2041
 8320TIP3    H246376   0.871   3.592  13.061  0.2347  1.4066 -0.2436
 8321TIP3   OH246377   6.531   0.087  16.395 -0.2064  0.4722 -0.4747
 8321TIP3    H146378   6.596   0.029  16.435 -1.7533 -1.6735 -0.8732
 8321TIP3    H246379   6.581   0.142  16.335  1.3968 -0.1365  0.2373
 8322TIP3   OH246380   5.056   3.950  12.935 -0.5906 -0.4309  0.2193
 8322TIP3    H146381   5.037   3.950  13.029 -1.4138 -0.9549  0.0645
 8322TIP3    H246382   5.116   3.876  12.923 -0.1494 -0.1072  0.3853
 8323TIP3   OH246383   2.198   3.633   2.076  0.1345  0.0877 -0.0291
 8323TIP3    H146384   2.133   3.686   2.029  0.0187 -0.2808 -0.2860
 8323TIP3    H246385   2.150   3.554   2.102  0.8626 -0.9177 -1.5730
 8324TIP3   OH246386   5.712   2.861   1.080 -0.6787  0.3672  0.2855
 8324TIP3    H146387   5.709   2.956   1.092  0.3876  0.5792 -0.9888
 8324TIP3    H246388   5.787   2.833   1.132  1.3937  0.7693 -2.2631
 8325TIP3   OH246389   4.657   5.850  15.905  0.1093  0.4192 -0.0066
 8325TIP3    H146390   4.645   5.799  15.986 -0.0083 -0.8081 -0.7641
 8325TIP3    H246391   4.584   5.912  15.905  0.2515  0.6044  0.9499
 8326TIP3   OH246392   1.434   5.025  13.293  0.0214  0.3875  0.5421
 8326TIP3    H146393   1.394   5.068  13.368  0.8913  2.6571 -0.2003
 8326TIP3    H246394   1.369   4.963  13.263 -1.5407  1.5434  1.4049
 8327TIP3   OH246395   5.179   4.180   5.242 -0.7041 -0.0128  0.5898
 8327TIP3    H146396   5.124   4.156   5.167 -2.0766  1.5911  1.0264
 8327TIP3    H246397   5.266   4.147   5.219 -1.8958 -3.2124  0.1444
 8328TIP3   OH246398   2.821   0.199   3.200  0.5902 -0.8226  0.4552
 8328TIP3    H146399   2.773   0.117   3.212 -2.6216  0.8260 -0.2014
 8328TIP3    H246400   2.831   0.208   3.106  0.5949 -0.2755  0.5034
 8329TIP3   OH246401   5.062   2.786   4.158 -0.3188 -0.9985  0.2079
 8329TIP3    H146402   5.016   2.856   4.205 -0.7258 -1.5393  0.6334
 8329TIP3    H246403   5.013   2.707   4.180  1.0236 -1.6512  0.9634
 8330TIP3   OH246404   4.591   4.584  12.586 -0.1333 -0.1070 -0.0471
 8330TIP3    H146405   4.505   4.620  12.607  1.0782  2.7105  0.4634
 8330TIP3    H246406   4.614   4.531  12.663  0.0966  2.1115  1.4871
 8331TIP3   OH246407   1.230   5.164   4.735  0.3027 -0.1675 -0.2524
 8331TIP3    H146408   1.213   5.109   4.659 -2.7886  0.0101  0.1639
 8331TIP3    H246409   1.238   5.253   4.700 -0.7207 -0.1388 -0.4530
 8332TIP3   OH246410   4.266   5.232  16.366  0.1176  0.1105  0.1677
 8332TIP3    H146411   4.314   5.171  16.423  0.9713  0.4165 -0.2019
 8332TIP3    H246412   4.327   5.250  16.295 -0.1520  1.3404  0.2312
 8333TIP3   OH246413   5.056   1.529   1.981 -0.5197  0.4174  0.3658
 8333TIP3    H146414   5.019   1.444   2.006 -1.1598  0.9552  1.3445
 8333TIP3    H246415   4.987   1.592   2.003 -0.5384  1.0926 -1.4900
 8334TIP3   OH246416   6.295   2.524   4.881 -0.3373 -0.2195 -0.6188
 8334TIP3    H146417   6.322   2.615   4.890 -1.0936 -0.0438 -0.0439
 8334TIP3    H246418   6.370   2.481   4.840  0.6882  0.3167  0.6111
 8335TIP3   OH246419   1.966   5.655   3.814  0.3048  0.2125 -0.3751
 8335TIP3    H146420   1.911   5.721   3.857  4.3735  3.4865  0.4497
 8335TIP3    H246421   2.001   5.602   3.885  1.0185  0.5339 -0.4815
 8336TIP3   OH246422   1.280   5.293   2.861  0.3316 -0.0333  0.0938
 8336TIP3    H146423   1.294   5.294   2.766 -0.0080  0.8500  0.0361
 8336TIP3    H246424   1.204   5.351   2.874 -0.0067 -0.6261  0.8491
 8337TIP3   OH246425   5.327   1.694   4.276 -0.0926 -0.6681 -0.1991
 8337TIP3    H146426   5.290   1.618   4.231 -0.0703 -0.8787  0.1325
 8337TIP3    H246427   5.252   1.733   4.322 -0.3254  0.1435 -1.2321
 8338TIP3   OH246428   5.734   3.727   0.769  0.6192  0.1956 -0.8247
 8338TIP3    H146429   5.683   3.773   0.703 -0.0958 -0.1717 -0.5457
 8338TIP3    H246430   5.812   3.696   0.723  0.8123  1.1443 -1.1530
 8339TIP3   OH246431   0.546   0.066  15.906  0.0821  0.1216  0.4419
 8339TIP3    H146432   0.548   0.140  15.846  0.0465  1.5292  2.0843
 8339TIP3    H246433   0.487   0.094  15.976  2.8467  0.1127  2.9544
 8340TIP3   OH246434   0.818   6.388  11.133 -0.1741 -0.0286  0.0212
 8340TIP3    H146435   0.899   6.337  11.133 -0.8058 -1.1781  2.1746
 8340TIP3    H246436   0.750   6.325  11.110 -0.5069  0.9410 -1.8377
 8341TIP3   OH246437   5.071   0.626   6.127  0.1159 -0.4384 -0.1182
 8341TIP3    H146438   5.055   0.532   6.122 -0.8085 -0.3104  0.2756
 8341TIP3    H246439   5.153   0.639   6.078 -0.2788 -1.3017 -1.0385
 8342TIP3   OH246440   4.015   3.666   1.745  0.3991 -0.1606 -0.5443
 8342TIP3    H146441   4.031   3.758   1.768 -0.1656 -0.4086  0.9243
 8342TIP3    H246442   4.040   3.661   1.653 -0.9990  1.8390 -1.1177
 8343TIP3   OH246443   5.316   3.410   2.314  0.0661  0.0515 -0.1869
 8343TIP3    H146444   5.398   3.371   2.284 -0.1170  0.5298 -1.3673
 8343TIP3    H246445   5.307   3.381   2.405  1.7499  0.3368  0.0998
 8344TIP3   OH246446   4.679   5.767   4.297 -0.1606 -0.2619 -0.2104
 8344TIP3    H146447   4.734   5.690   4.313 -1.0482 -0.8320  0.2044
 8344TIP3    H246448   4.650   5.795   4.383  0.1687  0.5635 -0.3581
 8345TIP3   OH246449   3.854   2.946  14.631  0.2779  1.2141 -0.0072
 8345TIP3    H146450   3.839   3.036  14.659 -0.0660  1.0524  0.3468
 8345TIP3    H246451   3.887   2.902  14.709  2.6332  1.5366 -0.7300
 8346TIP3   OH246452   0.028   4.811   2.423 -0.1816  0.0275 -0.5340
 8346TIP3    H146453   0.121   4.834   2.416  0.1691 -0.8788  0.7340
 8346TIP3    H246454  -0.015   4.864   2.356  1.3242  0.0205 -1.5650
 8347TIP3   OH246455   2.284   3.978  16.822  0.0557 -0.3224 -0.3126
 8347TIP3    H146456   2.250   3.889  16.830  0.0927 -0.3374 -0.3185
 8347TIP3    H246457   2.250   4.009  16.738 -2.7779  0.8984  1.1421
 8348TIP3   OH246458   0.888   5.908   0.124  0.4223 -0.3610  0.2900
 8348TIP3    H146459   0.824   5.979   0.113  0.2415 -0.4946  0.4753
 8348TIP3    H246460   0.968   5.942   0.083  0.6548  0.3761  1.3209
 8349TIP3   OH246461   4.285   1.983  12.794 -0.3101  0.3510 -0.0089
 8349TIP3    H146462   4.200   1.954  12.827  0.8538 -2.8888  0.4848
 8349TIP3    H246463   4.335   2.005  12.873  0.0738 -0.1597 -0.1030
 8350TIP3   OH246464   3.865   4.288  14.625 -0.4561 -0.3139 -0.6006
 8350TIP3    H146465   3.928   4.216  14.614 -0.8387 -0.7686  0.1512
 8350TIP3    H246466   3.827   4.299  14.538  1.2189  0.5060 -1.2780
 8351TIP3   OH246467   1.081   0.423  16.026  0.3921 -0.4835 -0.4603
 8351TIP3    H146468   1.047   0.349  15.975  0.8038 -0.8732 -0.1763
 8351TIP3    H246469   1.038   0.414  16.111  0.2892 -0.2806 -0.4912
 8352TIP3   OH246470   3.419   2.345   2.630  0.5567  0.2527  0.5316
 8352TIP3    H146471   3.426   2.440   2.623  1.2841  0.3459  2.2247
 8352TIP3    H246472   3.342   2.323   2.578  2.0993  1.3924 -2.4730
 8353TIP3   OH246473   2.082   6.753   1.419 -0.2108 -0.6722 -0.3308
 8353TIP3    H146474   2.149   6.794   1.364 -0.6809 -0.9228 -1.1050
 8353TIP3    H246475   2.115   6.763   1.508  0.0143  0.7684 -0.5457
 8354TIP3   OH246476   2.264   5.991  12.509  0.4003 -0.0460  0.1058
 8354TIP3    H146477   2.221   5.906  12.510  0.5851 -0.1353  0.8117
 8354TIP3    H246478   2.349   5.976  12.549  0.3217  0.5276  0.4992
 8355TIP3   OH246479   5.762   3.542  10.657 -0.1669  0.0877  0.4409
 8355TIP3    H146480   5.796   3.463  10.699 -0.9259 -0.7670 -0.4928
 8355TIP3    H246481   5.814   3.613  10.695 -0.8514 -0.5977  2.8430
 8356TIP3   OH246482   4.384   1.271   2.398 -0.6861 -0.4271 -0.2999
 8356TIP3    H146483   4.334   1.346   2.366 -1.1153  0.6286  2.6325
 8356TIP3    H246484   4.320   1.199   2.400 -0.7047 -0.4696 -1.4781
 8357TIP3   OH246485   6.149   2.734   3.146 -0.7129 -0.4327 -0.5996
 8357TIP3    H146486   6.214   2.800   3.169 -2.1049  0.5130  0.8797
 8357TIP3    H246487   6.134   2.686   3.227 -2.5444  0.0533 -0.5959
 8358TIP3   OH246488   5.749   6.419   3.553  0.2011  0.4872 -0.1293
 8358TIP3    H146489   5.667   6.437   3.507 -0.5005  0.0908  0.9264
 8358TIP3    H246490   5.731   6.339   3.603  0.8536  1.0252  0.9991
 8359TIP3   OH246491   4.591   2.032   5.989  0.0232 -0.7266 -0.6013
 8359TIP3    H146492   4.595   2.128   5.985  1.7739 -0.7861 -0.8289
 8359TIP3    H246493   4.596   2.012   6.083 -1.6241 -0.5902 -0.4492
 8360TIP3   OH246494   4.691   3.904   2.430  0.0630 -0.5502 -0.2339
 8360TIP3    H146495   4.770   3.907   2.376  0.2294  0.0334  0.0346
 8360TIP3    H246496   4.710   3.962   2.503 -1.0104  0.4180 -0.6932
 8361TIP3   OH246497   2.861   1.554  13.707  0.3467 -0.3141  0.5894
 8361TIP3    H146498   2.955   1.560  13.724  0.4361 -1.3561  0.5278
 8361TIP3    H246499   2.845   1.460  13.694 -0.6319 -0.1049  0.2061
 8362TIP3   OH246500   4.878   0.081  15.225 -0.6282 -0.3406 -0.0797
 8362TIP3    H146501   4.831   0.156  15.188  1.7514  0.5183 -1.6356
 8362TIP3    H246502   4.961   0.118  15.256  0.5722 -2.2720 -0.7851
 8363TIP3   OH246503   5.229   0.202  10.869  0.3535  0.3791  0.3061
 8363TIP3    H146504   5.164   0.209  10.799  0.5664 -0.3420  0.0260
 8363TIP3    H246505   5.214   0.115  10.907  1.9450 -0.3268 -0.5844
 8364TIP3   OH246506   6.457   2.055   3.199  0.2033  0.5022  0.1416
 8364TIP3    H146507   6.380   2.109   3.185 -0.0307  0.1304 -0.0327
 8364TIP3    H246508   6.506   2.099   3.269  0.5931  1.5474 -0.7532
 8365TIP3   OH246509   1.406   4.628  16.620 -0.0743 -0.0520 -0.1772
 8365TIP3    H146510   1.336   4.564  16.610  1.0217 -1.4482  0.5575
 8365TIP3    H246511   1.368   4.711  16.592 -2.5217 -0.4207  1.6722
 8366TIP3   OH246512   0.549   3.990  13.428  0.0953 -0.2399  0.3380
 8366TIP3    H146513   0.636   4.003  13.466  0.1528  0.4036 -0.0072
 8366TIP3    H246514   0.495   3.962  13.501  0.2875  0.6449  0.8212
 8367TIP3   OH246515   4.371   5.238   3.762  0.3936  0.0566  0.4547
 8367TIP3    H146516   4.361   5.321   3.716 -0.2237 -1.1135 -1.6842
 8367TIP3    H246517   4.462   5.238   3.792  0.9460  0.7934 -1.0777
 8368TIP3   OH246518   3.918   2.266  12.907 -0.5989 -0.5364 -0.4245
 8368TIP3    H146519   4.011   2.243  12.901  0.1011  1.6510  0.9887
 8368TIP3    H246520   3.883   2.207  12.973  0.5709  0.6489  1.3366
 8369TIP3   OH246521   4.457   1.492   1.891  0.2934 -0.7436 -0.5610
 8369TIP3    H146522   4.446   1.573   1.841 -0.3038  0.5116  1.5031
 8369TIP3    H246523   4.552   1.477   1.891  0.4493  0.1739 -0.6466
 8370TIP3   OH246524   3.851   1.490   1.688 -0.3986  0.1748 -0.3307
 8370TIP3    H146525   3.938   1.474   1.724 -1.1114 -0.7721  1.0872
 8370TIP3    H246526   3.853   1.581   1.659  0.8091  0.4035  0.4024
 8371TIP3   OH246527   5.916   1.567   1.595  0.0536 -0.1653  0.3858
 8371TIP3    H146528   5.906   1.555   1.689  0.0063 -0.4054  0.3513
 8371TIP3    H246529   6.006   1.540   1.577 -0.8042 -3.0190 -0.0806
 8372TIP3   OH246530   0.101   3.991  12.449 -0.2614  0.3399  0.0440
 8372TIP3    H146531   0.183   4.017  12.491 -0.2477 -0.3063  0.4299
 8372TIP3    H246532   0.096   4.045  12.370  0.3772  0.6066  0.1817
 8373TIP3   OH246533   4.734   3.255   3.495  0.1205  0.1681  0.3610
 8373TIP3    H146534   4.735   3.291   3.406 -3.9004  2.1806  0.9223
 8373TIP3    H246535   4.698   3.167   3.484  0.7472 -0.0421 -0.0818
 8374TIP3   OH246536   2.087   4.100  14.347  0.2842 -0.1104 -0.6481
 8374TIP3    H146537   2.040   4.100  14.430  0.8910  0.7056 -0.2920
 8374TIP3    H246538   2.179   4.094  14.371  0.4015 -2.7919 -1.3569
 8375TIP3   OH246539   3.790   1.409  12.056  0.3048 -0.5106 -0.1580
 8375TIP3    H146540   3.740   1.338  12.016  0.2295 -0.5390 -0.0147
 8375TIP3    H246541   3.862   1.426  11.995 -0.1588 -0.1356 -0.6073
 8376TIP3   OH246542   5.699   2.253  16.312  0.2315 -0.3384  0.5898
 8376TIP3    H146543   5.661   2.192  16.374 -1.8362 -1.1268 -1.3189
 8376TIP3    H246544   5.663   2.227  16.227  2.1487  1.2793 -0.8333
 8377TIP3   OH246545   2.953   6.572   4.740 -0.0636 -0.7042 -0.2623
 8377TIP3    H146546   2.927   6.491   4.698  0.8256 -2.0414  1.6486
 8377TIP3    H246547   3.046   6.561   4.759 -0.0543  0.5055  0.5364
 8378TIP3   OH246548   4.463   3.839   2.868 -0.3484 -0.4567 -0.2995
 8378TIP3    H146549   4.406   3.777   2.914  0.0842 -0.3376  0.4154
 8378TIP3    H246550   4.427   3.925   2.888  0.6543 -0.3197  0.9845
 8379TIP3   OH246551   2.566   0.461  11.799 -0.4463 -0.3244  0.0303
 8379TIP3    H146552   2.646   0.434  11.843 -1.1114 -0.5636  1.1464
 8379TIP3    H246553   2.589   0.465  11.706  1.7454  2.7457  0.5511
 8380TIP3   OH246554   3.394   3.464   6.394 -0.1471  0.0479  0.1463
 8380TIP3    H146555   3.420   3.540   6.342 -1.2985  0.3926  0.0548
 8380TIP3    H246556   3.409   3.491   6.485  0.3795  0.0132  0.0734
 8381TIP3   OH246557   3.728   5.760   3.752  0.0768  0.3924 -0.2295
 8381TIP3    H146558   3.727   5.713   3.669 -1.5706  2.5911 -1.5447
 8381TIP3    H246559   3.765   5.697   3.814 -3.1172 -3.1442 -1.5226
 8382TIP3   OH246560   3.640   4.839  15.988  0.2202 -0.8751 -0.1333
 8382TIP3    H146561   3.712   4.902  15.995  0.8214 -1.3815 -1.3505
 8382TIP3    H246562   3.632   4.803  16.076  0.8715 -0.1773  0.2321
 8383TIP3   OH246563   3.848   3.767   4.625  0.3555 -0.0793 -0.3839
 8383TIP3    H146564   3.936   3.791   4.654  1.4899 -3.5942 -0.3846
 8383TIP3    H246565   3.862   3.696   4.562 -2.4618 -1.4450  0.3514
 8384TIP3   OH246566   4.396   2.568  16.702 -1.0202  0.4899  0.1780
 8384TIP3    H146567   4.377   2.501  16.768  0.8487  0.7256  1.0192
 8384TIP3    H246568   4.384   2.525  16.618  1.7068 -1.4660  0.6687
 8385TIP3   OH246569   2.586   1.057  14.321  0.2083 -0.4113  0.0487
 8385TIP3    H146570   2.517   1.110  14.282 -0.0537 -0.3407  0.5973
 8385TIP3    H246571   2.564   0.967  14.296  0.1423 -0.3510 -0.1140
 8386TIP3   OH246572   6.329   2.150  11.095 -0.4678 -0.6915  0.5594
 8386TIP3    H146573   6.260   2.214  11.080  0.9366  1.2546  1.8992
 8386TIP3    H246574   6.331   2.097  11.016 -1.5959  1.0243 -0.6731
 8387TIP3   OH246575   0.417   1.989   1.664  0.6297  0.4693 -0.1385
 8387TIP3    H146576   0.413   1.897   1.691  0.2106  0.5391  0.0493
 8387TIP3    H246577   0.335   2.027   1.697 -0.2699  0.3911 -2.1541
 8388TIP3   OH246578   1.178   3.845  14.673  0.2781  0.1257 -0.2076
 8388TIP3    H146579   1.178   3.816  14.581  2.4077 -0.6586 -0.0145
 8388TIP3    H246580   1.266   3.880  14.686  0.6284 -1.4251  2.0215
 8389TIP3   OH246581   2.256   1.787   4.402  0.4368 -0.6330 -0.3006
 8389TIP3    H146582   2.269   1.746   4.316 -0.7612 -1.4901 -0.1034
 8389TIP3    H246583   2.277   1.879   4.387 -1.1311 -0.4682 -1.9141
 8390TIP3   OH246584   1.390   5.992  10.356 -0.9672  0.3032  0.2863
 8390TIP3    H146585   1.305   5.979  10.396 -1.3091  0.1745 -0.4663
 8390TIP3    H246586   1.380   5.958  10.267  0.4072 -1.4785  0.7550
 8391TIP3   OH246587   5.101   4.013   1.506 -0.3394  0.7387  0.0800
 8391TIP3    H146588   5.181   3.967   1.532 -1.2406 -1.3149 -0.6042
 8391TIP3    H246589   5.125   4.062   1.428  0.5638  1.2348  0.6505
 8392TIP3   OH246590   5.335   2.937  11.630  0.4548  0.4012 -0.1464
 8392TIP3    H146591   5.285   2.901  11.703 -1.0741  0.1938 -1.2526
 8392TIP3    H246592   5.287   3.015  11.603  1.1760  0.6571 -0.7282
 8393TIP3   OH246593   6.035   6.094  16.519 -0.1468  0.3670 -0.3232
 8393TIP3    H146594   6.020   6.097  16.424  0.3892  2.3506 -0.3941
 8393TIP3    H246595   5.959   6.139  16.556  0.6007  1.3443  0.0410
 8394TIP3   OH246596   5.997   4.625   3.114  0.2141  0.3072  0.2433
 8394TIP3    H146597   6.064   4.665   3.170 -0.4280  1.3888  0.2609
 8394TIP3    H246598   6.031   4.635   3.025  0.2896  0.4442  0.2873
 8395TIP3   OH246599   3.388   3.724   6.241  0.0837 -0.2086 -0.5817
 8395TIP3    H146600   3.313   3.780   6.263  2.1308  2.3754  0.4304
 8395TIP3    H246601   3.427   3.766   6.164  0.5156 -1.5252 -1.1099
 8396TIP3   OH246602   6.650   4.047  17.072  1.0167  0.4947  0.5699
 8396TIP3    H146603   6.713   3.975  17.069 -1.3162 -1.6570 -1.1128
 8396TIP3    H246604   6.578   4.014  17.125 -0.1749  1.4802 -0.3638
 8397TIP3   OH246605   6.682   0.724  14.195 -0.1525 -0.3642  0.4686
 8397TIP3    H146606   6.622   0.736  14.268  0.0713 -0.0937  0.6091
 8397TIP3    H246607   6.627   0.693  14.123 -0.2158 -1.7362  1.0673
 8398TIP3   OH246608   3.565   0.773  13.054 -0.1995 -0.3901 -0.3277
 8398TIP3    H146609   3.658   0.751  13.049 -0.4079 -1.2089 -0.7115
 8398TIP3    H246610   3.559   0.861  13.016  0.3965 -0.3803 -0.4067
 8399TIP3   OH246611   4.646   1.055  14.515 -0.7606  0.2429  0.0063
 8399TIP3    H146612   4.674   1.147  14.520 -0.8513  0.2932 -0.4388
 8399TIP3    H246613   4.559   1.059  14.477 -0.1577 -0.1354 -1.4697
 8400TIP3   OH246614   5.925   4.924   2.358 -0.8634  0.7451  0.5111
 8400TIP3    H146615   5.938   4.949   2.267  1.2567 -1.0286  0.2621
 8400TIP3    H246616   5.982   4.848   2.371  0.7787  2.3566  3.9551
 8401TIP3   OH246617   1.966   3.637  15.591 -0.2991  0.5693  0.1833
 8401TIP3    H146618   1.938   3.556  15.548 -2.8575  1.3287  0.2427
 8401TIP3    H246619   2.061   3.632  15.593 -0.3491 -1.9562 -0.7239
 8402TIP3   OH246620   4.541   5.188  13.260  0.5642  0.6110 -0.2054
 8402TIP3    H146621   4.509   5.237  13.184 -1.6068  0.5042  0.5682
 8402TIP3    H246622   4.473   5.201  13.327  1.0596 -1.5422  0.7924
 8403TIP3   OH246623   2.007   0.304  11.813 -1.0288 -0.1951  0.6821
 8403TIP3    H146624   2.100   0.326  11.803 -0.8296 -1.2609  0.0508
 8403TIP3    H246625   2.006   0.233  11.876 -1.4248 -0.1707  0.7008
 8404TIP3   OH246626   6.434   0.333  11.712  0.3088  0.2048 -0.4575
 8404TIP3    H146627   6.366   0.334  11.645 -0.1078  1.6090 -0.0398
 8404TIP3    H246628   6.388   0.348  11.794  0.8030 -1.6042  0.2089
 8405TIP3   OH246629   4.923   4.570  12.350 -0.1179 -0.1272 -0.6214
 8405TIP3    H146630   4.989   4.638  12.360  1.1361 -1.5474  1.7506
 8405TIP3    H246631   4.854   4.594  12.412  0.1245 -0.7406 -0.0954
 8406TIP3   OH246632   3.498   5.318  13.180  0.5136  0.3789  0.0059
 8406TIP3    H146633   3.556   5.257  13.225  1.0010  0.0866 -0.9908
 8406TIP3    H246634   3.410   5.290  13.204  0.7666  0.7798  1.4710
 8407TIP3   OH246635   0.959   4.340  12.373  0.2011 -0.3553  0.0925
 8407TIP3    H146636   0.970   4.387  12.291 -1.2604 -1.6808 -0.9389
 8407TIP3    H246637   1.045   4.300  12.389  0.4927 -0.1489 -0.8519
 8408TIP3   OH246638   0.446   6.085  10.328  0.1120  0.0625  0.1576
 8408TIP3    H146639   0.441   6.011  10.388  2.1912  0.0019  0.3214
 8408TIP3    H246640   0.512   6.060  10.263 -0.8744  0.8129 -1.1856
 8409TIP3   OH246641   1.088   1.896   0.013  0.2132 -0.4692  0.2420
 8409TIP3    H146642   1.173   1.888  -0.030  0.4005  0.6034  0.4045
 8409TIP3    H246643   1.024   1.894  -0.058  0.5644  2.3258 -0.2644
 8410TIP3   OH246644   0.262   2.531   2.601  0.4212  0.1800  0.1973
 8410TIP3    H146645   0.292   2.558   2.687 -0.5384 -0.3672  0.7141
 8410TIP3    H246646   0.280   2.437   2.597  1.7703  0.4522 -0.7625
 8411TIP3   OH246647   0.002   5.765   4.216 -0.5614 -0.1365  0.3677
 8411TIP3    H146648   0.024   5.677   4.249  0.5950  0.4152  1.1188
 8411TIP3    H246649   0.078   5.818   4.237 -1.7895  1.3881  1.2112
 8412TIP3   OH246650   0.273   5.614  13.664 -0.2398 -0.1284 -0.6292
 8412TIP3    H146651   0.240   5.576  13.745  1.0495 -0.0029 -0.0259
 8412TIP3    H246652   0.212   5.686  13.644  0.3481  0.9131  1.1433
 8413TIP3   OH246653   4.700   3.084   3.762  0.1786  0.1043  0.1305
 8413TIP3    H146654   4.739   3.169   3.741  0.6942 -0.1450  0.0663
 8413TIP3    H246655   4.751   3.052   3.836 -1.1977  0.6850  1.3919
 8414TIP3   OH246656   3.678   2.282  13.922 -0.2587  0.0920 -0.2268
 8414TIP3    H146657   3.583   2.280  13.910 -0.1263  0.1642 -1.4553
 8414TIP3    H246658   3.691   2.294  14.016 -1.4924  2.3903 -0.2782
 8415TIP3   OH246659   2.605   6.693  12.904  0.1125  0.0701 -0.2468
 8415TIP3    H146660   2.528   6.647  12.869  0.5353 -1.7689  1.0865
 8415TIP3    H246661   2.615   6.770  12.847 -3.2539  0.9039  0.0870
 8416TIP3   OH246662   0.775   3.330  13.886 -0.1126  0.1224 -0.3990
 8416TIP3    H146663   0.679   3.321  13.880 -0.3175  1.1423  0.8886
 8416TIP3    H246664   0.809   3.254  13.840 -1.5711 -0.6556 -0.2498
 8417TIP3   OH246665   0.381   6.724  16.497 -0.1989  0.0390  0.7458
 8417TIP3    H146666   0.334   6.730  16.580  1.0760  1.2772  1.4272
 8417TIP3    H246667   0.462   6.678  16.519  0.0019  0.0798  0.1062
 8418TIP3   OH246668   3.662   3.052  11.816  0.5073  0.1296  0.4258
 8418TIP3    H146669   3.682   3.133  11.769  0.5960  0.1006  0.4139
 8418TIP3    H246670   3.742   3.031  11.863 -0.1533  1.2047  2.1503
 8419TIP3   OH246671   6.327   2.316   1.480  0.0554  0.5018  0.0851
 8419TIP3    H146672   6.234   2.300   1.497  1.0342 -2.1682  4.7101
 8419TIP3    H246673   6.356   2.367   1.556  2.6148  0.0970 -0.5269
 8420TIP3   OH246674   1.338   5.363  15.015 -0.2428  0.3348  0.4005
 8420TIP3    H146675   1.418   5.322  14.981  0.4053  0.8417  1.2629
 8420TIP3    H246676   1.301   5.410  14.940  0.0678 -0.2108 -0.1022
 8421TIP3   OH246677   4.651   6.017  11.571  0.1028 -0.4354 -0.6491
 8421TIP3    H146678   4.707   5.977  11.637 -0.9220 -0.8659 -0.0116
 8421TIP3    H246679   4.675   5.973  11.489  1.1703 -0.1086 -0.5133
 8422TIP3   OH246680   5.707   2.610   1.340 -0.4375 -0.0990  0.4679
 8422TIP3    H146681   5.687   2.525   1.302 -1.9565  0.7497 -0.7809
 8422TIP3    H246682   5.777   2.646   1.285  0.2680 -0.5562  1.0513
 8423TIP3   OH246683   0.251   4.445  11.113 -0.3369  0.1424 -0.1147
 8423TIP3    H146684   0.233   4.391  11.036 -1.7688 -0.9375  0.9218
 8423TIP3    H246685   0.299   4.520  11.078 -0.6316 -0.4824 -2.0088
 8424TIP3   OH246686   4.654   1.200   5.237  0.5540  0.5323 -0.4653
 8424TIP3    H146687   4.562   1.185   5.259  0.4571  1.5812 -0.0554
 8424TIP3    H246688   4.702   1.167   5.313  0.5264 -0.1140 -0.7256
 8425TIP3   OH246689   5.542   1.842   4.409  0.5801  0.0569 -0.6761
 8425TIP3    H146690   5.495   1.763   4.383 -0.1706  0.8636 -1.8763
 8425TIP3    H246691   5.594   1.815   4.484 -0.1896 -1.3971 -0.6253
 8426TIP3   OH246692   4.487   2.292   4.624 -0.4963  0.6225 -0.3213
 8426TIP3    H146693   4.402   2.250   4.615 -0.2795 -0.2859  1.3620
 8426TIP3    H246694   4.482   2.338   4.708  0.5510  0.8263 -0.3563
 8427TIP3   OH246695   6.546   1.327  16.696 -0.1269  0.0726 -0.1197
 8427TIP3    H146696   6.567   1.245  16.653 -1.1282  0.0938 -0.6784
 8427TIP3    H246697   6.496   1.302  16.774  1.6400  0.0356  1.0572
 8428TIP3   OH246698   3.732   3.627   3.410 -0.4132 -0.5275 -0.3040
 8428TIP3    H146699   3.657   3.684   3.399 -0.0896  0.0250  0.3174
 8428TIP3    H246700   3.802   3.685   3.441 -0.3848 -1.4397  1.4534
 8429TIP3   OH246701   4.166   5.818   3.819 -0.1286  0.2938 -0.0057
 8429TIP3    H146702   4.133   5.807   3.907 -2.4785 -1.8655 -1.0336
 8429TIP3    H246703   4.098   5.868   3.773 -0.3225 -1.0256 -1.2440
 8430TIP3   OH246704   3.548   4.874   3.783  0.1877 -0.5301  0.3114
 8430TIP3    H146705   3.609   4.894   3.853  3.3990 -1.9116 -1.8537
 8430TIP3    H246706   3.505   4.793   3.809  2.1323 -1.6073  0.2946
 8431TIP3   OH246707   4.731   4.291   1.265 -0.5509  0.3472  0.2048
 8431TIP3    H146708   4.783   4.214   1.287 -2.4869 -0.9436  0.5002
 8431TIP3    H246709   4.657   4.288   1.326 -1.6957  1.3260 -1.0845
 8432TIP3   OH246710   2.606   1.634  14.903  0.3345 -0.0444  0.0430
 8432TIP3    H146711   2.657   1.652  14.983 -0.8730 -0.7694  1.0095
 8432TIP3    H246712   2.606   1.539  14.896  1.3410  0.0324 -1.4735
 8433TIP3   OH246713   1.920   0.694   2.599 -0.3591 -0.0168 -0.6703
 8433TIP3    H146714   1.877   0.689   2.514  0.2217 -0.0030 -0.9687
 8433TIP3    H246715   1.849   0.709   2.661 -0.6966  0.9037 -1.2568
 8434TIP3   OH246716   4.191   6.556  14.344  0.2202 -0.4401 -0.5033
 8434TIP3    H146717   4.194   6.649  14.320  2.0431 -0.4984 -0.6496
 8434TIP3    H246718   4.263   6.516  14.294 -0.8110 -2.0299 -0.7954
 8435TIP3   OH246719   0.755   0.010   4.908  0.5566  0.0469 -0.2756
 8435TIP3    H146720   0.745   0.077   4.975  0.7852  0.5691 -0.7560
 8435TIP3    H246721   0.681  -0.049   4.922 -0.5452  1.2593 -0.8084
 8436TIP3   OH246722   1.869   1.712   5.182 -0.1432  0.6064  0.2381
 8436TIP3    H146723   1.962   1.710   5.157  0.7290  0.5880  3.1523
 8436TIP3    H246724   1.858   1.636   5.239 -1.7291  1.1086  0.6444
 8437TIP3   OH246725   0.679   4.262   2.740 -0.2475  0.1174 -0.2696
 8437TIP3    H146726   0.647   4.317   2.669 -1.3122 -0.0370  0.0663
 8437TIP3    H246727   0.617   4.277   2.812  0.5947 -0.0096  0.4970
 8438TIP3   OH246728   2.043   5.957   6.051 -0.2077 -0.4205 -0.1909
 8438TIP3    H146729   1.996   5.911   5.982 -0.6432 -0.9788  0.4608
 8438TIP3    H246730   2.002   6.043   6.054  1.3659  0.4799 -2.1894
 8439TIP3   OH246731   0.798   4.576   5.844 -0.1233  0.7846  0.3879
 8439TIP3    H146732   0.750   4.635   5.786 -0.2163  1.2980  0.9808
 8439TIP3    H246733   0.877   4.624   5.868  0.5595  0.0667 -0.3253
 8440TIP3   OH246734   3.678   0.472  13.859  0.3511 -0.7033  0.3311
 8440TIP3    H146735   3.700   0.543  13.798  0.9717  0.2508  1.6099
 8440TIP3    H246736   3.709   0.393  13.815 -0.3403 -0.2135 -1.1316
 8441TIP3   OH246737   1.691   4.621  13.921 -0.3486 -0.5375  0.0964
 8441TIP3    H146738   1.707   4.569  13.999  0.1110 -0.9264 -0.2494
 8441TIP3    H246739   1.778   4.641  13.886 -0.5450 -0.3842 -0.3212
 8442TIP3   OH246740   2.606   0.814  14.867 -0.3368 -0.1537  0.2240
 8442TIP3    H146741   2.655   0.732  14.875 -0.0279 -0.1364 -1.1907
 8442TIP3    H246742   2.536   0.807  14.933 -0.6832 -1.8285 -0.2649
 8443TIP3   OH246743   1.720   0.740   2.792  0.3121  0.0439  0.4827
 8443TIP3    H146744   1.665   0.745   2.714  1.2716 -2.6595 -0.4739
 8443TIP3    H246745   1.672   0.791   2.858 -1.4764  0.8308 -1.3066
 8444TIP3   OH246746   5.405   6.537  11.749 -0.1881  0.4073 -0.9313
 8444TIP3    H146747   5.439   6.599  11.814  0.6195 -0.8951 -0.0522
 8444TIP3    H246748   5.333   6.583  11.707  0.4885  1.9951 -0.4324
 8445TIP3   OH246749   6.307   3.480   5.156 -0.2318 -0.2313  0.2372
 8445TIP3    H146750   6.377   3.446   5.211 -1.5874 -1.2760  1.3834
 8445TIP3    H246751   6.229   3.434   5.185 -1.1115 -0.4371 -2.2448
 8446TIP3   OH246752   2.297   6.566   0.521  0.3953 -0.4626  0.3908
 8446TIP3    H146753   2.352   6.524   0.454 -0.7353 -1.7445  0.2213
 8446TIP3    H246754   2.302   6.507   0.596  0.3165  0.1134  0.8566
 8447TIP3   OH246755   0.446   6.157  11.906 -0.2449  0.1920  0.2595
 8447TIP3    H146756   0.445   6.069  11.870 -0.1659  0.8996 -1.6093
 8447TIP3    H246757   0.537   6.174  11.927 -0.1997 -0.0454  0.2507
 8448TIP3   OH246758   5.438   1.518  10.992 -0.2617  0.0566 -0.1569
 8448TIP3    H146759   5.474   1.486  11.075 -0.8368  1.2727  0.5914
 8448TIP3    H246760   5.512   1.516  10.931 -0.2203 -2.5138 -0.1512
 8449TIP3   OH246761   3.196   3.836   0.501  0.1913  0.1140 -0.5634
 8449TIP3    H146762   3.144   3.766   0.462 -1.1719  0.8009 -0.0268
 8449TIP3    H246763   3.156   3.916   0.469 -1.0041  0.7240  2.1942
 8450TIP3   OH246764   1.716   4.064  16.289 -0.5525 -0.1493  0.3039
 8450TIP3    H146765   1.782   4.110  16.238 -1.0510  0.5347  0.2579
 8450TIP3    H246766   1.688   4.128  16.355  0.8704 -1.3437  2.1862
 8451TIP3   OH246767   6.751   5.294   3.237  0.1020  0.1926  0.0583
 8451TIP3    H146768   6.662   5.328   3.240 -0.1028 -0.2365 -0.9810
 8451TIP3    H246769   6.760   5.244   3.318 -0.3878  0.7308  0.4582
 8452TIP3   OH246770   1.543   5.350   3.751  0.0291  0.2193  0.0456
 8452TIP3    H146771   1.601   5.312   3.817 -1.2172 -0.2510  0.9301
 8452TIP3    H246772   1.461   5.302   3.762 -0.9311  1.7208 -0.2731
 8453TIP3   OH246773   1.888   4.989  13.889 -0.3928  0.3559 -0.1116
 8453TIP3    H146774   1.908   4.989  13.796  0.6199  1.4788  0.0874
 8453TIP3    H246775   1.968   5.020  13.931 -0.7681 -0.3291  1.1522
 8454TIP3   OH246776   0.497   4.558  16.515 -0.4494  0.1865 -0.4213
 8454TIP3    H146777   0.472   4.489  16.576  0.1131  1.0317  0.8088
 8454TIP3    H246778   0.425   4.562  16.452 -0.4795 -1.5200 -0.5447
 8455TIP3   OH246779   0.996   6.584  12.443  0.2670 -0.4621  0.5991
 8455TIP3    H146780   0.965   6.581  12.353  0.9987  0.3566  0.3108
 8455TIP3    H246781   0.944   6.517  12.488 -1.5898  0.5054  0.0314
 8456TIP3   OH246782   4.628   0.318  16.585  0.0643  0.1849 -0.4278
 8456TIP3    H146783   4.593   0.257  16.650 -0.5855  0.8084 -0.1850
 8456TIP3    H246784   4.712   0.279  16.558  1.5576  1.0580  2.5321
 8457TIP3   OH246785   6.428   5.030   4.844 -0.3723  0.7084  0.2638
 8457TIP3    H146786   6.446   5.093   4.774 -0.4457 -2.1427 -2.5760
 8457TIP3    H246787   6.335   5.041   4.863 -0.4794  1.1683 -0.4945
 8458TIP3   OH246788   0.850   0.516   0.174  0.4920  0.5681  0.1826
 8458TIP3    H146789   0.782   0.470   0.124 -1.4163 -1.3511  4.1212
 8458TIP3    H246790   0.834   0.609   0.154 -1.5760  0.0297 -1.0507
 8459TIP3   OH246791   2.489   0.228   4.478 -0.4972  0.6872  0.2353
 8459TIP3    H146792   2.571   0.260   4.439 -0.5429  0.4070 -0.0967
 8459TIP3    H246793   2.434   0.306   4.484 -0.2515  0.8530  0.3365
 8460TIP3   OH246794   5.155   5.893  16.070 -0.3971  0.4011 -1.1497
 8460TIP3    H146795   5.206   5.960  16.115  0.3483  0.0831 -1.4894
 8460TIP3    H246796   5.167   5.814  16.123  0.9548 -0.1199 -2.1531
 8461TIP3   OH246797   6.505   1.508  17.187  0.1226  0.0357 -0.2430
 8461TIP3    H146798   6.585   1.464  17.160  0.4055 -0.3266  1.1075
 8461TIP3    H246799   6.452   1.438  17.226 -1.0417  0.1871 -1.4855
 8462TIP3   OH246800   1.179   4.992   4.531 -0.1455  0.2475 -0.3596
 8462TIP3    H146801   1.211   4.903   4.520  0.5246  0.5150 -0.6397
 8462TIP3    H246802   1.091   4.982   4.567  1.0454 -0.5152  2.6551
 8463TIP3   OH246803   3.858   2.466  15.532  0.0733  0.2500 -0.1036
 8463TIP3    H146804   3.776   2.514  15.526 -0.5013 -0.6792  0.1355
 8463TIP3    H246805   3.863   2.437  15.623 -0.2561 -1.2601 -0.5394
 8464TIP3   OH246806   0.172   1.162  12.841  0.1391  0.1225 -0.1812
 8464TIP3    H146807   0.087   1.158  12.797 -0.4005  0.4347  0.8111
 8464TIP3    H246808   0.215   1.079  12.818 -0.2641  0.1421 -1.0201
 8465TIP3   OH246809   5.678   1.409  16.960 -0.6010  0.5541  0.6652
 8465TIP3    H146810   5.628   1.467  16.903  0.7344  0.5421 -0.5873
 8465TIP3    H246811   5.767   1.412  16.925  0.5553  1.4216  3.4402
 8466TIP3   OH246812   2.700   3.044   2.160  0.3262 -0.2895  0.0540
 8466TIP3    H146813   2.761   2.970   2.162  0.0313 -0.5315  0.0835
 8466TIP3    H246814   2.746   3.111   2.109  1.8334  0.6002  2.4218
 8467TIP3   OH246815   1.750   2.475  11.964  0.4084 -0.0550  0.2576
 8467TIP3    H146816   1.657   2.496  11.962  0.1210 -1.3281 -1.2017
 8467TIP3    H246817   1.794   2.559  11.953 -0.6113  0.3468 -0.8938
 8468TIP3   OH246818   1.718   0.199  11.842  0.3501 -0.0984 -0.2831
 8468TIP3    H146819   1.804   0.226  11.810  0.9276  0.3628  1.5449
 8468TIP3    H246820   1.691   0.269  11.901 -0.7640 -0.7701  0.0368
 8469TIP3   OH246821   4.798   3.178  12.747  0.1750 -0.0263  0.0602
 8469TIP3    H146822   4.879   3.168  12.696  0.4658 -1.8415  0.7882
 8469TIP3    H246823   4.828   3.188  12.837 -0.3181  3.7088 -0.0530
 8470TIP3   OH246824   5.083   1.660  10.530 -0.3455 -0.2958  0.2044
 8470TIP3    H146825   5.096   1.741  10.481  1.0665 -0.1250  0.8032
 8470TIP3    H246826   5.106   1.590  10.469 -1.4923 -0.2633 -0.2894
 8471TIP3   OH246827   2.370   2.196  17.069 -0.0728 -0.1932  0.1782
 8471TIP3    H146828   2.351   2.117  17.017 -2.1681 -0.0086  0.5743
 8471TIP3    H246829   2.454   2.177  17.110  1.2830 -0.6841 -2.5798
 8472TIP3   OH246830   1.667   1.014  12.242  0.0222 -0.0674  0.9277
 8472TIP3    H146831   1.577   1.037  12.267 -0.2506  0.2231 -0.2750
 8472TIP3    H246832   1.686   1.070  12.167  1.9748  1.3862  2.4065
 8473TIP3   OH246833   3.476   3.539   6.663 -0.3575 -0.1800 -0.3518
 8473TIP3    H146834   3.501   3.630   6.676 -2.7465  0.6815 -1.1124
 8473TIP3    H246835   3.558   3.490   6.664  1.1366  2.1595 -1.4003
 8474TIP3   OH246836   5.769   0.735  13.985 -1.0703 -0.1319  0.0628
 8474TIP3    H146837   5.835   0.782  13.934 -0.6321 -0.9960 -0.2035
 8474TIP3    H246838   5.687   0.781  13.967 -0.8300 -0.0749 -0.9981
 8475TIP3   OH246839   3.867   3.720  11.860  0.5189  0.1916  0.1272
 8475TIP3    H146840   3.904   3.697  11.774 -1.4315  0.5067 -0.8497
 8475TIP3    H246841   3.869   3.815  11.862 -0.9942  0.2647 -0.3451
 8476TIP3   OH246842   2.236   0.528  11.606  0.1703  0.0556  0.2781
 8476TIP3    H146843   2.142   0.534  11.592 -0.0233 -0.3842  1.2984
 8476TIP3    H246844   2.250   0.439  11.639  1.1092 -0.3110 -1.0446
 8477TIP3   OH246845   2.041   0.660  14.158  0.0596 -0.9157  0.1956
 8477TIP3    H146846   2.123   0.619  14.186  1.0407  0.8130 -0.0157
 8477TIP3    H246847   2.039   0.744  14.205 -0.5953 -0.0584 -1.3007
 8478TIP3   OH246848   5.484   4.507   3.546 -0.6199 -0.5943  0.3494
 8478TIP3    H146849   5.482   4.424   3.593  2.0184 -1.1102 -0.2921
 8478TIP3    H246850   5.465   4.573   3.613  0.5180 -1.4898  1.5898
 8479TIP3   OH246851   4.183   2.743  16.440  0.2698 -0.5711 -0.3205
 8479TIP3    H146852   4.155   2.675  16.378 -1.1250  0.1650 -0.5284
 8479TIP3    H246853   4.122   2.734  16.514 -2.0739  2.4310 -1.6921
 8480TIP3   OH246854   2.683   5.426  16.073 -0.0191 -0.3394  0.3541
 8480TIP3    H146855   2.709   5.400  16.162 -0.6936 -2.0182  0.1051
 8480TIP3    H246856   2.763   5.413  16.021  0.1410 -0.1816  0.5551
 8481TIP3   OH246857   4.862   6.680  17.004  0.5504  0.4431 -0.1929
 8481TIP3    H146858   4.908   6.752  17.048  1.1372 -0.4731  0.7288
 8481TIP3    H246859   4.850   6.614  17.071  0.3382 -0.4809 -1.1094
 8482TIP3   OH246860   6.252   3.258   3.555  0.1828  0.0248 -0.4978
 8482TIP3    H146861   6.247   3.326   3.622  0.4554  0.3558 -0.8087
 8482TIP3    H246862   6.233   3.177   3.602  1.3899  0.1181  0.1918
 8483TIP3   OH246863   2.520   3.583  12.689  0.2288 -0.5367 -0.0237
 8483TIP3    H146864   2.569   3.661  12.714  1.8888 -1.4393 -0.2740
 8483TIP3    H246865   2.432   3.614  12.670  0.3058  0.9664  1.7946
 8484TIP3   OH246866   3.563   6.528  12.494 -0.5157 -0.4764 -0.1746
 8484TIP3    H146867   3.626   6.476  12.544 -0.7633  0.3789  1.0944
 8484TIP3    H246868   3.541   6.474  12.418  0.5331 -1.4590  0.1988
 8485TIP3   OH246869   3.062   1.110   5.809 -0.0935 -0.2442  0.0706
 8485TIP3    H146870   2.975   1.101   5.769 -0.6205  0.1060  1.1152
 8485TIP3    H246871   3.047   1.099   5.903  0.9332  0.2387  0.3079
 8486TIP3   OH246872   0.576   1.921   3.804  0.4423  0.3397 -0.1016
 8486TIP3    H146873   0.533   1.890   3.883 -2.9134  0.0133 -1.8550
 8486TIP3    H246874   0.634   1.849   3.778 -0.5321 -0.7318  0.6017
 8487TIP3   OH246875   0.295   1.203   2.661  0.1952 -0.7604  0.6092
 8487TIP3    H146876   0.204   1.185   2.638 -0.0288 -2.0309  2.3186
 8487TIP3    H246877   0.345   1.179   2.582 -0.7357 -2.5664  0.5197
 8488TIP3   OH246878   2.910   2.488  14.170 -0.0743  0.0228  0.2601
 8488TIP3    H146879   3.001   2.458  14.182 -0.2797 -0.0506  1.8014
 8488TIP3    H246880   2.857   2.419  14.211 -0.9092 -0.4115 -1.4600
 8489TIP3   OH246881   6.498   6.523   4.154  0.3859 -0.2600 -0.7111
 8489TIP3    H146882   6.544   6.448   4.192  0.4195 -0.3364 -0.8983
 8489TIP3    H246883   6.431   6.484   4.098  0.4354 -0.1508 -0.8483
 8490TIP3   OH246884   6.508   0.040   0.754  0.6083 -0.1951 -0.4715
 8490TIP3    H146885   6.438   0.022   0.691  1.4162  0.6839 -1.6675
 8490TIP3    H246886   6.469   0.103   0.815 -0.0618 -0.7576 -0.2996
 8491TIP3   OH246887   2.462   2.505  16.614 -0.3530  0.8059  0.2276
 8491TIP3    H146888   2.371   2.491  16.640 -1.3430  1.3709 -2.5309
 8491TIP3    H246889   2.464   2.595  16.581  0.7596  0.2924 -1.2188
 8492TIP3   OH246890   1.089   6.515  13.681  0.0787 -0.0786 -0.1553
 8492TIP3    H146891   1.110   6.605  13.706  1.1325  0.0633 -1.4471
 8492TIP3    H246892   0.999   6.520  13.648  0.6140  0.8071 -1.5598
 8493TIP3   OH246893   1.360   2.149  10.990  0.8983 -0.0644 -0.1744
 8493TIP3    H146894   1.444   2.118  11.024  0.8544  0.0838  0.0732
 8493TIP3    H246895   1.358   2.242  11.012  1.3825  0.3181 -1.6241
 8494TIP3   OH246896   5.238   3.844   4.445 -0.2409  0.1054 -0.1973
 8494TIP3    H146897   5.229   3.935   4.415 -2.2676  0.4843  1.3447
 8494TIP3    H246898   5.249   3.851   4.540  1.1895 -1.2206 -0.2445
 8495TIP3   OH246899   4.742   0.013   0.023 -0.4356  0.0736  0.2275
 8495TIP3    H146900   4.748   0.081   0.090 -0.0225 -0.9088  1.2080
 8495TIP3    H246901   4.797   0.046  -0.049 -0.6695  1.0130  0.4624
 8496TIP3   OH246902   5.019   4.679  17.231 -0.1486  0.2623  0.0888
 8496TIP3    H146903   4.939   4.731  17.238 -0.1858  0.2087  0.0633
 8496TIP3    H246904   4.994   4.593  17.266 -0.5952 -0.3010 -1.5139
 8497TIP3   OH246905   3.353   4.518   2.083  0.2929  0.4897  0.1212
 8497TIP3    H146906   3.320   4.514   1.993  0.4201  0.2957  0.0823
 8497TIP3    H246907   3.382   4.608   2.095  1.6939  0.1468 -0.5335
 8498TIP3   OH246908   5.885   4.976  11.387 -0.2669  0.5637 -0.9702
 8498TIP3    H146909   5.918   5.065  11.400 -0.0457  0.2103  1.1778
 8498TIP3    H246910   5.957   4.931  11.343  1.0059  0.6256  0.9050
 8499TIP3   OH246911   4.922   2.988   4.292 -0.0558 -0.0247 -0.0390
 8499TIP3    H146912   4.985   3.052   4.326  2.1483 -1.0148 -1.9844
 8499TIP3    H246913   4.886   2.947   4.370 -0.4153  2.4764  1.2265
 8500TIP3   OH246914   0.897   5.878  13.980  0.6830  0.4497  0.7692
 8500TIP3    H146915   0.867   5.788  13.963 -0.1649  0.7579  0.6096
 8500TIP3    H246916   0.986   5.867  14.014  0.9801 -0.3988 -0.2160
 8501TIP3   OH246917   5.833   0.851   5.561 -0.2094  0.1114  0.6158
 8501TIP3    H146918   5.864   0.935   5.526 -1.9264 -0.0676 -1.5754
 8501TIP3    H246919   5.905   0.791   5.547  0.2527  0.7492  0.1816
 8502TIP3   OH246920   0.981   3.950  12.908 -0.5206 -0.3050 -0.8012
 8502TIP3    H146921   0.984   4.045  12.915  0.2372 -0.2301 -1.9781
 8502TIP3    H246922   0.904   3.924  12.960  1.2266  0.6303  2.5311
 8503TIP3   OH246923   1.312   3.214  15.191 -0.3915 -0.1794  0.5611
 8503TIP3    H146924   1.326   3.262  15.273 -0.7013 -0.2139  0.6380
 8503TIP3    H246925   1.228   3.247  15.158 -0.2348 -0.1168  0.2212
 8504TIP3   OH246926   4.855   5.597  16.523 -0.4363 -0.2407 -0.3500
 8504TIP3    H146927   4.896   5.523  16.478 -1.9448 -0.1971 -1.8758
 8504TIP3    H246928   4.805   5.558  16.595  0.6611 -0.4575  0.3184
 8505TIP3   OH246929   5.208   0.082  13.425 -0.1447 -0.6533  0.0822
 8505TIP3    H146930   5.112   0.073  13.424 -0.1167 -1.0201 -1.0664
 8505TIP3    H246931   5.225   0.160  13.373  0.1123  0.4417  1.7574
 8506TIP3   OH246932   4.708   2.628  16.379 -0.1969  0.1254 -0.5217
 8506TIP3    H146933   4.628   2.680  16.378 -0.4091 -0.1779  0.1385
 8506TIP3    H246934   4.700   2.569  16.304 -1.0724 -0.6076  0.1199
 8507TIP3   OH246935   2.997   2.183   4.301 -0.5287 -0.1847  0.6117
 8507TIP3    H146936   3.043   2.117   4.250 -0.5534  0.1706  0.1216
 8507TIP3    H246937   2.956   2.134   4.373 -0.4849 -0.6891  0.2980
 8508TIP3   OH246938   0.352   0.426   5.308 -0.2106 -0.4647 -0.3643
 8508TIP3    H146939   0.283   0.396   5.249 -0.4814 -1.9489  0.6465
 8508TIP3    H246940   0.305   0.447   5.390  0.3054  0.3805 -0.2740
 8509TIP3   OH246941   4.082   5.245  17.281  0.1108 -0.0121  0.3116
 8509TIP3    H146942   4.095   5.311  17.350 -0.1899  0.8595 -0.4515
 8509TIP3    H246943   4.006   5.195  17.309  0.5394 -0.2666  1.0605
 8510TIP3   OH246944   6.376   1.594  13.907  0.5958 -0.2187 -0.3150
 8510TIP3    H146945   6.441   1.615  13.841  0.5197  2.4087  0.3592
 8510TIP3    H246946   6.376   1.668  13.967 -3.8517  0.6000 -0.9451
 8511TIP3   OH246947   6.573   5.959   2.172  0.3250  0.5326 -0.1515
 8511TIP3    H146948   6.546   5.900   2.242  0.4015 -1.1540 -1.4557
 8511TIP3    H246949   6.667   5.946   2.164  0.1669 -0.1322 -1.2393
 8512TIP3   OH246950   2.112   3.102  14.591  0.6474  0.2192  0.1858
 8512TIP3    H146951   2.142   3.012  14.577  1.3964  0.3776  0.6982
 8512TIP3    H246952   2.098   3.136  14.503 -2.2545 -1.2138 -0.0070
 8513TIP3   OH246953   0.286   3.613  13.710  0.5782  0.2203  0.0634
 8513TIP3    H146954   0.250   3.539  13.760 -0.5232 -0.0631 -1.1125
 8513TIP3    H246955   0.346   3.572  13.647 -1.0934  0.1538 -1.5366
 8514TIP3   OH246956   0.667   3.807  15.672  0.5197  0.2651 -0.7682
 8514TIP3    H146957   0.664   3.812  15.577  0.4243  0.2656 -0.7654
 8514TIP3    H246958   0.725   3.878  15.698  1.6617 -0.5863 -0.9031
 8515TIP3   OH246959   6.053   2.938  14.376 -0.5768 -0.0406 -0.0590
 8515TIP3    H146960   6.117   2.881  14.335 -0.5989  0.9330 -1.5139
 8515TIP3    H246961   6.028   2.892  14.456 -0.4222 -1.9333 -1.0507
 8516TIP3   OH246962   5.918   0.741   1.100 -0.0818 -0.0145 -0.0110
 8516TIP3    H146963   5.950   0.702   1.019 -2.9990 -1.5744 -0.5843
 8516TIP3    H246964   5.970   0.820   1.111  2.5417 -1.3673 -1.6817
 8517TIP3   OH246965   5.765   3.748   5.911  0.0379  0.0861 -0.1551
 8517TIP3    H146966   5.846   3.757   5.960  0.4141  0.0065 -0.7433
 8517TIP3    H246967   5.718   3.677   5.955 -0.3331  1.0407  1.0017
 8518TIP3   OH246968   5.293   3.640   4.140  0.4036  0.1538  0.2301
 8518TIP3    H146969   5.307   3.735   4.140  1.4547  0.0531 -1.3866
 8518TIP3    H246970   5.357   3.608   4.076  1.1581 -1.8173  1.8743
 8519TIP3   OH246971   0.090   5.991  15.371 -0.4540  0.4657 -0.2313
 8519TIP3    H146972   0.170   5.986  15.319 -0.3207  0.4470 -0.0253
 8519TIP3    H246973   0.094   6.077  15.412  0.0891 -0.0172  0.7799
 8520TIP3   OH246974   0.534   6.730  10.568  0.2399  0.4601  0.0792
 8520TIP3    H146975   0.605   6.667  10.576 -0.5213 -0.3768  0.5103
 8520TIP3    H246976   0.571   6.813  10.600  1.0265  0.0502  0.2497
 8521TIP3   OH246977   4.120   1.651  12.618 -0.0566 -0.4613  0.5409
 8521TIP3    H146978   4.120   1.625  12.710  0.5685 -2.4773  0.0321
 8521TIP3    H246979   4.210   1.637  12.589  0.1817  1.7943 -0.0063
 8522TIP3   OH246980   2.226   1.399   5.136 -0.7127 -0.0147  0.2461
 8522TIP3    H146981   2.214   1.305   5.119  0.6299 -0.1591  0.0086
 8522TIP3    H246982   2.202   1.441   5.053  0.1373 -0.2707 -0.1371
 8523TIP3   OH246983   4.130   4.574   3.695  0.3060  0.7155  0.2990
 8523TIP3    H146984   4.158   4.663   3.717 -0.7545  1.2043 -0.2626
 8523TIP3    H246985   4.210   4.521   3.704  0.6307  1.4287  2.1182
 8524TIP3   OH246986   4.036   0.915   0.090 -0.6354 -0.0154  0.6614
 8524TIP3    H146987   3.951   0.872   0.096 -0.6786  0.2607  2.4488
 8524TIP3    H246988   4.077   0.900   0.175  0.2586  1.5757  0.5458
 8525TIP3   OH246989   4.573   4.292   1.776  0.0720  0.2579 -0.5761
 8525TIP3    H146990   4.651   4.297   1.832 -0.0477  1.1819 -0.4758
 8525TIP3    H246991   4.505   4.254   1.833  0.7950 -1.9704 -1.0901
 8526TIP3   OH246992   5.664   3.603  14.283  0.0029  0.0285 -0.1234
 8526TIP3    H146993   5.626   3.690  14.298  2.4359  0.9247  1.5364
 8526TIP3    H246994   5.600   3.542  14.320 -0.5044  1.3358  1.2391
 8527TIP3   OH246995   3.099   5.168  16.639 -0.1519 -0.2827 -0.2350
 8527TIP3    H146996   3.135   5.102  16.580  0.0139 -1.3174  0.9874
 8527TIP3    H246997   3.043   5.222  16.584  1.7559  0.1859 -1.8120
 8528TIP3   OH246998   0.388   2.773  10.490 -0.0381 -0.1270  0.2646
 8528TIP3    H146999   0.343   2.693  10.518  0.0410 -0.3785 -0.3113
 8528TIP3    H247000   0.319   2.826  10.450 -0.2936  0.5359  1.5208
 8529TIP3   OH247001   6.665   2.836  11.667 -0.5066  0.4959 -0.8395
 8529TIP3    H147002   6.571   2.829  11.679 -0.1183 -1.1694  2.2173
 8529TIP3    H247003   6.691   2.750  11.634  0.2090 -0.1673  1.2921
 8530TIP3   OH247004   6.275   2.245   0.861  0.0913 -0.2701  0.3422
 8530TIP3    H147005   6.350   2.202   0.903 -0.5794  0.6825  2.6586
 8530TIP3    H247006   6.200   2.223   0.917 -1.2807 -0.6599 -1.5659
 8531TIP3   OH247007   5.956   0.541  11.694  0.7271 -0.4717 -0.5676
 8531TIP3    H147008   5.929   0.474  11.757  0.7985  0.4178  0.4287
 8531TIP3    H247009   6.000   0.607  11.747 -1.4242  1.5510 -1.1831
 8532TIP3   OH247010   6.308   0.109  15.913 -0.1889  0.0848 -0.2184
 8532TIP3    H147011   6.386   0.056  15.900  0.0211  0.2547  0.3327
 8532TIP3    H247012   6.278   0.086  16.001 -0.0834  0.8906  0.0361
 8533TIP3   OH247013   4.155   3.450   6.104 -0.1069 -0.3792  0.0394
 8533TIP3    H147014   4.153   3.361   6.138  0.0222  0.0324  1.1665
 8533TIP3    H247015   4.239   3.486   6.135  0.5918 -0.3609 -1.7501
 8534TIP3   OH247016   2.990   2.113   6.111 -0.0438  0.2494  0.2918
 8534TIP3    H147017   2.898   2.122   6.085 -0.1586  3.2014  1.3601
 8534TIP3    H247018   2.988   2.114   6.207  1.1271  0.9993  0.3264
 8535TIP3   OH247019   0.371   0.590  11.769  0.3551  0.0005 -0.4225
 8535TIP3    H147020   0.397   0.677  11.738  1.5453 -0.0173  0.4379
 8535TIP3    H247021   0.276   0.592  11.769  0.3588  1.4911  0.0559
 8536TIP3   OH247022   1.145   0.903   1.962 -0.2803 -0.5318  0.1188
 8536TIP3    H147023   1.220   0.947   1.922  0.7967 -1.5608  0.9268
 8536TIP3    H247024   1.079   0.972   1.973  0.3200  0.2770 -1.1306
 8537TIP3   OH247025   6.452   2.597   3.054 -0.0920 -0.4150  0.2021
 8537TIP3    H147026   6.491   2.513   3.078  1.2177 -0.2482 -1.1927
 8537TIP3    H247027   6.490   2.660   3.116 -0.2712 -0.6823  0.5875
 8538TIP3   OH247028   3.112   0.157  17.153  0.2151  0.3709 -0.0427
 8538TIP3    H147029   3.100   0.183  17.061 -0.2995 -0.5948 -0.2624
 8538TIP3    H247030   3.157   0.073  17.148 -0.3106  0.0485  0.5730
 8539TIP3   OH247031   3.642   1.465  15.668  0.6195 -0.4000  0.0117
 8539TIP3    H147032   3.671   1.554  15.685 -0.7191 -0.0267  0.4918
 8539TIP3    H247033   3.640   1.424  15.755 -0.1867 -0.4268 -0.0088
 8540TIP3   OH247034   4.173   1.735   3.144  0.6854 -0.3271  0.2824
 8540TIP3    H147035   4.193   1.827   3.164  0.0643 -0.0865 -0.1849
 8540TIP3    H247036   4.147   1.697   3.227 -1.7092  0.6189  0.0502
 8541TIP3   OH247037   3.252   5.675  13.510  0.3920 -0.0641  0.3351
 8541TIP3    H147038   3.329   5.695  13.565  1.2981  0.9589 -1.2414
 8541TIP3    H247039   3.217   5.760  13.485  1.8862 -0.2879 -3.1590
 8542TIP3   OH247040   3.179   0.794   1.420 -0.1054  0.1732 -0.5596
 8542TIP3    H147041   3.221   0.872   1.382 -1.6236  2.0602  1.3809
 8542TIP3    H247042   3.156   0.820   1.509 -2.0854 -1.9758 -0.3439
 8543TIP3   OH247043   0.099   5.080   1.759 -0.0058 -0.2599 -0.0452
 8543TIP3    H147044   0.096   5.170   1.790  2.0492 -1.2131  3.6252
 8543TIP3    H247045   0.007   5.053   1.755 -0.5801  1.1999  1.6976
 8544TIP3   OH247046   3.747   1.842   0.769  0.7213  0.0327 -0.4195
 8544TIP3    H147047   3.722   1.922   0.723 -0.3010  0.2345  0.4740
 8544TIP3    H247048   3.713   1.771   0.714 -1.2897  0.2849  0.4147
 8545TIP3   OH247049   1.207   5.474   3.829  0.8949  0.5623  0.0159
 8545TIP3    H147050   1.141   5.451   3.763  1.7933  1.2061 -1.1607
 8545TIP3    H247051   1.175   5.556   3.867 -0.1735 -0.3601  1.1984
 8546TIP3   OH247052   1.570   1.070   5.043 -0.0620  0.3397  0.5971
 8546TIP3    H147053   1.594   1.116   5.124 -2.7384  3.7936 -0.3060
 8546TIP3    H247054   1.491   1.020   5.067 -0.3457  0.6616  0.3454
 8547TIP3   OH247055   0.860   4.800   4.128  0.2406 -0.6969  0.5103
 8547TIP3    H147056   0.835   4.884   4.091  0.3432 -0.0931  1.7851
 8547TIP3    H247057   0.782   4.769   4.173  0.7087 -0.4718  1.4950
 8548TIP3   OH247058   4.803   2.772  16.035 -0.4371  0.2148  0.5125
 8548TIP3    H147059   4.824   2.857  16.073  1.1797  0.6363 -1.1549
 8548TIP3    H247060   4.714   2.782  16.002 -0.5452  1.0154  1.0226
 8549TIP3   OH247061   4.355   1.916   2.303  0.3795 -0.1483  0.3748
 8549TIP3    H147062   4.402   1.875   2.231  1.0365  0.0158  0.6944
 8549TIP3    H247063   4.424   1.953   2.358 -0.1965  2.4516 -0.5110
 8550TIP3   OH247064   2.264   3.027  16.759 -0.0788  1.0547  0.1263
 8550TIP3    H147065   2.278   3.074  16.841 -1.6099  0.4859  0.7512
 8550TIP3    H247066   2.250   3.095  16.694  1.6294  1.5287  0.2093
 8551TIP3   OH247067   5.338   0.989  17.133  0.3093  0.3105  0.9333
 8551TIP3    H147068   5.312   1.043  17.058 -0.3032  0.0764  0.9682
 8551TIP3    H247069   5.363   1.052  17.200 -0.8708  0.5854  1.1421
 8552TIP3   OH247070   3.915   0.865   4.383  0.2457  0.0105 -0.9715
 8552TIP3    H147071   3.934   0.833   4.295 -1.0570  0.5714 -1.4774
 8552TIP3    H247072   3.939   0.958   4.380  1.0948 -0.1763 -0.4298
 8553TIP3   OH247073   5.729   0.227   0.691 -0.1424  0.1699 -0.1639
 8553TIP3    H147074   5.727   0.160   0.759 -0.3790  1.3366  1.0127
 8553TIP3    H247075   5.642   0.267   0.694 -0.0963  0.3487 -1.0368
 8554TIP3   OH247076   0.120   5.832  13.578 -0.5588 -0.1179  0.0102
 8554TIP3    H147077   0.164   5.916  13.571 -1.4834  0.3879  0.0595
 8554TIP3    H247078   0.076   5.820  13.494 -0.0791 -0.7633 -0.1546
 8555TIP3   OH247079   2.410   6.740   4.178 -0.0828 -0.3472  0.2506
 8555TIP3    H147080   2.379   6.652   4.159 -1.9644  0.4437 -0.5617
 8555TIP3    H247081   2.433   6.738   4.271 -5.0012 -0.4474  1.7001
 8556TIP3   OH247082   2.115   3.002  17.213  0.7638  0.3583 -0.1912
 8556TIP3    H147083   2.065   3.002  17.294  0.5612  0.0574 -0.3157
 8556TIP3    H247084   2.056   3.040  17.148  1.1071  1.0829 -0.0933
 8557TIP3   OH247085   6.425   4.452  14.431 -0.2832  0.2937 -0.5630
 8557TIP3    H147086   6.495   4.517  14.429  0.8791 -0.9144 -0.4485
 8557TIP3    H247087   6.354   4.492  14.381  0.9454  1.0436 -1.7675
 8558TIP3   OH247088   2.099   3.217  14.021  0.0633 -0.2701  0.2361
 8558TIP3    H147089   2.085   3.138  13.968 -1.0341 -0.2290  0.4371
 8558TIP3    H247090   2.174   3.260  13.980  0.0732 -0.9228 -0.4652
 8559TIP3   OH247091   0.133   6.199   3.347  0.0356  0.4214  0.3410
 8559TIP3    H147092   0.097   6.111   3.337 -0.9517  0.6421  1.5904
 8559TIP3    H247093   0.168   6.221   3.261  0.8076 -1.3894  0.1541
 8560TIP3   OH247094   5.057   5.877   1.266 -0.0030 -0.4981 -0.0779
 8560TIP3    H147095   5.144   5.876   1.228 -0.3440 -1.7239 -0.8807
 8560TIP3    H247096   5.049   5.793   1.312 -1.0997 -0.8637 -0.8722
 8561TIP3   OH247097   2.534   2.582  11.992 -0.2885  0.0821  0.3070
 8561TIP3    H147098   2.505   2.550  11.907  0.4450  0.3909 -0.0648
 8561TIP3    H247099   2.505   2.515  12.054  2.2416 -2.0011 -0.5608
 8562TIP3   OH247100   0.994   0.180   2.201 -0.6122  0.5337 -0.0331
 8562TIP3    H147101   0.914   0.170   2.253 -0.8825  1.8606 -0.1384
 8562TIP3    H247102   0.962   0.196   2.112 -0.2016  0.1898 -0.2465
 8563TIP3   OH247103   2.314   0.199  13.001  0.2746 -0.4237  0.0385
 8563TIP3    H147104   2.234   0.249  12.988  1.0049  1.2643  1.5984
 8563TIP3    H247105   2.285   0.118  13.043 -0.7646 -0.6748 -1.1073
 8564TIP3   OH247106   6.342   0.644   3.272  0.2391 -1.1137 -0.1533
 8564TIP3    H147107   6.316   0.719   3.220  1.8335 -0.1528  0.3680
 8564TIP3    H247108   6.382   0.583   3.210 -2.2391 -2.2027 -0.8059
 8565TIP3   OH247109   4.685   0.733   5.610  0.2808  0.1118 -0.6644
 8565TIP3    H147110   4.673   0.682   5.690 -0.2055 -0.1609 -0.9042
 8565TIP3    H247111   4.770   0.706   5.576  0.8706  0.8417  0.1954
 8566TIP3   OH247112   6.125   4.015  13.602  0.0158 -0.6078  0.0724
 8566TIP3    H147113   6.203   4.000  13.549  0.0979 -2.0282  0.5521
 8566TIP3    H247114   6.149   4.086  13.661  0.1493  0.5288 -1.2798
 8567TIP3   OH247115   2.171   5.438   2.228 -0.1438  0.6891 -1.1747
 8567TIP3    H147116   2.077   5.427   2.211 -0.3905  2.3203 -1.0651
 8567TIP3    H247117   2.213   5.370   2.176 -1.4671 -1.3947  0.3314
 8568TIP3   OH247118   5.983   4.563  15.052  0.1606  0.2687 -0.2295
 8568TIP3    H147119   5.904   4.574  14.998 -0.3857 -0.4032  0.4064
 8568TIP3    H247120   5.950   4.564  15.142  1.1466  2.1339  0.1590
 8569TIP3   OH247121   3.404   3.279   2.646  0.0419  0.0647 -0.2607
 8569TIP3    H147122   3.340   3.214   2.676  0.0103 -0.4307 -1.3509
 8569TIP3    H247123   3.378   3.298   2.556  0.8959  0.5368 -0.4174
 8570TIP3   OH247124   5.311   2.822  11.358  0.2520  0.0673 -0.5754
 8570TIP3    H147125   5.347   2.767  11.427 -0.2327 -0.6275 -0.8685
 8570TIP3    H247126   5.377   2.821  11.288 -0.6756 -1.9485 -1.4978
 8571TIP3   OH247127   4.286   5.263   0.510 -0.1758 -0.2851 -0.7416
 8571TIP3    H147128   4.253   5.228   0.427 -0.0267 -0.1959 -0.8373
 8571TIP3    H247129   4.227   5.225   0.576 -0.5504 -0.0260 -0.9234
 8572TIP3   OH247130   1.919   3.298  11.147 -0.5959  0.2487  0.4405
 8572TIP3    H147131   2.009   3.317  11.118 -0.8185 -0.5084 -0.8259
 8572TIP3    H247132   1.880   3.251  11.073 -1.9271  0.2503  1.1222
 8573TIP3   OH247133   1.797   4.536  10.649 -0.4418  0.5274  0.2546
 8573TIP3    H147134   1.729   4.516  10.585 -0.5220 -3.0020  1.2407
 8573TIP3    H247135   1.873   4.486  10.620  1.6595  3.7997 -0.4025
 8574TIP3   OH247136   2.591   4.661   0.886 -0.1427 -0.1549  0.1489
 8574TIP3    H147137   2.604   4.695   0.798  0.2513  1.4184  0.7887
 8574TIP3    H247138   2.505   4.619   0.883 -1.5258  2.5328 -0.2270
 8575TIP3   OH247139   4.512   1.112  12.606 -0.5986 -0.0170  0.1412
 8575TIP3    H147140   4.570   1.100  12.531  0.2202 -1.6993  0.9788
 8575TIP3    H247141   4.441   1.049  12.591 -2.1029  1.7762 -0.7012
 8576TIP3   OH247142   3.483   3.073   3.920  0.0388 -0.1296 -0.2793
 8576TIP3    H147143   3.438   3.146   3.961  0.8673 -1.1192  2.5823
 8576TIP3    H247144   3.529   3.112   3.845 -0.7860  1.9380  0.2342
 8577TIP3   OH247145   2.225   2.401  16.025  0.0486  0.4700 -0.4039
 8577TIP3    H147146   2.247   2.386  15.933  0.8070  1.9566 -0.4922
 8577TIP3    H247147   2.162   2.331  16.046 -0.0837  0.0575 -2.0183
 8578TIP3   OH247148   1.606   0.358   3.354 -0.4866  0.6659  0.1780
 8578TIP3    H147149   1.650   0.371   3.269  1.7414 -0.1016  1.1444
 8578TIP3    H247150   1.521   0.400   3.343  0.0776  1.3634 -2.1523
 8579TIP3   OH247151   4.728   1.138   2.375  0.1315 -0.7525 -0.6323
 8579TIP3    H147152   4.714   1.144   2.469  0.8500 -2.4435 -0.3789
 8579TIP3    H247153   4.707   1.225   2.342  0.7739  0.1512  1.2082
 8580TIP3   OH247154   1.645   0.898  14.631 -0.5598 -0.6744  0.5601
 8580TIP3    H147155   1.583   0.941  14.690 -2.2041 -1.4157 -0.5211
 8580TIP3    H247156   1.620   0.805  14.635 -1.3761 -0.6363 -1.9356
 8581TIP3   OH247157   1.889   4.396  15.581 -0.3453  0.1335 -0.1146
 8581TIP3    H147158   1.942   4.323  15.614 -1.3990 -0.0800  1.1753
 8581TIP3    H247159   1.831   4.357  15.516 -0.5318 -0.0784  0.1783
 8582TIP3   OH247160   0.189   3.472   1.299  0.2159  0.8222  1.1189
 8582TIP3    H147161   0.102   3.494   1.264  0.0082  0.6613  1.5256
 8582TIP3    H247162   0.243   3.547   1.277  1.0773 -0.7562 -2.8571
 8583TIP3   OH247163   3.683   2.330  13.647 -0.0587 -0.3920  0.1608
 8583TIP3    H147164   3.699   2.303  13.738  0.5043  1.1434  0.5457
 8583TIP3    H247165   3.613   2.394  13.653 -0.3015 -0.5806 -0.5501
 8584TIP3   OH247166   4.424   2.940   1.148 -0.3326  0.1645  1.0380
 8584TIP3    H147167   4.358   2.994   1.191 -0.4952 -0.2511  1.3211
 8584TIP3    H247168   4.376   2.862   1.120 -0.4805  0.8724 -0.8652
 8585TIP3   OH247169   5.637   6.305  14.283 -0.1606  0.1488  0.2927
 8585TIP3    H147170   5.585   6.378  14.250  0.1156  0.2443  0.0554
 8585TIP3    H247171   5.592   6.276  14.362 -0.2294  0.6228  0.4272
 8586TIP3   OH247172   4.834   1.767   5.862 -0.1650 -0.2518  0.1706
 8586TIP3    H147173   4.851   1.841   5.920  0.4077  1.3161 -1.8838
 8586TIP3    H247174   4.906   1.769   5.799 -0.4439 -2.2440 -0.2645
 8587TIP3   OH247175   6.388   0.961  16.513 -0.0207  0.4375  0.4096
 8587TIP3    H147176   6.386   1.036  16.454 -0.1650  1.0742  1.2010
 8587TIP3    H247177   6.477   0.960  16.549  0.1886 -0.1835 -0.0948
 8588TIP3   OH247178   6.494   0.517   1.388  0.2678 -0.2196  0.0274
 8588TIP3    H147179   6.525   0.463   1.315  0.1841 -2.6390  1.6618
 8588TIP3    H247180   6.553   0.496   1.460 -0.0810  1.5795  0.8887
 8589TIP3   OH247181   2.097   4.380   5.304 -0.0705  0.0897  0.1223
 8589TIP3    H147182   2.095   4.285   5.318  1.7077  0.1783  1.3620
 8589TIP3    H247183   2.071   4.391   5.213 -0.2665 -1.5926 -0.0683
 8590TIP3   OH247184   5.751   3.207  13.091  0.5434 -0.0853  0.7171
 8590TIP3    H147185   5.740   3.287  13.142 -1.6100  2.0708 -2.7456
 8590TIP3    H247186   5.680   3.209  13.028  2.7069 -2.7225 -2.0956
 8591TIP3   OH247187   5.394   5.005  12.852 -0.2410  0.3371  0.1032
 8591TIP3    H147188   5.401   4.999  12.756  0.2069  1.6959  0.0363
 8591TIP3    H247189   5.355   5.090  12.868 -1.0701 -0.2180  1.1285
 8592TIP3   OH247190   2.204   4.976   3.510  0.3256  0.1449  1.0414
 8592TIP3    H147191   2.129   5.028   3.539 -1.7143 -1.1368 -1.4075
 8592TIP3    H247192   2.172   4.885   3.515  1.6181 -0.4214 -0.2768
 8593TIP3   OH247193   6.410   5.454  12.793  0.0491 -0.5192 -0.2714
 8593TIP3    H147194   6.468   5.379  12.778  0.0692 -0.5372 -0.1056
 8593TIP3    H247195   6.469   5.530  12.797  0.1821 -0.6652  0.9814
 8594TIP3   OH247196   4.557   6.556   4.470 -0.1866 -0.1089  0.7467
 8594TIP3    H147197   4.640   6.519   4.442  0.9207  1.9273  1.1621
 8594TIP3    H247198   4.580   6.621   4.536 -1.7141  2.9329 -1.4453
 8595TIP3   OH247199   2.675   2.927  16.298  0.4486  0.5231 -0.4901
 8595TIP3    H147200   2.754   2.980  16.293 -0.3810  1.8395 -0.1281
 8595TIP3    H247201   2.655   2.905  16.207  0.6090  1.1515 -0.6826
 8596TIP3   OH247202   2.565   3.837   5.149 -0.0254  0.5481  0.4443
 8596TIP3    H147203   2.613   3.813   5.069 -2.0897  0.2889 -0.7856
 8596TIP3    H247204   2.632   3.872   5.207  1.6767  0.0476 -1.1109
 8597TIP3   OH247205   6.278   4.286   5.794 -0.1506  0.3312 -0.0857
 8597TIP3    H147206   6.345   4.217   5.784  0.7865  1.1251  0.4959
 8597TIP3    H247207   6.233   4.263   5.875 -0.9754 -0.5040 -0.7536
 8598TIP3   OH247208   5.828   5.240  16.446  0.1799 -0.2034  0.3139
 8598TIP3    H147209   5.863   5.278  16.526  0.3412 -2.8945  1.6111
 8598TIP3    H247210   5.744   5.285  16.433  0.0189  0.1057  2.1605
 8599TIP3   OH247211   1.201   3.483   3.013  0.2374  0.1928 -0.4154
 8599TIP3    H147212   1.201   3.568   3.057 -0.5060  0.1914 -0.4080
 8599TIP3    H247213   1.188   3.505   2.920  2.2265  0.2306 -0.7341
 8600TIP3   OH247214   0.501   5.201  14.154  0.2933 -0.2807  0.2496
 8600TIP3    H147215   0.525   5.109  14.160  1.8901  0.2146  2.6675
 8600TIP3    H247216   0.415   5.206  14.195 -0.1463 -0.7765 -0.5838
 8601TIP3   OH247217   5.172   0.592  10.886 -0.0760 -0.2570  0.4041
 8601TIP3    H147218   5.124   0.654  10.942 -0.1538  0.4591 -0.4328
 8601TIP3    H247219   5.105   0.534  10.851 -0.0011 -0.8378  1.2099
 8602TIP3   OH247220   1.813   2.265   0.620  0.5595  0.2411 -0.1349
 8602TIP3    H147221   1.899   2.230   0.643  0.0143 -1.0013  0.0987
 8602TIP3    H247222   1.755   2.188   0.620 -0.0698  0.6372 -2.7250
 8603TIP3   OH247223   5.708   5.852   4.484 -0.4269  0.1690  0.5459
 8603TIP3    H147224   5.748   5.861   4.571 -0.6179 -1.6597  0.8652
 8603TIP3    H247225   5.618   5.824   4.501 -0.7069  0.5519 -0.2391
 8604TIP3   OH247226   1.865   5.993  17.275  0.6096 -0.6654  0.5699
 8604TIP3    H147227   1.907   6.039  17.348 -0.9223 -1.7784  2.2370
 8604TIP3    H247228   1.772   6.014  17.284  0.0534 -2.8643  0.5267
 8605TIP3   OH247229   2.651   0.706  11.993 -0.6691  0.2697 -0.6220
 8605TIP3    H147230   2.684   0.635  12.048 -0.0007  1.4727  0.5904
 8605TIP3    H247231   2.607   0.662  11.920  1.0299 -1.3921 -0.7107
 8606TIP3   OH247232   0.349   0.717   5.364 -0.1658  0.1611  0.2165
 8606TIP3    H147233   0.426   0.707   5.421 -0.4983 -0.8661  0.5029
 8606TIP3    H247234   0.358   0.648   5.299  0.2338  1.3499 -1.0546
 8607TIP3   OH247235   1.888   6.633  10.707  0.7195  0.0199  0.7246
 8607TIP3    H147236   1.956   6.570  10.682  1.7475  1.9290 -1.6887
 8607TIP3    H247237   1.932   6.693  10.768  1.0677  0.8514 -0.3073
 8608TIP3   OH247238   6.552   5.574  15.829 -0.0840 -0.5670  0.3439
 8608TIP3    H147239   6.504   5.588  15.911 -2.3839 -1.4618 -0.7718
 8608TIP3    H247240   6.551   5.479  15.817  1.6618 -0.5906  0.0413
 8609TIP3   OH247241   4.850   5.674   1.936 -0.3699  1.6081 -0.2362
 8609TIP3    H147242   4.768   5.672   1.887 -1.0554  0.3370  0.8999
 8609TIP3    H247243   4.827   5.641   2.023  1.5058  0.3949 -0.1480
 8610TIP3   OH247244   5.982   6.553  13.721  0.4921  0.3364 -0.1643
 8610TIP3    H147245   5.945   6.522  13.638 -1.1338  1.1428  0.2256
 8610TIP3    H247246   5.963   6.647  13.722  0.0171  0.2491  1.3426
 8611TIP3   OH247247   3.338   1.012   3.407 -0.5287  0.4998 -0.3957
 8611TIP3    H147248   3.315   1.053   3.324 -1.4678  1.1580  0.1715
 8611TIP3    H247249   3.316   1.077   3.473  0.3388  0.0359  0.3713
 8612TIP3   OH247250   3.424   5.786   2.159  0.1827 -0.1430 -0.1734
 8612TIP3    H147251   3.409   5.874   2.192  0.7902 -0.1695  0.2026
 8612TIP3    H247252   3.490   5.797   2.090 -0.2954 -0.2155 -0.6449
 8613TIP3   OH247253   6.530   2.335  14.965 -0.3326  0.0299 -0.2114
 8613TIP3    H147254   6.466   2.397  14.929  0.9763  1.0941 -0.8129
 8613TIP3    H247255   6.492   2.249  14.950 -1.0475  0.5756 -1.7164
 8614TIP3   OH247256   6.572   5.141   6.146 -0.4485 -1.0222 -0.7924
 8614TIP3    H147257   6.633   5.132   6.219 -0.2713  1.8581 -0.4937
 8614TIP3    H247258   6.626   5.132   6.068  0.0330 -0.3039 -0.5435
 8615TIP3   OH247259   1.376   6.707  11.484  0.4226  0.2919  0.1184
 8615TIP3    H147260   1.308   6.770  11.510 -0.0894 -0.8561  1.7343
 8615TIP3    H247261   1.327   6.630  11.454  0.9543 -0.6227  1.4926
 8616TIP3   OH247262   5.734   2.258   0.168  0.7046 -0.4717  0.1716
 8616TIP3    H147263   5.783   2.296   0.095 -1.3608  0.7310 -0.6959
 8616TIP3    H247264   5.774   2.296   0.246  1.4777  0.0508 -0.4609
 8617TIP3   OH247265   3.503   6.111  17.290  0.2845  0.3096 -0.3368
 8617TIP3    H147266   3.551   6.187  17.325  0.5325 -0.2346  0.5502
 8617TIP3    H247267   3.543   6.036  17.334 -1.1836 -0.1844  0.2123
 8618TIP3   OH247268   2.870   3.295  13.400  0.0702  0.2556 -0.0527
 8618TIP3    H147269   2.924   3.291  13.479  0.3289  1.8257 -0.1126
 8618TIP3    H247270   2.929   3.267  13.330  0.2162  0.0701  0.1425
 8619TIP3   OH247271   4.561   5.671  12.636  0.4426 -0.5585 -0.4766
 8619TIP3    H147272   4.597   5.593  12.592  0.1939  0.3463 -2.3755
 8619TIP3    H247273   4.467   5.653  12.642  0.6171 -1.1564  0.7464
 8620TIP3   OH247274   6.076   5.230  15.325 -0.2303 -0.2281 -0.2694
 8620TIP3    H147275   6.152   5.276  15.362 -1.2700 -0.2239  2.0577
 8620TIP3    H247276   6.091   5.138  15.347 -0.1304 -0.4551 -1.2586
 8621TIP3   OH247277   5.745   6.570  11.953  0.3595  0.3269 -0.3615
 8621TIP3    H147278   5.830   6.590  11.914 -0.3380 -0.6781 -2.5558
 8621TIP3    H247279   5.730   6.478  11.934 -1.6271  0.7070 -0.9246
 8622TIP3   OH247280   5.723   1.244   1.518  0.2744 -0.0428 -0.3048
 8622TIP3    H147281   5.651   1.222   1.460  3.4893 -1.0697 -4.3455
 8622TIP3    H247282   5.754   1.160   1.551  0.4351  0.2892  0.4144
 8623TIP3   OH247283   0.258   4.173  14.246 -0.5347 -0.2771 -0.3448
 8623TIP3    H147284   0.187   4.235  14.264 -0.2611  0.7457 -2.4597
 8623TIP3    H247285   0.338   4.221  14.266 -0.3675 -0.5887 -0.2543
 8624TIP3   OH247286   5.681   6.437   0.913  0.0023 -0.8856 -0.2204
 8624TIP3    H147287   5.755   6.475   0.959 -0.9168 -0.3669  0.8723
 8624TIP3    H247288   5.627   6.397   0.981  1.5205 -5.4150 -1.3393
 8625TIP3   OH247289   2.133   2.196   5.130 -0.6929  0.6171 -0.5453
 8625TIP3    H147290   2.199   2.216   5.197  0.2262  0.3380 -1.3522
 8625TIP3    H247291   2.112   2.281   5.091 -0.9494  0.7283 -0.1731
 8626TIP3   OH247292   2.550   3.894   6.633 -0.0097 -0.1584 -0.1935
 8626TIP3    H147293   2.476   3.877   6.691  1.8282 -2.1500  1.7668
 8626TIP3    H247294   2.549   3.989   6.619 -1.0288  0.2921  2.4712
 8627TIP3   OH247295   3.054   0.290   5.692 -0.3938 -0.5498 -0.5491
 8627TIP3    H147296   3.050   0.202   5.730  2.3970 -0.6133 -0.2163
 8627TIP3    H247297   3.029   0.277   5.600 -0.8051 -1.5260 -0.3196
 8628TIP3   OH247298   0.800   0.359  15.091 -0.1821 -0.1265 -0.3698
 8628TIP3    H147299   0.803   0.312  15.007 -1.3794 -1.6931  0.3993
 8628TIP3    H247300   0.854   0.307  15.150  1.3940  1.4663 -0.3610
 8629TIP3   OH247301   3.730   1.233   3.269 -0.1209  0.3894 -0.3285
 8629TIP3    H147302   3.786   1.286   3.325  1.7818 -1.1892 -0.6377
 8629TIP3    H247303   3.771   1.238   3.183 -0.6791 -0.4810 -0.6589
 8630TIP3   OH247304   1.891   4.265  10.896  0.0808 -0.0657 -0.2408
 8630TIP3    H147305   1.896   4.199  10.965 -1.8243 -1.7908 -1.6095
 8630TIP3    H247306   1.981   4.273  10.863  0.3539 -2.1428 -0.1218
 8631TIP3   OH247307   0.382   6.561   1.083 -0.0282  0.2781  0.1644
 8631TIP3    H147308   0.447   6.627   1.059  1.3481 -2.0020 -2.9741
 8631TIP3    H247309   0.298   6.602   1.064  0.6408  1.9014  0.5518
 8632TIP3   OH247310   6.645   2.591  16.310 -0.5252  0.6065  0.1582
 8632TIP3    H147311   6.719   2.573  16.252 -1.4505  0.6027 -1.0434
 8632TIP3    H247312   6.659   2.532  16.385 -0.1746 -0.5848 -0.8137
 8633TIP3   OH247313   1.269   5.353  12.324 -0.1616 -0.0677  0.8989
 8633TIP3    H147314   1.345   5.321  12.372 -0.6755 -0.0566  1.7380
 8633TIP3    H247315   1.209   5.383  12.392 -0.9763 -0.2114  0.2502
 8634TIP3   OH247316   4.475   1.986   4.760 -0.2980  0.1908 -0.6310
 8634TIP3    H147317   4.385   2.006   4.735 -1.4336 -0.4634  2.4528
 8634TIP3    H247318   4.474   1.987   4.856  2.5718 -1.6010 -0.4581
 8635TIP3   OH247319   1.334   5.147  15.810  0.3943  0.2928 -0.1368
 8635TIP3    H147320   1.349   5.181  15.721  1.3244  0.6008  0.1263
 8635TIP3    H247321   1.274   5.073  15.797 -1.0138  1.4841 -0.8159
 8636TIP3   OH247322   0.268   2.101  10.761  0.0282  0.0838 -0.2868
 8636TIP3    H147323   0.318   2.147  10.694  1.8737 -2.5038 -0.8276
 8636TIP3    H247324   0.200   2.054  10.713  0.6686 -0.9098 -0.2354
 8637TIP3   OH247325   2.613   0.400  13.364 -0.9579  0.4369  0.0975
 8637TIP3    H147326   2.677   0.387  13.434 -0.0682  0.1599 -0.7574
 8637TIP3    H247327   2.539   0.441  13.408 -0.3203  0.4937  1.1618
 8638TIP3   OH247328   5.298   1.975  14.255  0.3122 -0.2385 -0.0906
 8638TIP3    H147329   5.240   1.980  14.331 -0.5771  1.7560 -0.8330
 8638TIP3    H247330   5.260   1.906  14.201 -0.0856 -0.4547  0.4540
 8639TIP3   OH247331   5.194   4.781   0.615 -0.2520 -0.0188  0.0164
 8639TIP3    H147332   5.288   4.767   0.606 -0.3436 -0.4823 -0.2477
 8639TIP3    H247333   5.159   4.769   0.527 -0.8254 -1.9792  0.4532
 8640TIP3   OH247334   1.452   2.990  16.639  0.0591 -0.1380  0.3857
 8640TIP3    H147335   1.366   3.016  16.671  0.6386  0.3833  1.5487
 8640TIP3    H247336   1.435   2.959  16.549 -1.2300  0.5244  0.3775
 8641TIP3   OH247337   0.178   1.732   0.767 -0.1135 -0.0245  0.0824
 8641TIP3    H147338   0.162   1.644   0.734  0.0231 -0.4498  1.1048
 8641TIP3    H247339   0.152   1.790   0.696 -0.2158 -0.8891 -0.5985
 8642TIP3   OH247340   0.471   4.561  14.564 -0.2520  0.0190 -0.0050
 8642TIP3    H147341   0.496   4.645  14.602 -0.2289  0.0627 -0.1169
 8642TIP3    H247342   0.414   4.521  14.630 -1.7985  0.9361 -0.7250
 8643TIP3   OH247343   0.840   4.770  10.896  0.4303  0.2408  0.1709
 8643TIP3    H147344   0.890   4.688  10.895  0.6157  0.3576 -0.5882
 8643TIP3    H247345   0.866   4.815  10.816 -0.3693  0.6224  0.1145
 8644TIP3   OH247346   2.018   1.757   4.182 -0.2878  0.4398  0.4875
 8644TIP3    H147347   1.935   1.765   4.135 -0.5561  0.7319  1.0023
 8644TIP3    H247348   2.082   1.803   4.127 -0.6147  0.8489  0.4478
 8645TIP3   OH247349   5.932   1.600  14.678 -0.3603 -1.0639 -0.3549
 8645TIP3    H147350   5.987   1.679  14.676  0.8725 -1.8052  1.5590
 8645TIP3    H247351   5.952   1.556  14.595  0.2372 -0.2075 -0.6892
 8646TIP3   OH247352   3.366   4.713  16.077 -0.0698 -0.5260  0.0723
 8646TIP3    H147353   3.451   4.702  16.119 -0.6885 -2.5804  0.8749
 8646TIP3    H247354   3.378   4.679  15.988  0.5294  1.3979 -0.6400
 8647TIP3   OH247355   0.541   5.598   1.129 -0.1574  0.1565 -0.5891
 8647TIP3    H147356   0.617   5.648   1.158  0.2366 -0.6750 -0.1502
 8647TIP3    H247357   0.480   5.664   1.097  0.5306  0.8788 -0.4488
 8648TIP3   OH247358   0.011   3.163   2.680 -0.0468  0.5709  0.0808
 8648TIP3    H147359   0.076   3.096   2.660 -0.8870 -0.8838  1.9337
 8648TIP3    H247360  -0.026   3.186   2.595  1.4850 -0.0040 -0.7940
 8649TIP3   OH247361   5.835   3.628  12.459  0.3086 -0.8613 -0.3515
 8649TIP3    H147362   5.748   3.592  12.438  0.7236 -1.7604 -0.5686
 8649TIP3    H247363   5.867   3.663  12.377 -0.7807  1.6031  0.1743
 8650TIP3   OH247364   4.159   4.897   2.649 -0.1560 -0.9370 -0.2811
 8650TIP3    H147365   4.112   4.855   2.577 -1.3216  2.0224 -1.4418
 8650TIP3    H247366   4.111   4.871   2.728 -0.6083 -2.0025 -0.8917
 8651TIP3   OH247367   1.137   2.956   0.239 -0.1844 -0.5372 -0.6767
 8651TIP3    H147368   1.095   2.915   0.314  1.7638 -1.1793  0.1365
 8651TIP3    H247369   1.096   2.916   0.163 -1.6309 -0.4611  0.0390
 8652TIP3   OH247370   3.695   2.086  15.260  0.2739  0.2058  0.1068
 8652TIP3    H147371   3.653   2.172  15.256 -0.2958 -0.0734  0.1282
 8652TIP3    H247372   3.698   2.056  15.169  2.5636  1.2407 -0.2374
 8653TIP3   OH247373   3.506   3.158   4.227  0.3898  0.1386 -0.1550
 8653TIP3    H147374   3.533   3.220   4.295 -0.0256  0.3603 -0.1880
 8653TIP3    H247375   3.488   3.213   4.151  0.5586 -0.0799 -0.3507
 8654TIP3   OH247376   6.267   0.831  12.155 -0.4602  0.2945 -0.1933
 8654TIP3    H147377   6.172   0.827  12.153 -0.4319 -0.5535 -1.1801
 8654TIP3    H247378   6.289   0.920  12.129 -0.9805  0.2383 -0.8417
 8655TIP3   OH247379   3.048   4.544   0.110 -0.0971  0.0263 -0.3660
 8655TIP3    H147380   3.005   4.546   0.195  0.0783 -0.2529 -0.2667
 8655TIP3    H247381   3.045   4.634   0.079 -2.1520 -0.2397 -1.0868
 8656TIP3   OH247382   1.550   0.209   2.590 -0.3194  0.2516  0.4485
 8656TIP3    H147383   1.575   0.195   2.499 -0.6735  0.0267  0.3834
 8656TIP3    H247384   1.601   0.144   2.639 -1.0149 -0.4358  0.2798
 8657TIP3   OH247385   2.836   5.820  15.450  0.6298  0.2719 -0.5113
 8657TIP3    H147386   2.810   5.903  15.409 -0.2346 -1.0272 -2.7741
 8657TIP3    H247387   2.754   5.780  15.479  1.1765  0.8780  2.1069
 8658TIP3   OH247388   6.389   1.264   3.311 -0.1260 -0.2710  0.5761
 8658TIP3    H147389   6.460   1.276   3.373  1.5939 -1.4480 -1.0498
 8658TIP3    H247390   6.390   1.343   3.256 -1.2819  0.5169  1.6452
 8659TIP3   OH247391   6.264   5.411  16.969  0.2760 -0.3411  0.1474
 8659TIP3    H147392   6.318   5.339  16.937 -1.6272 -1.2577 -1.2386
 8659TIP3    H247393   6.320   5.459  17.029  2.4579 -1.4593 -0.8836
 8660TIP3   OH247394   4.736   3.836  15.066 -0.5185  0.1485  0.5400
 8660TIP3    H147395   4.819   3.883  15.077 -0.3029  0.3196 -1.4926
 8660TIP3    H247396   4.669   3.896  15.099  0.0200  0.6527  0.7300
 8661TIP3   OH247397   3.095   6.604   1.464 -0.5592  0.3307 -0.1409
 8661TIP3    H147398   3.028   6.536   1.459 -2.0295  1.6139  0.7661
 8661TIP3    H247399   3.073   6.664   1.393  0.6122 -0.0376 -0.8273
 8662TIP3   OH247400   6.596   3.477   4.272  0.3706 -0.2413  0.4328
 8662TIP3    H147401   6.565   3.449   4.187  1.2494 -1.6228  0.5447
 8662TIP3    H247402   6.682   3.516   4.255 -0.0582  0.8033  0.5278
 8663TIP3   OH247403   0.530   0.268  15.036  0.0548  0.0511  0.2808
 8663TIP3    H147404   0.536   0.264  14.940  1.0390 -3.0269  0.3535
 8663TIP3    H247405   0.612   0.309  15.064 -0.1901  0.8688 -0.1545
 8664TIP3   OH247406   5.343   1.627   2.242  0.0753 -0.1267  0.4966
 8664TIP3    H147407   5.285   1.556   2.269 -1.8023  1.1089 -0.1330
 8664TIP3    H247408   5.285   1.700   2.221  1.6467  0.3652 -2.7857
 8665TIP3   OH247409   0.390   2.034  11.207 -0.6397  0.5091 -0.6404
 8665TIP3    H147410   0.370   2.028  11.114  0.1584  1.4426 -0.8839
 8665TIP3    H247411   0.352   1.954  11.244 -0.2354 -0.3066 -1.8926
 8666TIP3   OH247412   0.874   0.774  11.903 -0.6946  0.2337 -0.3089
 8666TIP3    H147413   0.868   0.855  11.953 -0.8059  0.6651 -1.0144
 8666TIP3    H247414   0.869   0.801  11.812 -1.5420 -0.6467 -0.5358
 8667TIP3   OH247415   1.947   3.606   4.116 -0.2672 -0.0718 -0.5094
 8667TIP3    H147416   1.852   3.605   4.121 -0.2610  0.9421  0.0636
 8667TIP3    H247417   1.968   3.555   4.038 -1.1978 -1.6643  0.2293
 8668TIP3   OH247418   6.094   3.231  13.170 -0.1667  0.2718 -0.0698
 8668TIP3    H147419   6.010   3.215  13.128 -0.5060 -0.3063  0.7989
 8668TIP3    H247420   6.141   3.288  13.109 -1.1675  0.5737 -0.5803
 8669TIP3   OH247421   5.815   3.315   0.294 -0.2976 -0.1225  0.1222
 8669TIP3    H147422   5.744   3.257   0.320  0.1676 -1.3948 -1.2985
 8669TIP3    H247423   5.836   3.289   0.204 -0.0898  2.2951 -0.6058
 8670TIP3   OH247424   1.622   6.194   4.410 -0.1048 -0.4133  0.6398
 8670TIP3    H147425   1.604   6.224   4.321  1.5389 -0.6628  0.1994
 8670TIP3    H247426   1.630   6.275   4.461 -1.7523 -0.2776  0.7515
 8671TIP3   OH247427   0.038   6.032  16.103 -0.3879 -0.1428 -0.6631
 8671TIP3    H147428   0.045   6.038  16.008  0.6217 -1.6223 -0.7171
 8671TIP3    H247429   0.126   6.053  16.134 -0.6361  0.0393 -0.0670
 8672TIP3   OH247430   3.715   0.137  16.602 -0.2507 -0.3932  0.1317
 8672TIP3    H147431   3.746   0.215  16.648 -1.4288 -1.3540  2.7912
 8672TIP3    H247432   3.794   0.085  16.585  0.3181  0.4242  0.2542
 8673TIP3   OH247433   6.407   4.999   2.834 -0.1972 -0.5476  0.1352
 8673TIP3    H147434   6.390   4.961   2.748  0.1483  0.7332 -0.5273
 8673TIP3    H247435   6.489   4.959   2.862  0.6644  0.3671 -0.9805
 8674TIP3   OH247436   0.752   1.594   0.405  0.1697 -0.4671  0.0611
 8674TIP3    H147437   0.767   1.684   0.433  2.8472 -1.1081  0.9259
 8674TIP3    H247438   0.813   1.581   0.332  0.0744 -1.6849  0.1797
 8675TIP3   OH247439   0.619   5.814  11.314  0.1403 -0.1664 -0.1825
 8675TIP3    H147440   0.649   5.731  11.278  0.9946  0.8012 -1.8129
 8675TIP3    H247441   0.699   5.855  11.348 -0.2857 -0.0395  0.6987
 8676TIP3   OH247442   4.889   5.152  13.491  0.3147  0.4153 -0.3001
 8676TIP3    H147443   4.931   5.175  13.574 -1.9233  2.3516  0.4088
 8676TIP3    H247444   4.944   5.192  13.424  1.0403  0.5853  0.3858
 8677TIP3   OH247445   2.329   5.160   1.187 -0.2417 -0.1752  0.1819
 8677TIP3    H147446   2.402   5.220   1.202 -1.1290  1.7864 -2.5240
 8677TIP3    H247447   2.259   5.192   1.244 -0.1641  0.2914  0.0193
 8678TIP3   OH247448   6.389   6.581   5.535 -0.4339  0.1541  0.6031
 8678TIP3    H147449   6.455   6.607   5.471 -0.4942 -0.4926  0.2642
 8678TIP3    H247450   6.347   6.504   5.496 -1.0280  0.2405  1.0513
 8679TIP3   OH247451   3.524   5.641   6.139 -0.3080  0.0559 -0.1884
 8679TIP3    H147452   3.614   5.662   6.164  0.0259 -0.8509 -0.5979
 8679TIP3    H247453   3.472   5.715   6.172  0.1575 -0.7890  2.6995
 8680TIP3   OH247454   3.438   4.284  16.565  0.1279 -0.5838 -0.4499
 8680TIP3    H147455   3.468   4.198  16.535 -0.8175 -0.8454 -0.6733
 8680TIP3    H247456   3.495   4.346  16.520 -0.0558 -1.0453 -1.3536
 8681TIP3   OH247457   0.152   3.475  14.231  0.0275  0.2134 -0.5556
 8681TIP3    H147458   0.129   3.532  14.157 -1.2164 -0.7493 -0.9368
 8681TIP3    H247459   0.134   3.387  14.200  0.8565 -0.3204  0.4297
 8682TIP3   OH247460   4.443   1.585  16.669 -0.5224 -0.4056 -0.2452
 8682TIP3    H147461   4.525   1.552  16.632 -1.6302 -1.5680 -1.8083
 8682TIP3    H247462   4.445   1.558  16.761  0.3496 -1.4334 -0.5540
 8683TIP3   OH247463   2.173   5.447  13.346  0.3380  0.2713  0.0813
 8683TIP3    H147464   2.094   5.397  13.365 -0.6193  1.8469  0.4182
 8683TIP3    H247465   2.187   5.436  13.252 -0.3797  0.1182 -0.0070
 8684TIP3   OH247466   4.203   5.009   4.798 -0.0477  0.1328  0.5746
 8684TIP3    H147467   4.134   5.038   4.739 -0.5049 -3.2685 -0.8134
 8684TIP3    H247468   4.158   4.953   4.862  1.2675 -2.2994 -0.4599
 8685TIP3   OH247469   2.015   4.673   4.803 -0.2505  0.1592  0.1961
 8685TIP3    H147470   2.026   4.701   4.713  0.2611  0.9205  0.4812
 8685TIP3    H247471   1.937   4.719   4.833 -1.1324 -1.0320 -0.2060
 8686TIP3   OH247472   4.069   3.444  13.472  0.3921 -0.0634 -0.2709
 8686TIP3    H147473   3.985   3.470  13.509 -0.4460 -2.5354 -0.2776
 8686TIP3    H247474   4.054   3.438  13.378  0.6224 -0.3601 -0.2901
 8687TIP3   OH247475   3.076   3.513  11.657  0.2118 -0.6314 -0.2073
 8687TIP3    H147476   3.046   3.434  11.700 -1.6532 -1.1997 -2.3910
 8687TIP3    H247477   3.006   3.537  11.596  1.2710  1.9609 -0.5737
 8688TIP3   OH247478   2.541   2.130  12.576 -0.5087 -0.3616 -0.2020
 8688TIP3    H147479   2.530   2.224  12.588  0.0982 -0.2937 -0.1148
 8688TIP3    H247480   2.621   2.122  12.523 -0.3494 -0.8384  0.0972
 8689TIP3   OH247481   5.229   4.447  13.635 -0.0868  0.5004  0.1750
 8689TIP3    H147482   5.313   4.492  13.647  0.8357 -1.1886  0.4187
 8689TIP3    H247483   5.183   4.499  13.571  1.5976  0.9191 -0.7650
 8690TIP3   OH247484   4.845   0.511  17.212 -0.4215  0.1025 -0.1358
 8690TIP3    H147485   4.869   0.532  17.122  1.7656 -2.7901 -0.3877
 8690TIP3    H247486   4.923   0.469  17.248 -1.9942 -0.8816  2.3911
 8691TIP3   OH247487   4.029   0.618   2.626 -0.1212 -0.4751 -0.0617
 8691TIP3    H147488   4.015   0.710   2.602 -0.2824 -0.5991 -0.4478
 8691TIP3    H247489   4.045   0.574   2.543  0.9838 -0.6261  0.2119
 8692TIP3   OH247490   5.890   5.797   4.272 -0.2671  0.5720  0.2168
 8692TIP3    H147491   5.811   5.794   4.327 -1.2078  1.7296 -1.0056
 8692TIP3    H247492   5.922   5.886   4.282 -0.5829  0.8716 -1.2571
 8693TIP3   OH247493   2.428   1.666   5.619 -0.1634 -0.9277 -0.5886
 8693TIP3    H147494   2.479   1.586   5.610  1.1738 -0.1858  0.1198
 8693TIP3    H247495   2.437   1.690   5.711 -0.6574 -0.0293 -0.7574
 8694TIP3   OH247496   3.917   4.631  12.853 -0.4554  0.4089  0.3031
 8694TIP3    H147497   3.941   4.702  12.912  0.8320  0.3769 -0.1492
 8694TIP3    H247498   3.867   4.570  12.907  2.3895 -0.6415  1.9755
 8695TIP3   OH247499   4.067   5.743   4.083 -0.2977  0.0718  0.2260
 8695TIP3    H147500   4.063   5.653   4.114  1.8478 -0.3137 -0.3965
 8695TIP3    H247501   4.087   5.795   4.161  3.5288 -0.7020 -0.0317
 8696TIP3   OH247502   5.766   2.268  12.005  0.7577  0.4917 -0.0065
 8696TIP3    H147503   5.758   2.195  11.943 -0.6727 -1.5849  2.4313
 8696TIP3    H247504   5.835   2.241  12.065 -1.9691 -0.5739  2.8874
 8697TIP3   OH247505   5.403   2.816   1.104 -0.3562  0.8510 -0.0223
 8697TIP3    H147506   5.378   2.745   1.163 -0.4622  1.1066  0.2413
 8697TIP3    H247507   5.494   2.797   1.081 -0.5712  0.2913 -0.4461
 8698TIP3   OH247508   0.402   6.656  13.962  1.0093 -0.5579  0.2593
 8698TIP3    H147509   0.394   6.595  13.889 -0.0857 -0.2090  0.0757
 8698TIP3    H247510   0.492   6.689  13.956  1.1218 -0.9945 -0.5459
 8699TIP3   OH247511   1.092   5.863   6.617 -0.1828 -0.7233 -0.2616
 8699TIP3    H147512   1.064   5.808   6.544 -0.6259 -1.3335  0.3556
 8699TIP3    H247513   1.142   5.805   6.674 -1.0464 -0.6304  0.6315
 8700TIP3   OH247514   5.912   2.915  17.279  0.7365  0.6248  0.3771
 8700TIP3    H147515   5.887   3.007  17.268  0.8099  0.5050 -1.0284
 8700TIP3    H247516   5.866   2.869  17.209  0.8556 -0.3856  0.9437
 8701TIP3   OH247517   2.987   0.348  11.697 -0.2254  0.4589  0.0610
 8701TIP3    H147518   2.960   0.285  11.763 -1.6721  0.0430 -0.8831
 8701TIP3    H247519   2.971   0.434  11.737  1.3341  0.2742  1.1782
 8702TIP3   OH247520   0.757   4.896  11.307  0.3938 -0.0945  0.1407
 8702TIP3    H147521   0.795   4.917  11.392 -1.7280  1.7436  0.7255
 8702TIP3    H247522   0.780   4.804  11.292  0.5494 -0.5608  2.8391
 8703TIP3   OH247523   5.808   0.893  11.494  0.1587 -0.2483  0.4543
 8703TIP3    H147524   5.830   0.801  11.509 -4.1093 -0.9991  4.3092
 8703TIP3    H247525   5.797   0.929  11.582 -0.4131  3.4330 -0.9580
 8704TIP3   OH247526   4.329   0.614   2.356 -0.1651 -0.1512  0.1163
 8704TIP3    H147527   4.400   0.607   2.420  1.1766  1.3802 -1.0976
 8704TIP3    H247528   4.357   0.558   2.284 -0.0527  0.6152 -0.4522
 8705TIP3   OH247529   6.079   3.975   5.938  0.4192 -0.1304  0.4923
 8705TIP3    H147530   6.103   3.941   6.024  1.0767 -0.0992  0.3254
 8705TIP3    H247531   6.139   3.932   5.877  0.9274  0.9321  0.2136
 8706TIP3   OH247532   1.885   0.631  15.769 -0.2199  0.1587  0.0212
 8706TIP3    H147533   1.976   0.610  15.794 -0.1677 -0.2756 -0.5235
 8706TIP3    H247534   1.851   0.680  15.844  0.3105 -0.1050  0.4468
 8707TIP3   OH247535   0.676   1.424  11.277  0.0844  0.1469  0.0323
 8707TIP3    H147536   0.731   1.498  11.251 -0.4272  1.2972  2.0618
 8707TIP3    H247537   0.737   1.362  11.318  0.3854 -0.2581 -0.9745
 8708TIP3   OH247538   4.072   0.949  14.286  0.0968 -0.1701  0.3964
 8708TIP3    H147539   4.129   0.924  14.359  0.7600  0.9799  0.2858
 8708TIP3    H247540   4.073   1.044  14.286  1.4691 -0.0952 -2.1412
 8709TIP3   OH247541   1.695   5.936  15.141 -0.3926 -0.2214  0.0698
 8709TIP3    H147542   1.660   6.000  15.204 -0.9842  0.1848 -0.6601
 8709TIP3    H247543   1.687   5.979  15.056 -1.1103 -1.3830 -0.4813
 8710TIP3   OH247544   1.780   3.243  16.892  0.1227 -0.2084 -0.4281
 8710TIP3    H147545   1.858   3.188  16.885  1.5332  1.8495 -2.1447
 8710TIP3    H247546   1.790   3.287  16.977 -0.8822 -2.2512  0.8321
 8711TIP3   OH247547   2.780   3.962   0.258  0.2768  0.8272  0.1710
 8711TIP3    H147548   2.727   4.041   0.246  1.0940  1.2993 -0.5116
 8711TIP3    H247549   2.718   3.890   0.254 -0.4164  1.4065  0.2302
 8712TIP3   OH247550   6.037   1.194  16.078 -0.1654 -0.2455  0.0705
 8712TIP3    H147551   5.974   1.135  16.036 -1.3716  0.2023  1.1967
 8712TIP3    H247552   5.988   1.233  16.151  0.3439  2.6881 -1.0432
 8713TIP3   OH247553   2.632   1.701   6.483  0.2594  0.2098 -0.4220
 8713TIP3    H147554   2.630   1.790   6.520 -1.3254 -0.3992  1.0933
 8713TIP3    H247555   2.678   1.649   6.548  0.2818 -0.2832 -0.8265
 8714TIP3   OH247556   0.363   1.800  10.602 -0.3590 -0.4259 -0.1067
 8714TIP3    H147557   0.457   1.779  10.596  0.1951  1.5795  0.5690
 8714TIP3    H247558   0.338   1.773  10.691  0.4097  1.7230  0.8494
 8715TIP3   OH247559   3.877   1.304  13.119 -0.7880  0.3337 -0.0024
 8715TIP3    H147560   3.876   1.399  13.132 -0.3437  0.2578  0.6417
 8715TIP3    H247561   3.909   1.269  13.202 -1.6426 -0.4296  0.0124
 8716TIP3   OH247562   0.859   1.962  10.459  0.3259  0.4279 -0.2079
 8716TIP3    H147563   0.946   1.935  10.488 -0.9474 -1.3694  2.3330
 8716TIP3    H247564   0.830   1.891  10.401  0.7117  1.2912 -1.4965
 8717TIP3   OH247565   1.497   5.682   4.109 -0.5719  0.1497 -0.0700
 8717TIP3    H147566   1.461   5.770   4.122 -1.1440  0.0022 -0.6261
 8717TIP3    H247567   1.500   5.671   4.014 -0.0294 -0.2385 -0.0100
 8718TIP3   OH247568   5.524   0.082   1.741  0.5582 -0.0516  0.6648
 8718TIP3    H147569   5.478   0.061   1.823 -0.5647  1.5814  0.5113
 8718TIP3    H247570   5.455   0.115   1.684  1.4279 -0.6310 -0.7621
 8719TIP3   OH247571   3.754   6.290  16.689  0.4782  0.5765  0.2152
 8719TIP3    H147572   3.729   6.339  16.610 -0.2205  1.4148  0.9356
 8719TIP3    H247573   3.842   6.257  16.670 -0.1345 -0.2386 -1.3688
 8720TIP3   OH247574   5.264   0.550  14.279 -0.2332  0.5283 -0.1266
 8720TIP3    H147575   5.334   0.569  14.216 -0.9073 -1.8625 -1.7115
 8720TIP3    H247576   5.183   0.563  14.230 -0.7860 -1.0197  0.3272
 8721TIP3   OH247577   1.035   1.807  13.796 -0.4135  0.3342  0.1180
 8721TIP3    H147578   1.064   1.753  13.722 -0.2284  0.5291  0.0490
 8721TIP3    H247579   1.055   1.754  13.873 -1.9100 -0.4943 -0.0247
 8722TIP3   OH247580   2.466   2.822   4.904 -0.3154 -0.1618 -0.5422
 8722TIP3    H147581   2.530   2.778   4.960  0.6768 -1.1047 -2.3304
 8722TIP3    H247582   2.480   2.915   4.920  1.0568 -0.3705 -0.3724
 8723TIP3   OH247583   5.963   3.812   2.742  0.3518 -0.4901  0.3543
 8723TIP3    H147584   5.979   3.722   2.770  0.2978  0.0836  2.3826
 8723TIP3    H247585   5.924   3.855   2.819  0.9503  1.4283 -0.3528
 8724TIP3   OH247586   1.118   3.898   1.206  0.0761 -0.4262  0.2449
 8724TIP3    H147587   1.110   3.986   1.242  1.7906 -0.2388  0.2056
 8724TIP3    H247588   1.154   3.911   1.118  1.1613 -1.2167  0.5605
 8725TIP3   OH247589   1.082   5.942  13.435  0.1828  0.8839 -0.6045
 8725TIP3    H147590   1.024   5.890  13.491 -2.1753  2.1387 -1.6794
 8725TIP3    H247591   1.158   5.960  13.489  0.6821 -2.7132  0.1533
 8726TIP3   OH247592   1.644   6.336   0.134  0.3205  0.3120  0.4155
 8726TIP3    H147593   1.624   6.423   0.099 -1.2607  0.0757  0.6918
 8726TIP3    H247594   1.648   6.349   0.229  0.0291  0.0687  0.4606
 8727TIP3   OH247595   1.712   3.774   4.413  0.6724  0.5214 -0.5175
 8727TIP3    H147596   1.687   3.728   4.332 -0.5714 -1.1195  0.7393
 8727TIP3    H247597   1.791   3.822   4.389  1.8484 -1.9908 -2.0543
 8728TIP3   OH247598   5.269   1.722  12.919 -0.0321 -0.1451  0.6608
 8728TIP3    H147599   5.241   1.719  12.828  0.6781 -1.4596  0.4627
 8728TIP3    H247600   5.192   1.695  12.970 -0.5756  1.0558  0.5095
 8729TIP3   OH247601   1.636   4.584  12.682  0.3289 -0.2269  0.2788
 8729TIP3    H147602   1.650   4.505  12.630  0.4666 -0.9483  1.3788
 8729TIP3    H247603   1.559   4.564  12.736  0.0795  0.5681  0.2308
 8730TIP3   OH247604   6.194   6.067  11.448  0.1594  0.4415 -0.1082
 8730TIP3    H147605   6.237   5.984  11.427  0.0849 -0.2089  2.0653
 8730TIP3    H247606   6.101   6.050  11.434  0.1476  0.1785  0.2888
 8731TIP3   OH247607   4.485   1.559   4.718  0.2028 -0.1146  0.4606
 8731TIP3    H147608   4.538   1.599   4.787 -1.3606  0.5099  1.3270
 8731TIP3    H247609   4.484   1.466   4.740  0.9817 -0.1542  0.3821
 8732TIP3   OH247610   5.166   1.852   4.432  0.0617  0.5480  0.0784
 8732TIP3    H147611   5.087   1.840   4.484 -0.4203  0.2032 -0.7083
 8732TIP3    H247612   5.232   1.883   4.494 -1.2862  3.1838  0.3526
 8733TIP3   OH247613   2.415   4.338   1.181 -0.1897  0.4315  0.0721
 8733TIP3    H147614   2.495   4.366   1.137 -0.1452 -3.0129 -2.4603
 8733TIP3    H247615   2.446   4.303   1.265  1.1860 -1.3678 -1.0872
 8734TIP3   OH247616   3.448   1.247  13.617 -0.2020 -0.0450 -0.5634
 8734TIP3    H147617   3.477   1.251  13.526  0.9559 -0.5007 -0.2381
 8734TIP3    H247618   3.463   1.156  13.643 -0.1489  0.1709  0.1851
 8735TIP3   OH247619   5.208   1.108  15.974 -0.1292  0.6368 -0.2199
 8735TIP3    H147620   5.130   1.152  15.941  0.3285  1.3987 -0.3143
 8735TIP3    H247621   5.175   1.033  16.023 -0.8670  0.1058 -1.4778
 8736TIP3   OH247622   6.222   3.962  14.453 -0.1147 -0.1928  0.3388
 8736TIP3    H147623   6.311   3.995  14.463 -0.4209  0.9629 -0.4877
 8736TIP3    H247624   6.221   3.920  14.367  0.2392 -2.3597  1.3326
 8737TIP3   OH247625   0.025   1.727  11.304  0.0608  0.2331 -0.0959
 8737TIP3    H147626  -0.029   1.735  11.226  0.3471 -0.2122 -0.3494
 8737TIP3    H247627   0.024   1.633  11.324 -1.2031  0.5135  1.2997
 8738TIP3   OH247628   3.854   0.708  12.781  0.0277  0.4736  0.3534
 8738TIP3    H147629   3.891   0.687  12.696  0.0372  1.6877  0.0298
 8738TIP3    H247630   3.783   0.769  12.762 -1.1107 -0.5659  1.0901
 8739TIP3   OH247631   6.242   3.837   2.076  0.0591  0.7876 -0.2428
 8739TIP3    H147632   6.256   3.757   2.024 -0.4754  1.3691 -1.3307
 8739TIP3    H247633   6.251   3.908   2.012 -0.9287  1.5154  0.4085
 8740TIP3   OH247634   3.151   6.161   3.104  0.1491 -0.0174 -0.3814
 8740TIP3    H147635   3.170   6.221   3.177 -0.4515  0.4003 -0.5656
 8740TIP3    H247636   3.108   6.086   3.145 -0.9807  0.6015 -0.4014
 8741TIP3   OH247637   3.570   5.524  14.926 -0.2577 -0.1068  0.6239
 8741TIP3    H147638   3.518   5.581  14.983 -0.1068  0.1867  0.4687
 8741TIP3    H247639   3.512   5.505  14.853 -0.4532 -0.4866  0.8720
 8742TIP3   OH247640   5.966   1.079  12.882 -0.6810  0.1598  0.6006
 8742TIP3    H147641   6.018   0.999  12.890  2.5344  2.0505  0.2411
 8742TIP3    H247642   5.961   1.095  12.788 -0.5059  0.8100  0.6950
 8743TIP3   OH247643   2.961   4.581   5.688  0.0275  0.2816  0.1418
 8743TIP3    H147644   2.870   4.562   5.709 -0.0422  0.4365 -0.0104
 8743TIP3    H247645   3.003   4.596   5.772 -0.0695  0.1318  0.2170
 8744TIP3   OH247646   2.803   1.201  14.183 -0.1135  0.1220 -0.7888
 8744TIP3    H147647   2.783   1.174  14.273  0.7774 -0.7650 -0.8343
 8744TIP3    H247648   2.886   1.158  14.164  0.4048  1.4385 -1.5574
 8745TIP3   OH247649   6.172   0.661   3.970  0.3163 -0.0738 -0.3393
 8745TIP3    H147650   6.182   0.756   3.968 -0.2851  0.0644  1.4973
 8745TIP3    H247651   6.260   0.627   3.982  0.6825  0.1583 -2.0851
 8746TIP3   OH247652   4.356   3.679  14.872  0.1179 -0.2121 -0.2894
 8746TIP3    H147653   4.348   3.728  14.954  2.4891  1.6813 -1.0693
 8746TIP3    H247654   4.357   3.746  14.804 -0.5138 -1.6588 -1.7952
 8747TIP3   OH247655   2.244   1.106   5.079 -0.5682  0.0767  0.8927
 8747TIP3    H147656   2.245   1.016   5.047 -0.5153 -0.1065  1.4032
 8747TIP3    H247657   2.275   1.100   5.170  1.1883  0.8180  0.3960
 8748TIP3   OH247658   3.555   5.228   0.216  0.5169  0.5779 -0.4685
 8748TIP3    H147659   3.481   5.272   0.175 -0.2843  0.6015  0.9325
 8748TIP3    H247660   3.632   5.271   0.178 -0.2302  2.9162  0.4752
 8749TIP3   OH247661   3.147   4.243  12.067 -0.3197 -0.0256  0.0470
 8749TIP3    H147662   3.146   4.316  12.006 -1.7470 -0.5835 -0.6531
 8749TIP3    H247663   3.172   4.282  12.151 -1.2225  1.3005 -0.2692
 8750TIP3   OH247664   2.627   2.240  14.803 -0.3394 -0.6370 -0.5215
 8750TIP3    H147665   2.613   2.326  14.763  1.2604 -0.3851 -0.5884
 8750TIP3    H247666   2.563   2.235  14.874 -1.3710  0.0308 -1.3744
 8751TIP3   OH247667   5.145   3.062  17.181  0.7073  0.0979 -0.3059
 8751TIP3    H147668   5.212   3.105  17.235  0.3332  0.2316  0.0606
 8751TIP3    H247669   5.085   3.133  17.158  0.7256 -0.0093 -0.6916
 8752TIP3   OH247670   2.323   2.451  11.297 -0.0970 -0.3614  0.0670
 8752TIP3    H147671   2.316   2.448  11.393  2.3991 -1.3946  0.3036
 8752TIP3    H247672   2.258   2.387  11.266  0.0579 -1.0766  1.1620
 8753TIP3   OH247673   6.675   2.154   3.972  0.2011  0.0381  0.0149
 8753TIP3    H147674   6.645   2.151   3.882  0.5088  1.9060 -0.2028
 8753TIP3    H247675   6.612   2.102   4.021 -1.3119  0.8884 -0.9498
 8754TIP3   OH247676   6.278   3.404  14.141 -0.3178  0.2806 -0.0041
 8754TIP3    H147677   6.263   3.474  14.205 -0.8093  1.4439 -1.3516
 8754TIP3    H247678   6.321   3.447  14.068 -2.6468 -0.3228 -1.8416
 8755TIP3   OH247679   5.695   0.696  16.334  0.0225  0.2478  0.0313
 8755TIP3    H147680   5.731   0.749  16.405  0.0643 -0.9352  0.9132
 8755TIP3    H247681   5.766   0.688  16.271  1.0265 -1.2413  1.2993
 8756TIP3   OH247682   3.843   6.274   5.405  0.5705 -0.4222  0.1836
 8756TIP3    H147683   3.817   6.320   5.325  1.8135  1.1289  0.6282
 8756TIP3    H247684   3.831   6.338   5.475  1.4976 -1.0552  0.9508
 8757TIP3   OH247685   3.308   5.704  16.030  0.1451 -0.8421 -0.0873
 8757TIP3    H147686   3.218   5.719  16.001  0.7191  1.6410 -0.7801
 8757TIP3    H247687   3.360   5.709  15.951  1.3043  2.1147  0.7409
 8758TIP3   OH247688   4.577   2.306  16.538 -0.0025 -0.5656  0.5505
 8758TIP3    H147689   4.538   2.386  16.502 -0.9559 -1.3804 -0.2687
 8758TIP3    H247690   4.504   2.258  16.577  0.3805 -1.5178  0.1345
 8759TIP3   OH247691   4.559   6.463  12.427  0.3365 -0.0750 -0.4211
 8759TIP3    H147692   4.629   6.468  12.362  1.1229 -2.8635  0.0627
 8759TIP3    H247693   4.593   6.508  12.504  0.6933  0.5027 -0.9156
 8760TIP3   OH247694   6.448   4.538   0.673 -0.8750  0.1193  0.6206
 8760TIP3    H147695   6.433   4.451   0.636  0.8462 -0.6411  1.5671
 8760TIP3    H247696   6.415   4.531   0.763 -1.1339  0.5993  0.5666
 8761TIP3   OH247697   3.022   3.703  14.751  0.1084  0.5019 -0.5416
 8761TIP3    H147698   2.975   3.764  14.694 -0.0158  0.2136 -0.7479
 8761TIP3    H247699   3.030   3.623  14.700 -1.0903 -0.1721  0.2758
 8762TIP3   OH247700   4.564   3.144  16.812 -0.2837  0.2968 -0.4199
 8762TIP3    H147701   4.591   3.089  16.886  0.9245  2.2929  0.7198
 8762TIP3    H247702   4.480   3.181  16.839 -0.2672  0.3473 -0.4385
 8763TIP3   OH247703   4.880   0.906   0.194 -0.0019 -0.1589 -0.2198
 8763TIP3    H147704   4.841   0.864   0.117 -0.7706 -1.2520  0.7191
 8763TIP3    H247705   4.807   0.950   0.237  0.0267 -1.1252  0.8620
 8764TIP3   OH247706   0.638   5.554  12.392  0.2050  0.0116 -0.3944
 8764TIP3    H147707   0.640   5.630  12.450  1.4804  0.4870 -1.0116
 8764TIP3    H247708   0.695   5.579  12.319  0.0206 -1.2416 -0.9882
 8765TIP3   OH247709   1.735   2.589   4.780  0.0496 -0.2963 -0.4361
 8765TIP3    H147710   1.653   2.610   4.825 -0.1165  0.0348 -0.8895
 8765TIP3    H247711   1.726   2.627   4.693  1.1040  0.6833 -0.1475
 8766TIP3   OH247712   0.732   3.469   5.637 -0.7574 -0.1488 -0.1267
 8766TIP3    H147713   0.640   3.444   5.650 -0.7089 -0.3242 -0.1259
 8766TIP3    H247714   0.728   3.542   5.575 -0.9577  0.3446  0.4509
 8767TIP3   OH247715   0.576   6.241   5.460  0.5144 -0.1210 -0.9398
 8767TIP3    H147716   0.534   6.303   5.520 -1.7472 -0.8657 -1.6270
 8767TIP3    H247717   0.666   6.272   5.452  0.5847  0.7034  1.8415
 8768TIP3   OH247718   3.214   3.142   2.193 -0.0235  0.1819 -0.2612
 8768TIP3    H147719   3.244   3.210   2.254 -0.3870  0.8393 -0.7994
 8768TIP3    H247720   3.288   3.129   2.134 -0.0360  0.2836 -0.3002
 8769TIP3   OH247721   0.842   6.561   4.322  0.3208  0.1269  0.0683
 8769TIP3    H147722   0.791   6.617   4.263  0.9768  2.4968  1.6044
 8769TIP3    H247723   0.905   6.517   4.265 -0.3003  0.8570 -1.2326
 8770TIP3   OH247724   3.765   2.013  15.508  0.4237 -0.0577 -0.0536
 8770TIP3    H147725   3.731   2.023  15.419 -2.3315  3.5546  1.1370
 8770TIP3    H247726   3.851   2.055  15.506  0.5042 -0.2553 -1.0325
 8771TIP3   OH247727   5.277   2.418   4.723  0.0750  0.1785 -0.1460
 8771TIP3    H147728   5.316   2.505   4.719  0.2791  0.0228 -2.0828
 8771TIP3    H247729   5.329   2.372   4.789  2.0014  0.5575 -1.3389
 8772TIP3   OH247730   6.015   1.162   3.101 -0.3008  0.0276  0.3881
 8772TIP3    H147731   5.993   1.252   3.076 -1.5768 -0.2721  0.3644
 8772TIP3    H247732   5.961   1.108   3.043  1.1879 -0.7931 -0.2948
 8773TIP3   OH247733   4.302   2.372  11.568  0.1303  0.2461  0.0351
 8773TIP3    H147734   4.385   2.329  11.544 -0.4023 -1.2822  0.8093
 8773TIP3    H247735   4.242   2.299  11.586 -1.0307  1.3335  0.6752
 8774TIP3   OH247736   1.216   0.260  14.424  0.0974 -0.2255  0.7107
 8774TIP3    H147737   1.143   0.202  14.402 -0.4287  0.7474 -0.2190
 8774TIP3    H247738   1.201   0.285  14.515  1.4574 -3.1121  1.8736
 8775TIP3   OH247739   4.063   4.221   0.252 -0.0783 -0.0755  0.9214
 8775TIP3    H147740   4.108   4.238   0.169  1.6731 -2.2084  1.3594
 8775TIP3    H247741   4.068   4.126   0.264 -4.1190 -0.4037  1.4043
 8776TIP3   OH247742   3.624   1.313  17.123  0.7826 -0.0331  0.3597
 8776TIP3    H147743   3.647   1.275  17.038  1.8746 -0.9985  1.0660
 8776TIP3    H247744   3.549   1.370  17.104  0.8750 -0.3920 -1.2077
 8777TIP3   OH247745   3.928   4.137   1.680 -0.3055 -0.3886  0.3718
 8777TIP3    H147746   4.020   4.151   1.660 -0.0812 -1.9968  0.1711
 8777TIP3    H247747   3.890   4.225   1.684  1.1238  0.2606 -0.0380
 8778TIP3   OH247748   2.094   1.341  12.639  0.7920 -0.0594  0.2367
 8778TIP3    H147749   2.067   1.356  12.730 -0.0750  1.0636 -0.1907
 8778TIP3    H247750   2.179   1.385  12.631 -0.7102  2.9736 -0.3991
 8779TIP3   OH247751   0.745   3.348   1.384 -0.1890  0.0097  0.7251
 8779TIP3    H147752   0.780   3.435   1.364 -1.5004  0.1304 -1.2322
 8779TIP3    H247753   0.653   3.363   1.403 -0.6325 -1.0168 -0.4698
 8780TIP3   OH247754   4.332   4.988   5.058 -0.2694 -0.2557  0.2770
 8780TIP3    H147755   4.404   5.032   5.104  0.6822 -1.5121  0.0488
 8780TIP3    H247756   4.371   4.958   4.976 -0.6309 -2.1662  0.7506
 8781TIP3   OH247757   6.601   3.580   6.315 -0.5760  0.1682  0.1133
 8781TIP3    H147758   6.653   3.533   6.250  1.7240  1.0305  1.2536
 8781TIP3    H247759   6.659   3.592   6.390 -2.5103  0.9484  1.5907
 8782TIP3   OH247760   6.350   5.965   1.710  0.0584 -0.2301 -0.6476
 8782TIP3    H147761   6.420   5.923   1.760 -1.1620 -1.1352  0.3766
 8782TIP3    H247762   6.277   5.903   1.715 -0.8214  0.6777 -1.6938
 8783TIP3   OH247763   1.966   0.329  16.199  0.0751  0.3286  0.1425
 8783TIP3    H147764   1.897   0.318  16.134  0.1757 -3.1167  0.4233
 8783TIP3    H247765   1.921   0.324  16.283  0.3250  1.5795  0.3800
 8784TIP3   OH247766   5.465   4.953   6.106 -0.1573  0.0571  0.9348
 8784TIP3    H147767   5.429   4.993   6.185  1.5908  1.2697  1.1563
 8784TIP3    H247768   5.559   4.951   6.121  0.1676 -0.1245 -0.9317
 8785TIP3   OH247769   1.803   1.162  16.258  0.0060 -0.5395 -0.2284
 8785TIP3    H147770   1.815   1.085  16.201 -1.2827 -1.0652  0.1702
 8785TIP3    H247771   1.814   1.128  16.346 -0.3012 -0.2063 -0.0603
 8786TIP3   OH247772   2.974   3.207  15.163 -0.5408  0.3067 -0.1427
 8786TIP3    H147773   2.998   3.136  15.103 -1.0779  0.6639 -0.7925
 8786TIP3    H247774   2.897   3.248  15.122 -0.0576  1.4563  0.0679
 8787TIP3   OH247775   1.332   2.310  16.809  0.6600 -0.0307 -0.5582
 8787TIP3    H147776   1.270   2.382  16.822  0.9850  0.2154 -0.3342
 8787TIP3    H247777   1.331   2.294  16.715  0.3404  0.0435 -0.5701
 8788TIP3   OH247778   4.035   3.960  12.726 -0.0136 -0.3887  0.2298
 8788TIP3    H147779   4.008   3.882  12.678 -1.9432 -0.0979  0.7533
 8788TIP3    H247780   4.042   4.028  12.659  0.3983 -0.7000 -0.0491
 8789TIP3   OH247781   0.729   1.193  14.937  0.2059 -0.2628  0.2670
 8789TIP3    H147782   0.690   1.137  14.870 -3.2136  1.0385  0.9109
 8789TIP3    H247783   0.742   1.136  15.012 -1.9675 -0.5730  0.4790
 8790TIP3   OH247784   4.822   5.779   4.013  0.1677 -0.7814 -0.0268
 8790TIP3    H147785   4.866   5.696   4.028 -0.9652 -1.5454 -0.7633
 8790TIP3    H247786   4.731   5.764   4.038 -0.5448 -0.4556 -2.1738
 8791TIP3   OH247787   0.849   2.207  12.322 -0.7419  0.4215  0.0096
 8791TIP3    H147788   0.897   2.263  12.383 -0.8645  1.2366 -0.6244
 8791TIP3    H247789   0.825   2.265  12.249  0.1149 -0.7047 -1.2215
 8792TIP3   OH247790   5.013   2.497   3.896 -0.3740 -0.0842 -0.0455
 8792TIP3    H147791   4.989   2.485   3.804  1.8716 -1.3387 -0.5289
 8792TIP3    H247792   5.034   2.590   3.903 -1.4767  0.2289 -0.5267
 8793TIP3   OH247793   4.384   5.820   0.864  0.4808  0.0601  0.4443
 8793TIP3    H147794   4.326   5.810   0.940 -1.2129 -0.2912 -0.8321
 8793TIP3    H247795   4.435   5.739   0.862  0.1442 -0.1681  0.8988
 8794TIP3   OH247796   6.678   5.492  16.386  0.2521  0.4390 -0.0913
 8794TIP3    H147797   6.756   5.519  16.338 -0.1161  1.4891 -0.1302
 8794TIP3    H247798   6.624   5.571  16.391 -0.7638 -0.2333  0.0283
 8795TIP3   OH247799   5.818   3.265   6.259  1.0589 -0.1497  0.0063
 8795TIP3    H147800   5.810   3.360   6.249 -2.6831 -0.2602  0.5547
 8795TIP3    H247801   5.889   3.253   6.321 -0.8702  2.6235  3.0599
 8796TIP3   OH247802   4.275   5.380  11.766 -0.1224 -0.2081 -0.5170
 8796TIP3    H147803   4.193   5.398  11.720 -0.7058  0.2506  0.6554
 8796TIP3    H247804   4.269   5.289  11.793 -0.0704 -0.2839 -0.7554
 8797TIP3   OH247805   1.428   6.418   1.987  0.1631  0.5372  0.0423
 8797TIP3    H147806   1.432   6.453   1.898  1.5870  0.9189  0.2218
 8797TIP3    H247807   1.494   6.348   1.989  1.3143  1.5839  1.1950
 8798TIP3   OH247808   6.501   1.758   3.879  0.2961 -0.3886  0.2231
 8798TIP3    H147809   6.412   1.750   3.845 -0.3053 -0.5993  1.7570
 8798TIP3    H247810   6.492   1.744   3.973  1.8417  0.4474  0.5272
 8799TIP3   OH247811   2.051   4.809  15.345  0.3973  0.0145 -0.6694
 8799TIP3    H147812   2.075   4.820  15.437 -1.4679  2.3501 -0.3724
 8799TIP3    H247813   1.986   4.739  15.345  2.9674 -2.5807 -0.8076
 8800TIP3   OH247814   0.935   3.681  16.709  1.0937 -0.1994  0.5042
 8800TIP3    H147815   0.987   3.623  16.653  1.1934  0.7223 -0.3724
 8800TIP3    H247816   0.852   3.691  16.662  1.2267  0.6870  0.4470
 8801TIP3   OH247817   2.343   4.022   4.530 -0.1848  0.6613  0.2214
 8801TIP3    H147818   2.263   4.063   4.562 -0.8692 -2.1336  2.4932
 8801TIP3    H247819   2.313   3.941   4.488  1.3866  0.0106  0.2920
 8802TIP3   OH247820   2.254   5.158   5.419 -0.3028  0.5649  0.0972
 8802TIP3    H147821   2.162   5.173   5.443 -0.6789  0.6977 -1.3180
 8802TIP3    H247822   2.302   5.229   5.462 -0.7133 -0.0361  1.6149
 8803TIP3   OH247823   6.231   0.767   2.851  0.0470  0.0892 -0.6066
 8803TIP3    H147824   6.144   0.727   2.857  0.3179 -0.2737  1.5416
 8803TIP3    H247825   6.231   0.835   2.919  0.9974  1.0273 -1.4955
 8804TIP3   OH247826   0.134   4.015   4.653 -0.5581  0.4107 -0.3228
 8804TIP3    H147827   0.122   3.933   4.702  1.5542  1.0772  1.5045
 8804TIP3    H247828   0.215   4.000   4.603 -0.2122  1.3264 -0.0473
 8805TIP3   OH247829   2.415   0.852  12.077  0.1579 -0.3888 -0.1449
 8805TIP3    H147830   2.509   0.861  12.095  0.0334 -1.1473  0.9790
 8805TIP3    H247831   2.412   0.797  11.998  0.6708  1.0216 -1.1822
 8806TIP3   OH247832   6.729   2.734  15.970  0.1836 -0.5167  0.5714
 8806TIP3    H147833   6.754   2.806  15.913 -2.1745 -0.0600 -0.0070
 8806TIP3    H247834   6.759   2.761  16.057 -2.9274  2.5958  0.8960
 8807TIP3   OH247835   2.494   3.095   4.872 -0.7190 -0.0284  0.0245
 8807TIP3    H147836   2.575   3.139   4.897  0.1639  0.2990 -3.0150
 8807TIP3    H247837   2.428   3.165   4.871  0.0269  0.7341 -1.8326
 8808TIP3   OH247838   3.280   3.809  14.796  0.4735  0.0660 -0.0785
 8808TIP3    H147839   3.198   3.766  14.770  1.2316 -0.5556 -1.5213
 8808TIP3    H247840   3.254   3.866  14.869 -0.6346 -2.5187  1.6854
 8809TIP3   OH247841   6.135   2.413  13.449  0.7990  0.1169 -0.1853
 8809TIP3    H147842   6.152   2.466  13.526  0.4035 -0.4216  0.2906
 8809TIP3    H247843   6.116   2.476  13.379 -2.1009  0.6479  0.9182
 8810TIP3   OH247844   5.226   1.290  11.481 -0.3437  0.1071  0.2420
 8810TIP3    H147845   5.159   1.230  11.515  0.7270 -1.0653  0.3823
 8810TIP3    H247846   5.289   1.298  11.553  0.2696  0.2361 -0.3021
 8811TIP3   OH247847   5.152   4.479   4.349  0.0488 -0.2487  0.5216
 8811TIP3    H147848   5.058   4.460   4.341  0.3279 -1.3177 -0.5006
 8811TIP3    H247849   5.187   4.462   4.261  1.3076 -0.5023  1.0596
 8812TIP3   OH247850   0.455   5.356  16.197 -0.2545 -0.4300 -0.1941
 8812TIP3    H147851   0.483   5.321  16.113 -1.5933  1.2027 -1.3801
 8812TIP3    H247852   0.513   5.431  16.213 -1.0582  0.2753 -0.5058
 8813TIP3   OH247853   2.579   1.562   3.752  0.3344 -0.3995  1.0263
 8813TIP3    H147854   2.516   1.634   3.743 -0.7734 -1.3016  1.2755
 8813TIP3    H247855   2.606   1.543   3.662  1.0870  0.6978  1.0056
 8814TIP3   OH247856   6.716   4.687  11.756  0.6597 -0.3363  0.5398
 8814TIP3    H147857   6.714   4.783  11.755 -1.2241 -0.2829 -2.0567
 8814TIP3    H247858   6.807   4.664  11.739  0.5863  1.1466 -2.5430
 8815TIP3   OH247859   4.939   1.945  11.760  0.0712 -0.2170 -0.2418
 8815TIP3    H147860   4.929   2.025  11.709 -0.1189 -0.1528 -0.1033
 8815TIP3    H247861   4.854   1.901  11.753  0.2403 -0.5050 -0.4863
 8816TIP3   OH247862   4.553   2.228  16.285  0.1445  0.2891 -0.1453
 8816TIP3    H147863   4.472   2.179  16.299  0.6241 -0.2102  1.0231
 8816TIP3    H247864   4.582   2.252  16.373  1.3319  0.3432 -0.5335
 8817TIP3   OH247865   3.788   5.233  11.573  0.4520 -0.6113 -0.0974
 8817TIP3    H147866   3.881   5.214  11.576  0.7508  0.8731  2.3585
 8817TIP3    H247867   3.783   5.323  11.538 -0.0205 -0.4941  0.2697
 8818TIP3   OH247868   2.795   1.395  16.583  0.4270  0.4766 -0.0813
 8818TIP3    H147869   2.737   1.385  16.508 -0.1645  0.4160  0.3730
 8818TIP3    H247870   2.782   1.486  16.612  0.8042  0.5616 -0.1764
 8819TIP3   OH247871   1.467   0.810   2.078  0.4676  0.9005 -0.5221
 8819TIP3    H147872   1.428   0.885   2.122 -2.3999 -0.3601 -0.6744
 8819TIP3    H247873   1.485   0.748   2.149 -0.0038  0.5988 -0.6569
 8820TIP3   OH247874   4.141   1.151  14.612  0.3641  0.0717 -0.1257
 8820TIP3    H147875   4.111   1.239  14.635 -0.3198 -0.5560  1.4915
 8820TIP3    H247876   4.116   1.096  14.687  0.2372 -1.6250 -1.3544
 8821TIP3   OH247877   6.453   1.053   2.184  0.3562  0.0105 -0.4701
 8821TIP3    H147878   6.521   1.106   2.225  0.0297 -0.2630  0.4649
 8821TIP3    H247879   6.456   0.969   2.231 -0.6823  0.0281 -0.3368
 8822TIP3   OH247880   4.010   3.234   4.327 -0.2678 -0.6636  0.3344
 8822TIP3    H147881   4.015   3.139   4.319  1.2001 -0.5124 -1.1362
 8822TIP3    H247882   4.101   3.263   4.316 -0.6686  0.8918  0.9674
 8823TIP3   OH247883   4.353   4.621  16.986  0.6844 -0.1781  0.5226
 8823TIP3    H147884   4.391   4.546  16.940 -0.0221 -0.5139  0.4668
 8823TIP3    H247885   4.418   4.691  16.977  0.7873 -0.3962 -0.5341
 8824TIP3   OH247886   6.670   5.134  13.420  0.0707 -0.4726  0.0399
 8824TIP3    H147887   6.698   5.181  13.499  0.8600 -0.0067 -0.5018
 8824TIP3    H247888   6.724   5.056  13.417  0.0782 -0.4643 -0.0626
 8825TIP3   OH247889   2.772   5.614   2.054  0.4616 -0.4242 -0.1152
 8825TIP3    H147890   2.835   5.685   2.069  1.6389 -1.3134 -0.6153
 8825TIP3    H247891   2.752   5.581   2.141  1.2689 -0.5920  0.0145
 8826TIP3   OH247892   3.821   6.115   6.771 -0.0236  0.6462 -0.2258
 8826TIP3    H147893   3.756   6.127   6.702 -0.7246 -1.0374  0.0734
 8826TIP3    H247894   3.846   6.022   6.764  0.7796  0.7398  1.0127
 8827TIP3   OH247895   0.773   2.449  13.195  1.2856  0.4915  0.0956
 8827TIP3    H147896   0.850   2.454  13.139  0.4278 -0.7609 -1.2717
 8827TIP3    H247897   0.709   2.400  13.143 -0.2057  0.9323  1.4444
 8828TIP3   OH247898   1.913   3.879   3.338  0.0706 -0.3895  0.3916
 8828TIP3    H147899   1.966   3.806   3.370  0.2185 -0.6127 -0.3283
 8828TIP3    H247900   1.825   3.842   3.329  0.2118 -0.5767 -0.2747
 8829TIP3   OH247901   3.719   5.421  11.177  0.2095 -0.1369  0.1834
 8829TIP3    H147902   3.667   5.427  11.097  0.5972  2.9769  0.0512
 8829TIP3    H247903   3.793   5.364  11.153 -0.6794 -0.8445 -1.0178
 8830TIP3   OH247904   4.306   5.123  12.227  0.1809 -0.3333  0.3444
 8830TIP3    H147905   4.277   5.138  12.317  0.9219 -1.5059  0.8080
 8830TIP3    H247906   4.238   5.068  12.189 -1.7861  2.6812 -0.8919
 8831TIP3   OH247907   1.464   4.068   4.609  0.0229  0.3050 -0.4092
 8831TIP3    H147908   1.513   3.995   4.570 -4.7670 -1.7012 -3.7061
 8831TIP3    H247909   1.414   4.027   4.680  0.3603  1.4274  0.4977
 8832TIP3   OH247910   1.167   4.899  11.533  0.0625  0.4116  0.2553
 8832TIP3    H147911   1.233   4.875  11.468 -0.3732  0.9684 -0.4021
 8832TIP3    H247912   1.217   4.910  11.614  1.0021  2.0471 -0.4928
 8833TIP3   OH247913   2.224   0.895   0.477 -0.6153 -0.1600 -0.1383
 8833TIP3    H147914   2.310   0.936   0.462  1.3211 -3.6485  0.3443
 8833TIP3    H247915   2.245   0.806   0.507 -4.4489 -1.0599  0.3571
 8834TIP3   OH247916   3.143   1.901   5.799  0.3938  0.1541 -0.6807
 8834TIP3    H147917   3.107   1.990   5.800  0.1757  0.0681  0.3150
 8834TIP3    H247918   3.211   1.902   5.866 -2.1849 -1.4110  2.2688
 8835TIP3   OH247919   0.165   6.593   3.256  0.1131  0.0060  0.0660
 8835TIP3    H147920   0.181   6.506   3.219  0.0383  0.2364 -0.5227
 8835TIP3    H247921   0.079   6.618   3.222  0.3545  0.5231 -0.1800
 8836TIP3   OH247922   5.201   0.001   2.568 -0.1077  0.6241 -0.3122
 8836TIP3    H147923   5.173   0.041   2.486 -0.4621 -0.2305 -0.6168
 8836TIP3    H247924   5.273  -0.058   2.543 -0.2764  0.2906 -0.0264
 8837TIP3   OH247925   3.507   0.754   3.999 -0.5842 -0.1458 -0.0569
 8837TIP3    H147926   3.480   0.822   4.061  0.4756  0.4318 -0.1982
 8837TIP3    H247927   3.600   0.740   4.019 -0.2090  0.0803 -1.5326
 8838TIP3   OH247928   1.802   3.345   3.783  0.2670 -0.6871  0.2115
 8838TIP3    H147929   1.736   3.398   3.828  1.3619 -0.4071  1.5736
 8838TIP3    H247930   1.764   3.258   3.778 -0.9122 -0.1542 -0.6248
 8839TIP3   OH247931   6.641   6.682   1.838 -1.1126  0.0673  0.0736
 8839TIP3    H147932   6.617   6.762   1.885 -4.3450 -0.8489  0.1877
 8839TIP3    H247933   6.584   6.680   1.762  0.5427 -1.0235 -1.2125
 8840TIP3   OH247934   3.038   6.191  16.114 -0.0543 -0.3634 -0.4227
 8840TIP3    H147935   3.027   6.279  16.151 -1.3428  0.1742 -1.9544
 8840TIP3    H247936   3.064   6.137  16.189 -0.1264  1.1386  0.7410
 8841TIP3   OH247937   5.244   5.368  12.302  0.1058 -0.2924 -0.2874
 8841TIP3    H147938   5.298   5.346  12.379 -1.5060  0.0764  0.9918
 8841TIP3    H247939   5.307   5.369  12.230  1.4832 -1.8840  0.7863
 8842TIP3   OH247940   0.657   3.539   3.552 -0.4401  0.0183 -0.3981
 8842TIP3    H147941   0.686   3.591   3.477  0.8294  2.7231  1.7848
 8842TIP3    H247942   0.733   3.486   3.576 -0.5196 -0.1165 -0.4442
 8843TIP3   OH247943   5.303   0.697  12.280 -0.2818 -0.6656 -0.0601
 8843TIP3    H147944   5.384   0.704  12.229  0.1456  0.6455  0.7682
 8843TIP3    H247945   5.325   0.639  12.353 -0.4208 -1.1790 -0.4127
 8844TIP3   OH247946   6.519   6.029   3.243  0.1184  0.1108 -0.5663
 8844TIP3    H147947   6.425   6.037   3.259 -0.3263 -1.8370 -1.8012
 8844TIP3    H247948   6.556   6.005   3.328 -0.5625  0.4819 -0.1632
 8845TIP3   OH247949   5.052   2.081  16.246  0.3238  0.5678 -0.1006
 8845TIP3    H147950   5.024   2.172  16.258 -1.5758 -0.0331  0.4253
 8845TIP3    H247951   5.061   2.047  16.335  1.1540  0.2505 -0.2946
 8846TIP3   OH247952   6.738   5.703   3.357  0.1352  0.0857  0.3334
 8846TIP3    H147953   6.646   5.718   3.337 -0.1571  1.0009  2.1366
 8846TIP3    H247954   6.781   5.786   3.339  0.2681  0.2121  1.1836
 8847TIP3   OH247955   4.423   0.146   5.759  0.3475 -0.6075 -0.5139
 8847TIP3    H147956   4.513   0.117   5.747 -0.0894 -1.3497 -2.3525
 8847TIP3    H247957   4.423   0.237   5.728  0.4727 -0.5506 -0.3544
 8848TIP3   OH247958   4.917   2.536   3.648  0.3556 -0.2967  0.5893
 8848TIP3    H147959   4.831   2.535   3.607  0.1495 -1.6541  1.0150
 8848TIP3    H247960   4.977   2.509   3.579  0.7484  2.3065 -0.2255
 8849TIP3   OH247961   6.251   4.138  16.158 -0.3490  0.4211  0.5407
 8849TIP3    H147962   6.256   4.078  16.083  0.0204 -0.2814  1.1144
 8849TIP3    H247963   6.197   4.210  16.127 -0.9743 -0.3013 -0.1089
 8850TIP3   OH247964   3.641   5.036  11.408 -0.2075  0.2885 -0.5269
 8850TIP3    H147965   3.588   4.979  11.352  0.9980 -0.0334 -1.3776
 8850TIP3    H247966   3.667   5.108  11.351 -0.9909  1.2685  0.3084
 8851TIP3   OH247967   1.101   2.525   3.504  0.7281 -0.1412  0.4896
 8851TIP3    H147968   1.025   2.473   3.530  0.7627  0.1889  1.2932
 8851TIP3    H247969   1.176   2.480   3.542  0.9243 -0.3842 -0.1765
 8852TIP3   OH247970   6.206   3.547  16.327 -0.1241  0.3903 -0.5100
 8852TIP3    H147971   6.254   3.465  16.343  1.6792  1.1408 -1.7073
 8852TIP3    H247972   6.174   3.539  16.237 -1.1003  0.4713 -0.1811
 8853TIP3   OH247973   3.438   3.261  12.394 -0.3203  0.1299 -0.1636
 8853TIP3    H147974   3.364   3.274  12.334 -3.1288  0.4809  3.0631
 8853TIP3    H247975   3.445   3.344  12.442  0.2291 -0.8639  1.5637
 8854TIP3   OH247976   2.549   4.802   2.300 -0.5290  0.1336  0.1792
 8854TIP3    H147977   2.552   4.795   2.395  0.2582  0.2884  0.1694
 8854TIP3    H247978   2.641   4.801   2.272 -0.7540 -1.8732 -0.7268
 8855TIP3   OH247979   2.983   4.580   0.781  0.0206  0.0691  0.7480
 8855TIP3    H147980   2.993   4.662   0.830 -2.3818 -0.0737  1.6621
 8855TIP3    H247981   3.040   4.517   0.826  0.4509  0.7803  1.2125
 8856TIP3   OH247982   2.239   6.688  14.800 -0.2699 -0.0541 -0.0740
 8856TIP3    H147983   2.253   6.750  14.728  0.2372 -0.9118 -0.7448
 8856TIP3    H247984   2.327   6.673  14.835 -0.2203 -1.2537 -0.6719
 8857TIP3   OH247985   5.388   1.942   3.738  0.1303 -0.4252 -0.2415
 8857TIP3    H147986   5.398   2.021   3.686 -0.8797 -0.8903 -1.1776
 8857TIP3    H247987   5.436   1.960   3.819 -0.5534  1.3429 -0.2031
 8858TIP3   OH247988   4.572   4.098   0.957  0.3566 -0.4462 -0.7051
 8858TIP3    H147989   4.599   4.145   1.036 -0.5402 -0.6158 -0.2942
 8858TIP3    H247990   4.642   4.034   0.942  0.0682 -1.0726  0.5134
 8859TIP3   OH247991   1.462   4.579  12.425  0.4241  0.5084 -0.7203
 8859TIP3    H147992   1.451   4.525  12.504 -0.2508  0.7609 -0.6340
 8859TIP3    H247993   1.384   4.636  12.424  0.5144  0.6258 -1.4766
 8860TIP3   OH247994   0.665   6.279  12.908 -0.3638  0.1397  0.4851
 8860TIP3    H147995   0.610   6.263  12.832  1.3412 -0.4488 -0.6691
 8860TIP3    H247996   0.621   6.351  12.954 -0.8156  1.3302 -1.6753
 8861TIP3   OH247997   0.909   0.969  13.620 -0.0843 -0.2107 -0.0762
 8861TIP3    H147998   0.831   0.952  13.567  0.0831  0.1399 -0.4393
 8861TIP3    H247999   0.981   0.970  13.557  0.3591 -1.5125  0.3789
 8862TIP3   OH248000   0.193   5.336  14.680  0.7980  0.4420 -0.5015
 8862TIP3    H148001   0.180   5.275  14.753  0.3631  0.1582 -0.8116
 8862TIP3    H248002   0.109   5.383  14.673  1.5198  1.9601  0.5308
 8863TIP3   OH248003   0.759   1.958  14.988  0.6303  0.4529 -0.2279
 8863TIP3    H148004   0.818   1.884  14.982  0.4180  0.3166 -0.6573
 8863TIP3    H248005   0.792   2.010  15.061  1.4679  0.5530 -0.6734
 8864TIP3   OH248006   4.255   6.568  14.606 -0.3440 -0.2825 -0.1869
 8864TIP3    H148007   4.208   6.563  14.523 -0.5416 -0.0882 -0.0842
 8864TIP3    H248008   4.229   6.488  14.652  0.5136 -0.8833 -0.7074
 8865TIP3   OH248009   4.883   5.357   2.195  1.0429  0.0158  0.2009
 8865TIP3    H148010   4.861   5.277   2.243 -0.8944 -0.7656 -1.8084
 8865TIP3    H248011   4.877   5.332   2.103  2.6382  1.9466 -0.5138
 8866TIP3   OH248012   1.636   5.800  14.839 -0.0814  0.0361 -0.0583
 8866TIP3    H148013   1.557   5.828  14.793 -1.2987  0.1496  1.9646
 8866TIP3    H248014   1.705   5.854  14.803 -1.1864  0.9490 -0.8925
 8867TIP3   OH248015   2.589   2.241   3.089 -0.4231 -0.0732  0.6447
 8867TIP3    H148016   2.594   2.147   3.104  1.0193  0.1453  1.8101
 8867TIP3    H248017   2.664   2.276   3.137 -0.9382  1.6705  0.2283
 8868TIP3   OH248018   6.684   1.290   4.264  0.0979  0.5429  0.0039
 8868TIP3    H148019   6.633   1.370   4.272  0.8743  0.9900  0.5513
 8868TIP3    H248020   6.724   1.295   4.177  2.2611  2.0514  0.9965
 8869TIP3   OH248021   5.288   3.536   2.828  0.5211 -0.0168 -0.2003
 8869TIP3    H148022   5.271   3.460   2.884  0.1935  0.9556  1.0828
 8869TIP3    H248023   5.375   3.566   2.855  0.3735  0.4424 -0.2166
 8870TIP3   OH248024   0.475   3.619  15.553  0.4228 -0.1329  0.1365
 8870TIP3    H148025   0.559   3.642  15.592  0.3966 -0.3121  0.2994
 8870TIP3    H248026   0.431   3.568  15.621 -0.2918  0.9402  0.5221
 8871TIP3   OH248027   4.848   4.144  15.947 -0.0451 -0.4369 -0.2959
 8871TIP3    H148028   4.866   4.073  15.885 -1.2989  0.0863 -1.2980
 8871TIP3    H248029   4.859   4.224  15.896 -0.9279  0.0075  0.1896
 8872TIP3   OH248030   6.064   4.283  14.056 -0.0068  0.3745 -0.2599
 8872TIP3    H148031   6.079   4.375  14.078  0.0272  0.7578 -1.7742
 8872TIP3    H248032   5.970   4.271  14.070  0.2073  0.2345  1.2592
 8873TIP3   OH248033   1.067   1.183  15.329  0.3793 -0.5937  0.0831
 8873TIP3    H148034   1.004   1.165  15.398  0.3153  1.6595  0.7028
 8873TIP3    H248035   1.015   1.222  15.259  0.6388 -1.6846 -0.7417
 8874TIP3   OH248036   6.536   2.656  17.092 -0.5581  0.1254  0.6016
 8874TIP3    H148037   6.616   2.611  17.065  0.8450  2.4594  0.5654
 8874TIP3    H248038   6.532   2.644  17.187  1.1047  1.8030  0.9283
 8875TIP3   OH248039   6.514   0.643  16.967 -0.1873  0.4367 -0.2834
 8875TIP3    H148040   6.530   0.723  17.016 -0.7651  0.9454 -0.9053
 8875TIP3    H248041   6.523   0.669  16.875  0.5613 -0.4267 -0.4757
 8876TIP3   OH248042   1.628   5.390   6.228  0.1021 -0.1508 -0.1236
 8876TIP3    H148043   1.575   5.368   6.305 -0.9563 -0.2823 -0.8783
 8876TIP3    H248044   1.625   5.486   6.223 -0.0100 -0.1549 -0.1300
 8877TIP3   OH248045   0.991   5.319   3.691  0.4684  0.0153 -0.1242
 8877TIP3    H148046   0.900   5.325   3.661  0.5982 -0.1008 -0.5443
 8877TIP3    H248047   0.985   5.328   3.786 -0.1299 -1.5523  0.0079
 8878TIP3   OH248048   5.146   4.715  14.775 -0.5151 -0.1091  0.9425
 8878TIP3    H148049   5.106   4.799  14.754 -1.0236 -0.6276 -0.2707
 8878TIP3    H248050   5.155   4.671  14.690  0.4401 -0.9744  1.4690
 8879TIP3   OH248051   5.468   6.108   4.670  0.4146  0.0381 -0.3824
 8879TIP3    H148052   5.469   6.081   4.762  0.7390  1.2427 -0.0050
 8879TIP3    H248053   5.386   6.072   4.636  1.4177 -2.4918 -0.3184
 8880TIP3   OH248054   5.666   1.996   0.213 -0.1488 -0.3146 -0.0290
 8880TIP3    H148055   5.689   2.089   0.212  0.8923 -0.5543 -1.2005
 8880TIP3    H248056   5.644   1.978   0.304 -0.5578  1.1190  0.1785
 8881TIP3   OH248057   4.091   0.055   0.311 -0.1201 -0.1939 -0.2160
 8881TIP3    H148058   4.052  -0.026   0.276 -1.4524  0.2663  0.1343
 8881TIP3    H248059   4.100   0.112   0.235 -1.6950  0.2898 -0.0679
 8882TIP3   OH248060   6.151   3.078  15.769  0.0669  0.8754 -0.2755
 8882TIP3    H148061   6.192   3.143  15.712  0.3753  0.2691 -0.7547
 8882TIP3    H248062   6.172   2.993  15.729 -0.5204  0.4850  0.2117
 8883TIP3   OH248063   0.989   0.157  16.446 -0.1515  0.0598  0.5221
 8883TIP3    H148064   1.062   0.206  16.408 -0.3008 -1.4540 -1.9003
 8883TIP3    H248065   0.913   0.214  16.434  0.2295  0.6547  0.8881
 8884TIP3   OH248066   3.950   2.028   1.360  0.9294 -0.5882  0.7902
 8884TIP3    H148067   3.924   1.971   1.289 -0.3307 -0.3692  1.0631
 8884TIP3    H248068   4.041   2.003   1.379  1.1080 -0.9851 -0.5365
 8885TIP3   OH248069   5.525   3.121   2.729 -0.1498  0.0862  0.1691
 8885TIP3    H148070   5.593   3.068   2.688 -0.3207 -1.9689  2.3534
 8885TIP3    H248071   5.524   3.202   2.678  0.3752 -1.8160 -3.0987
 8886TIP3   OH248072   5.980   2.780  11.501  0.1668 -0.0445  1.0387
 8886TIP3    H148073   6.023   2.817  11.578  1.8205  0.1556  0.0754
 8886TIP3    H248074   5.951   2.693  11.528  0.9596 -0.0807  1.8117
 8887TIP3   OH248075   1.242   5.467  11.469  0.0651  0.5293  0.0151
 8887TIP3    H148076   1.163   5.417  11.449 -1.2540  2.0876  1.0461
 8887TIP3    H248077   1.262   5.513  11.388 -1.6358  2.0700  0.3844
 8888TIP3   OH248078   1.380   2.894   1.065  0.6951  0.6519 -0.3295
 8888TIP3    H148079   1.318   2.935   1.004  0.5645  0.6384 -0.2056
 8888TIP3    H248080   1.349   2.804   1.074  0.2073  0.8807  0.4181
 8889TIP3   OH248081   1.352   1.429  16.668 -0.6072  0.3034 -0.5368
 8889TIP3    H148082   1.376   1.355  16.612  0.5362  0.8926 -0.8590
 8889TIP3    H248083   1.365   1.397  16.757 -0.8623 -0.1215 -0.6479
 8890TIP3   OH248084   3.279   0.450   5.682  0.0948 -0.0627 -0.4748
 8890TIP3    H148085   3.299   0.463   5.774  0.0818 -1.6753 -0.2191
 8890TIP3    H248086   3.193   0.409   5.681 -0.0232  0.1770 -1.2192
 8891TIP3   OH248087   5.252   1.480   3.191  0.1105 -0.4095 -0.7089
 8891TIP3    H148088   5.212   1.413   3.246  0.3124  0.1939  0.1955
 8891TIP3    H248089   5.179   1.517   3.141 -0.2832 -0.1393  0.0479
 8892TIP3   OH248090   1.971   2.624  11.699  0.3236 -0.0160  0.0619
 8892TIP3    H148091   1.896   2.683  11.691  0.1973 -0.2580 -0.6118
 8892TIP3    H248092   2.007   2.643  11.786 -0.9595 -0.4121  0.7046
 8893TIP3   OH248093   5.925   6.682   4.776 -0.1478 -0.4979  0.3336
 8893TIP3    H148094   5.849   6.699   4.719 -1.6798 -1.7849  1.8749
 8893TIP3    H248095   5.999   6.675   4.715 -1.8114 -2.6460 -1.6791
 8894TIP3   OH248096   4.675   6.077  13.473 -0.3644  0.4948 -0.0339
 8894TIP3    H148097   4.619   6.134  13.421 -0.1722  0.6566 -0.0670
 8894TIP3    H248098   4.756   6.128  13.485 -0.2366  0.2767  0.0350
 8895TIP3   OH248099   2.995   0.166   3.831 -0.1517  0.5021  0.6526
 8895TIP3    H148100   2.918   0.222   3.831 -0.8624 -0.4522  0.1115
 8895TIP3    H248101   3.024   0.164   3.740 -1.2223 -1.4306  0.3020
 8896TIP3   OH248102   0.509   3.545   1.459 -0.1545  0.5366 -0.0975
 8896TIP3    H148103   0.571   3.604   1.502 -0.1283  0.8826 -0.6029
 8896TIP3    H248104   0.444   3.603   1.419 -1.0050  0.1739  0.7075
 8897TIP3   OH248105   0.488   1.630  12.287  0.0583  0.4197 -0.0344
 8897TIP3    H148106   0.438   1.549  12.298  0.3141  0.3314  0.5155
 8897TIP3    H248107   0.427   1.700  12.310 -0.1127  0.3693 -0.3430
 8898TIP3   OH248108   6.163   2.789   0.628  0.5294  0.0742 -0.4215
 8898TIP3    H148109   6.069   2.802   0.640  0.3749 -0.2299 -1.2065
 8898TIP3    H248110   6.190   2.739   0.705  0.6796  2.8205  1.4360
 8899TIP3   OH248111   2.757   1.540  12.276  0.1528 -0.2219  0.3903
 8899TIP3    H148112   2.755   1.452  12.313  2.1264 -0.1721  0.7017
 8899TIP3    H248113   2.736   1.528  12.184 -1.9596 -0.6885  0.8648
 8900TIP3   OH248114   2.819   4.067   0.944  0.2515  0.4870  0.9414
 8900TIP3    H148115   2.850   4.060   0.854 -0.2012 -0.7452  0.8532
 8900TIP3    H248116   2.730   4.100   0.936  0.5107  1.2203  1.0057
 8901TIP3   OH248117   4.088   4.155  16.126  0.5194  0.4538  0.1004
 8901TIP3    H148118   4.035   4.233  16.142 -1.7245 -0.9775  0.1260
 8901TIP3    H248119   4.139   4.144  16.206 -3.1690 -1.0453  2.4870
 8902TIP3   OH248120   3.902   0.285   0.697  0.1391  0.2730  0.0533
 8902TIP3    H148121   3.866   0.336   0.625  0.7681  0.3935 -0.1778
 8902TIP3    H248122   3.956   0.347   0.746 -0.5961  0.2906  0.8577
 8903TIP3   OH248123   3.189   1.283   2.906  0.6213  0.4521  0.2609
 8903TIP3    H148124   3.214   1.361   2.856  1.5506 -0.0248 -0.0487
 8903TIP3    H248125   3.257   1.218   2.885  0.4966 -0.0733  1.3893
 8904TIP3   OH248126   5.095   5.202  11.981  0.3288 -0.2950 -0.2308
 8904TIP3    H148127   5.103   5.107  11.973  0.6063 -0.4103  1.2384
 8904TIP3    H248128   5.155   5.225  12.052 -2.3830  0.5019  1.9781
 8905TIP3   OH248129   6.602   2.873   2.640  0.1452 -0.2914  0.1646
 8905TIP3    H148130   6.610   2.789   2.594 -0.2871 -0.4661  0.3992
 8905TIP3    H248131   6.692   2.897   2.662  0.2254 -1.0738  0.7580
 8906TIP3   OH248132   0.530   2.254   4.515 -0.0582  0.1273 -0.1211
 8906TIP3    H148133   0.538   2.159   4.506  1.0454  0.1296  0.6711
 8906TIP3    H248134   0.566   2.273   4.601  1.1722  1.4202 -0.8778
 8907TIP3   OH248135   2.564   1.717  15.630 -0.0408 -0.3910 -0.2479
 8907TIP3    H148136   2.520   1.714  15.545 -2.5000 -1.3772  0.9686
 8907TIP3    H248137   2.515   1.657  15.685  0.7292  1.0875  2.2248
 8908TIP3   OH248138   1.094   2.680   0.482 -0.1320 -0.2487 -0.0940
 8908TIP3    H148139   1.103   2.607   0.544 -1.7148  0.5758  1.1880
 8908TIP3    H248140   1.073   2.638   0.399  0.0190 -1.3076  0.3847
 8909TIP3   OH248141   1.423   4.078   1.298 -0.1271 -0.3686 -0.0334
 8909TIP3    H148142   1.443   3.990   1.332 -0.4546 -0.4022  0.0853
 8909TIP3    H248143   1.447   4.074   1.206  0.4844 -0.3768  0.1215
 8910TIP3   OH248144   1.723   0.817   5.556  0.0611  0.2147 -0.4482
 8910TIP3    H148145   1.724   0.832   5.651  0.6663  0.9756 -0.5655
 8910TIP3    H248146   1.805   0.773   5.537  0.2985  0.7638 -0.7211
 8911TIP3   OH248147   5.496   6.009  15.356 -0.1901 -0.0768  0.0239
 8911TIP3    H148148   5.432   5.941  15.379  1.8562 -1.4752  1.9434
 8911TIP3    H248149   5.476   6.081  15.416  0.0146 -0.5203  0.6374
 8912TIP3   OH248150   0.550   1.579   1.264 -0.1818 -0.3185  0.6546
 8912TIP3    H148151   0.563   1.618   1.178  1.8822  0.6203  1.3135
 8912TIP3    H248152   0.507   1.647   1.315  0.1134 -0.2347  0.7987
 8913TIP3   OH248153   3.792   0.075   0.949  0.4054  0.2201 -0.3660
 8913TIP3    H148154   3.842   0.122   0.883 -0.9524  0.1533 -1.4758
 8913TIP3    H248155   3.736   0.142   0.989 -1.7349 -0.4071 -2.1406
 8914TIP3   OH248156   1.910   5.171  16.641 -0.1397  0.0470 -0.5840
 8914TIP3    H148157   1.901   5.086  16.684  2.1319 -1.4650 -2.7856
 8914TIP3    H248158   1.987   5.211  16.682 -1.1411  1.0377  0.3721
 8915TIP3   OH248159   2.495   6.551  14.471 -0.2169 -0.2400 -0.2402
 8915TIP3    H148160   2.406   6.542  14.437 -1.0340 -1.1226  1.9411
 8915TIP3    H248161   2.496   6.638  14.511 -0.4492 -0.6027  0.5836
 8916TIP3   OH248162   3.107   0.815   1.920  0.2212  0.2453  0.0049
 8916TIP3    H148163   3.037   0.790   1.981 -0.1041  2.1009  0.4386
 8916TIP3    H248164   3.122   0.908   1.937  2.6663 -0.0379 -0.2440
 8917TIP3   OH248165   0.374   1.349   1.792  0.0593  0.1946  0.1768
 8917TIP3    H148166   0.428   1.419   1.829  2.9100 -1.1116 -1.1434
 8917TIP3    H248167   0.341   1.301   1.868 -0.3256  1.8141  1.0569
 8918TIP3   OH248168   3.807   4.385   3.099  0.7166 -0.3843 -0.4504
 8918TIP3    H148169   3.895   4.372   3.063  1.9635  0.8956  1.8905
 8918TIP3    H248170   3.781   4.472   3.069  0.8098 -0.2409 -0.1247
 8919TIP3   OH248171   4.056   4.625   4.516 -0.0779  0.0216  0.5973
 8919TIP3    H148172   4.094   4.694   4.461 -1.4926  0.1759 -0.2156
 8919TIP3    H248173   3.964   4.648   4.525 -0.4821 -1.5139  0.6985
 8920TIP3   OH248174   0.280   1.768  14.430 -0.4077  0.3935 -0.3491
 8920TIP3    H148175   0.279   1.701  14.499 -0.6249  1.5189  0.7823
 8920TIP3    H248176   0.345   1.832  14.460 -0.7354  1.0640 -1.0467
 8921TIP3   OH248177   5.125   3.029  15.369 -0.7130  0.3188 -0.0069
 8921TIP3    H148178   5.158   3.035  15.280 -0.5950  0.6035  0.0570
 8921TIP3    H248179   5.029   3.030  15.359 -0.6990  0.9500 -0.0893
 8922TIP3   OH248180   0.471   0.613  11.451  0.6098 -0.2550 -0.0112
 8922TIP3    H148181   0.565   0.600  11.440  0.4572 -1.8180  0.2839
 8922TIP3    H248182   0.464   0.697  11.498  1.9278 -0.7026  1.0738
 8923TIP3   OH248183   5.613   3.251   5.388  0.3504 -0.5081  0.0370
 8923TIP3    H148184   5.592   3.345   5.383 -1.0963 -0.8733 -2.1677
 8923TIP3    H248185   5.643   3.228   5.301  0.3055 -2.1816  0.4281
 8924TIP3   OH248186   0.257   5.039  13.267 -0.0517  0.1166 -0.1003
 8924TIP3    H148187   0.345   5.076  13.258  0.0774  0.4287  2.0317
 8924TIP3    H248188   0.200   5.103  13.225  0.8052 -0.7824 -2.8480
 8925TIP3   OH248189   3.750   6.508  13.907 -0.1680 -0.1230 -0.4609
 8925TIP3    H148190   3.801   6.585  13.932  0.1243 -0.2691 -0.6027
 8925TIP3    H248191   3.738   6.517  13.812 -1.2999  0.4456 -0.2869
 8926TIP3   OH248192   0.751   3.564   4.504 -0.4663  0.3985 -0.5334
 8926TIP3    H148193   0.821   3.535   4.446 -0.0471 -2.1150  1.0712
 8926TIP3    H248194   0.796   3.606   4.577 -0.7636  0.6001 -0.4643
 8927TIP3   OH248195   3.037   6.437   1.744 -0.3688  0.4146  0.0040
 8927TIP3    H148196   3.095   6.461   1.672  1.5847 -0.3675  1.1997
 8927TIP3    H248197   2.969   6.383   1.704  2.2875 -2.5626 -0.9881
 8928TIP3   OH248198   5.293   2.090   4.926  0.1858  0.2948  0.4543
 8928TIP3    H148199   5.313   2.011   4.977 -3.4069 -1.0137  0.1675
 8928TIP3    H248200   5.229   2.137   4.980 -0.9048  0.7838 -1.1956
 8929TIP3   OH248201   6.601   3.286   1.087  0.3198 -0.1570 -0.0006
 8929TIP3    H148202   6.553   3.290   1.004 -0.9292 -1.2097  0.6422
 8929TIP3    H248203   6.615   3.378   1.111 -0.6397  0.1658 -0.6267
 8930TIP3   OH248204   3.310   0.326  16.532  0.0197  0.3597 -0.0409
 8930TIP3    H148205   3.242   0.327  16.599 -0.2562  2.0249 -0.2775
 8930TIP3    H248206   3.309   0.416  16.497  2.3061  0.4216 -0.0806
 8931TIP3   OH248207   2.725   5.935   2.103 -0.2072 -0.1517 -0.4345
 8931TIP3    H148208   2.711   5.897   2.190 -0.3191  0.3218 -0.2388
 8931TIP3    H248209   2.679   6.019   2.106 -0.9362 -0.5044 -1.2423
 8932TIP3   OH248210   5.832   2.260   1.086  0.2775  0.2991  0.7317
 8932TIP3    H148211   5.788   2.295   1.163 -1.9004  1.9735 -1.1596
 8932TIP3    H248212   5.768   2.200   1.047  0.6258  0.8234 -0.7032
 8933TIP3   OH248213   1.079   5.434  11.159  0.0929 -0.1015  0.2579
 8933TIP3    H148214   1.038   5.389  11.234  0.7621 -0.2278  0.5554
 8933TIP3    H248215   1.006   5.452  11.100 -0.6032  0.7926  1.3361
 8934TIP3   OH248216   4.934   2.046  16.997  0.1178  0.1542 -0.0470
 8934TIP3    H148217   4.928   2.013  17.087 -0.2486 -1.4548 -0.6196
 8934TIP3    H248218   4.852   2.092  16.983  0.1834  0.4308  0.4396
 8935TIP3   OH248219   5.534   0.532  14.514  0.2606  0.3009 -0.2538
 8935TIP3    H148220   5.597   0.563  14.449 -0.8401 -0.9814 -2.0321
 8935TIP3    H248221   5.452   0.576  14.492 -0.1544 -0.2247  0.2074
 8936TIP3   OH248222   3.343   1.899   1.976  0.5147 -0.3159  0.1741
 8936TIP3    H148223   3.404   1.879   2.046  2.1724 -2.0303 -1.6511
 8936TIP3    H248224   3.266   1.935   2.020  1.9103 -0.2994  2.7299
 8937TIP3   OH248225   0.913   1.301   2.671  0.0305 -0.1873 -0.2878
 8937TIP3    H148226   1.004   1.272   2.663 -0.1922 -1.0222  0.0675
 8937TIP3    H248227   0.870   1.229   2.718 -1.2668 -0.7240 -2.1906
 8938TIP3   OH248228   4.029   4.095  15.620  0.0786  0.1570  0.0425
 8938TIP3    H148229   4.112   4.050  15.606 -0.5549 -0.9736 -0.2323
 8938TIP3    H248230   3.965   4.042  15.572 -1.2051 -0.4145  2.2317
 8939TIP3   OH248231   1.632   4.517   0.201  0.2829  0.4209 -0.2057
 8939TIP3    H148232   1.723   4.543   0.182 -0.3482  2.6804 -0.4744
 8939TIP3    H248233   1.611   4.564   0.283 -0.6907  0.0743 -0.2495
 8940TIP3   OH248234   2.615   4.084   1.285  0.3714 -0.1980  0.1606
 8940TIP3    H148235   2.601   4.160   1.341  1.5761  0.3734 -0.2852
 8940TIP3    H248236   2.680   4.113   1.221 -0.4607 -1.0526 -1.1070
 8941TIP3   OH248237   2.481   3.220  16.166  0.6316 -0.2990  0.6191
 8941TIP3    H148238   2.403   3.204  16.219  0.6554  1.8853  1.4107
 8941TIP3    H248239   2.452   3.284  16.101  1.6961  0.3637  0.7805
 8942TIP3   OH248240   2.423   5.595  14.245  0.6005 -0.0696  0.0806
 8942TIP3    H148241   2.337   5.614  14.282  0.8614  0.3131  0.4956
 8942TIP3    H248242   2.406   5.532  14.175  0.0101 -0.1641  0.3083
 8943TIP3   OH248243   3.498   5.492   2.076 -0.5774 -0.7050  0.7447
 8943TIP3    H148244   3.457   5.531   1.998  1.7096  1.8872  0.6570
 8943TIP3    H248245   3.592   5.506   2.062 -0.0663 -0.5543  3.7659
 8944TIP3   OH248246   4.985   3.615  13.820 -0.0802 -0.6479 -0.3872
 8944TIP3    H148247   4.993   3.698  13.866  0.4795 -0.4185 -0.8832
 8944TIP3    H248248   5.038   3.626  13.741 -0.3271 -1.3340 -0.6579
 8945TIP3   OH248249   2.645   4.063  11.206 -0.3044 -0.0479 -0.2325
 8945TIP3    H148250   2.562   4.033  11.170 -1.5893  0.5695  2.0184
 8945TIP3    H248251   2.648   4.027  11.295  1.0116  1.3222  0.3395
 8946TIP3   OH248252   1.228   3.369  16.348  0.2438  0.1743  0.1841
 8946TIP3    H148253   1.308   3.320  16.363  2.5024  3.7707  1.0318
 8946TIP3    H248254   1.167   3.305  16.311  3.2218 -2.8917  0.1332
 8947TIP3   OH248255   3.095   6.231   2.008  0.1392  0.0340  0.0192
 8947TIP3    H148256   3.074   6.287   2.082  2.1684  0.2455  0.5029
 8947TIP3    H248257   3.063   6.279   1.932  0.5733  1.1897  0.5434
 8948TIP3   OH248258   4.179   4.111  12.909  0.3592  0.1709 -0.0913
 8948TIP3    H148259   4.132   4.069  12.838 -1.1618 -0.0825  1.0055
 8948TIP3    H248260   4.132   4.194  12.923 -1.2165 -1.0037  2.3932
 8949TIP3   OH248261   4.973   2.803   3.025 -0.0746 -0.1259 -0.1981
 8949TIP3    H148262   4.979   2.747   3.103  0.4143 -1.2586 -1.0217
 8949TIP3    H248263   5.061   2.839   3.016 -1.0055  3.1382  1.9430
 8950TIP3   OH248264   6.023   3.027  12.304 -0.8583 -0.1305  0.0919
 8950TIP3    H148265   5.949   3.072  12.344 -1.2086  0.9413 -1.6265
 8950TIP3    H248266   6.088   3.018  12.374 -1.6820  1.0579  1.0369
 8951TIP3   OH248267   3.393   2.713   4.771  0.4951 -0.0865  0.0731
 8951TIP3    H148268   3.394   2.788   4.830  0.9154 -0.6203  0.7658
 8951TIP3    H248269   3.352   2.643   4.823 -0.1279 -0.2733 -0.6496
 8952TIP3   OH248270   5.886   0.663   6.046 -0.1087 -0.3796 -0.4657
 8952TIP3    H148271   5.973   0.667   6.006 -0.3350 -1.9541 -1.1819
 8952TIP3    H248272   5.871   0.570   6.061 -1.3999 -0.0657  0.2721
 8953TIP3   OH248273   3.850   1.257  13.978  0.3505 -0.0217  0.2780
 8953TIP3    H148274   3.851   1.337  13.924 -0.1371  0.5109  1.0330
 8953TIP3    H248275   3.927   1.265  14.034  0.3310 -0.0988  0.3157
 8954TIP3   OH248276   6.218   0.300  12.785  0.0622  0.1081  0.3111
 8954TIP3    H148277   6.300   0.252  12.779  0.7997  1.4272 -1.0314
 8954TIP3    H248278   6.237   0.373  12.844 -0.8022 -0.7720  1.7036
 8955TIP3   OH248279   2.517   6.468  17.311  0.0201  0.0111 -0.8651
 8955TIP3    H148280   2.574   6.534  17.272 -0.1658  0.3353 -0.5950
 8955TIP3    H248281   2.434   6.514  17.324 -0.4780 -0.6150 -1.7717
 8956TIP3   OH248282   1.280   1.377  12.895 -0.4280  0.3804 -0.3144
 8956TIP3    H148283   1.274   1.418  12.809  0.5698  0.2016 -0.4798
 8956TIP3    H248284   1.285   1.283  12.877  0.5663  0.3810 -0.1158
 8957TIP3   OH248285   0.903   4.197  14.675 -0.1083  0.6693 -0.4917
 8957TIP3    H148286   0.878   4.203  14.767  1.4501  2.6557 -0.1392
 8957TIP3    H248287   0.998   4.204  14.675  0.0530 -0.7161 -2.1920
 8958TIP3   OH248288   0.354   0.157  16.120 -0.0887  0.0768 -0.0850
 8958TIP3    H148289   0.424   0.097  16.148 -1.2286 -1.3045 -0.0691
 8958TIP3    H248290   0.320   0.194  16.202  0.8159  1.0168 -0.1137
 8959TIP3   OH248291   6.014   4.051  11.930 -0.3227  0.1705  0.3805
 8959TIP3    H148292   5.953   4.030  11.859 -0.1238  1.7702 -0.2967
 8959TIP3    H248293   6.053   3.966  11.954 -0.6046 -0.4358 -1.2080
 8960TIP3   OH248294   5.417   0.388   1.073 -0.0845  0.1152 -0.3435
 8960TIP3    H148295   5.513   0.390   1.067 -0.0185  1.0603  0.7391
 8960TIP3    H248296   5.398   0.413   1.164 -1.3625 -0.1978 -0.5041
 8961TIP3   OH248297   4.247   5.503  16.420  0.9964 -0.2614 -0.3546
 8961TIP3    H148298   4.338   5.527  16.438  0.3966 -0.5438  3.9535
 8961TIP3    H248299   4.249   5.408  16.412  0.8563 -0.6441  2.8175
 8962TIP3   OH248300   2.454   6.274   4.295 -0.8345 -0.1632  0.3573
 8962TIP3    H148301   2.432   6.183   4.275 -0.9723  0.0244 -0.3810
 8962TIP3    H248302   2.549   6.275   4.304 -0.7298 -0.1923 -0.6655
 8963TIP3   OH248303   0.997   4.937   3.812  0.3016 -0.0243  0.2365
 8963TIP3    H148304   1.073   4.881   3.799 -1.1672 -1.8299 -0.9981
 8963TIP3    H248305   0.972   4.966   3.724 -0.7868  0.0386  0.5470
 8964TIP3   OH248306   5.497   4.666  16.447  0.1222  0.4417  0.0641
 8964TIP3    H148307   5.426   4.666  16.383  0.1531 -0.4125  0.0102
 8964TIP3    H248308   5.560   4.602  16.414  0.5703  0.6558  0.4834
 8965TIP3   OH248309   2.689   2.375  16.392 -0.1245 -0.1477  0.3889
 8965TIP3    H148310   2.606   2.358  16.348 -0.3243  0.4159  0.5410
 8965TIP3    H248311   2.679   2.462  16.429  0.3458 -0.2827  0.8503
 8966TIP3   OH248312   1.190   3.488   2.012 -1.3783 -0.0686 -0.1886
 8966TIP3    H148313   1.213   3.524   1.926 -0.6833 -0.5302 -0.2040
 8966TIP3    H248314   1.274   3.462   2.050 -1.8495 -1.5432 -0.1115
 8967TIP3   OH248315   4.354   2.869   0.346  0.1336  0.3413  0.1838
 8967TIP3    H148316   4.321   2.884   0.434 -1.1181  0.0478 -0.2184
 8967TIP3    H248317   4.290   2.811   0.305 -0.7849  2.5852 -1.7831
 8968TIP3   OH248318   4.965   3.687  13.156  0.1500  0.3149 -0.0812
 8968TIP3    H148319   4.966   3.620  13.225  1.0299 -0.0463 -0.4370
 8968TIP3    H248320   4.985   3.639  13.076 -1.5003  0.6183 -0.7228
 8969TIP3   OH248321   3.389   4.162  12.944  0.5338  0.1687 -0.4280
 8969TIP3    H148322   3.382   4.133  12.853  1.8542 -2.1478  0.1521
 8969TIP3    H248323   3.426   4.250  12.937  0.9399 -0.0933 -2.1179
 8970TIP3   OH248324   1.033   5.291  14.252 -0.1960  0.0063  0.4504
 8970TIP3    H148325   1.020   5.310  14.345 -2.8270 -1.4202  0.4516
 8970TIP3    H248326   0.952   5.247  14.224  0.5788  0.2212 -2.4833
 8971TIP3   OH248327   4.876   0.101  13.039  0.0112  0.0876 -0.2195
 8971TIP3    H148328   4.863   0.038  13.110 -0.8874  0.0266 -0.4243
 8971TIP3    H248329   4.804   0.163  13.048  0.5928  0.7918 -0.3370
 8972TIP3   OH248330   6.247   3.636   4.034 -1.0257 -0.6030  0.8050
 8972TIP3    H148331   6.300   3.563   4.002  1.1949  0.3292  2.1484
 8972TIP3    H248332   6.211   3.604   4.117  2.2329  0.6062  2.8683
 8973TIP3   OH248333   3.375   6.263  13.162 -0.1407  0.6328  0.7345
 8973TIP3    H148334   3.411   6.286  13.248  2.7129  0.6760 -0.3560
 8973TIP3    H248335   3.377   6.345  13.112 -0.3056  0.2905  0.1550
 8974TIP3   OH248336   6.506   5.195   3.861  0.1791  0.2639  0.0097
 8974TIP3    H148337   6.535   5.279   3.826 -0.4539  0.8828  0.9214
 8974TIP3    H248338   6.480   5.214   3.951  0.6434 -1.0424  0.4408
 8975TIP3   OH248339   6.680   6.619   3.126 -0.1534 -0.2489  0.1631
 8975TIP3    H148340   6.665   6.555   3.057  0.8524  0.1185 -0.4100
 8975TIP3    H248341   6.604   6.677   3.122 -0.8030 -1.0606  0.3253
 8976TIP3   OH248342   4.725   2.681   4.865 -0.4454 -0.0981  0.0509
 8976TIP3    H148343   4.762   2.714   4.784 -0.5627  0.1201  0.0877
 8976TIP3    H248344   4.774   2.600   4.882 -0.8773 -0.4935 -0.5850
 8977TIP3   OH248345   5.048   4.712  15.074  0.1729  0.3328  0.0193
 8977TIP3    H148346   5.083   4.794  15.110  0.9991 -0.1112  0.2275
 8977TIP3    H248347   5.103   4.693  14.998 -0.5424  0.3958 -0.5351
 8978TIP3   OH248348   2.400   1.997  15.447  0.3486  0.3579  0.0744
 8978TIP3    H148349   2.352   2.009  15.365  1.2443 -0.8844 -0.6550
 8978TIP3    H248350   2.350   1.931  15.495  1.1246 -0.7048 -0.5490
 8979TIP3   OH248351   4.221   6.742   5.669  0.8108 -0.0883  0.3036
 8979TIP3    H148352   4.292   6.780   5.720  1.2931 -1.0328  0.3703
 8979TIP3    H248353   4.142   6.784   5.702  1.1213 -0.6096  1.7830
 8980TIP3   OH248354   2.464   1.361   2.602 -0.2716  0.0993 -0.1669
 8980TIP3    H148355   2.394   1.426   2.611 -0.0139  0.2795  0.6460
 8980TIP3    H248356   2.529   1.388   2.667  0.7776  0.2234 -1.2496
 8981TIP3   OH248357   0.826   4.354   1.237  0.1582 -0.1670  0.1794
 8981TIP3    H148358   0.839   4.435   1.286  0.0115  0.2169 -0.4043
 8981TIP3    H248359   0.825   4.382   1.145 -1.5774 -0.5802  0.0329
 8982TIP3   OH248360   5.166   0.554  13.324  0.3190  0.1103 -0.3889
 8982TIP3    H148361   5.163   0.576  13.417 -1.9152  0.0853 -0.4147
 8982TIP3    H248362   5.106   0.615  13.282 -0.3618 -1.2476 -1.4883
 8983TIP3   OH248363   4.116   0.697  16.152  0.1016 -0.1486  0.2546
 8983TIP3    H148364   4.172   0.643  16.096  0.0072  0.1791 -0.1548
 8983TIP3    H248365   4.172   0.720  16.226  1.3357  2.2088 -1.2886
 8984TIP3   OH248366   2.516   5.689  11.659  0.4339 -0.0973 -0.2286
 8984TIP3    H148367   2.439   5.735  11.626  0.0104 -1.0977 -0.6733
 8984TIP3    H248368   2.483   5.630  11.726  0.9635  0.1664  0.2796
 8985TIP3   OH248369   1.490   4.021  14.346  0.3646  0.1921 -0.6648
 8985TIP3    H148370   1.397   4.020  14.368  0.5754 -0.6143  0.2567
 8985TIP3    H248371   1.505   4.108  14.309 -0.5484  0.6886  0.0953
 8986TIP3   OH248372   5.011   0.862  13.721 -0.1493 -0.0040  0.8990
 8986TIP3    H148373   5.037   0.927  13.655 -0.1367  0.4367  1.3341
 8986TIP3    H248374   5.032   0.778  13.680  0.3201  0.2794  0.5327
 8987TIP3   OH248375   1.032   2.498   2.219  0.2545 -0.0740  0.0172
 8987TIP3    H148376   0.947   2.456   2.226  0.7012 -1.3535 -1.6063
 8987TIP3    H248377   1.079   2.472   2.298 -0.7668  0.4914  0.8306
 8988TIP3   OH248378   1.793   3.817  10.900  0.3803 -0.4204 -0.1476
 8988TIP3    H148379   1.848   3.741  10.881 -1.0572 -1.1075 -1.9523
 8988TIP3    H248380   1.755   3.840  10.815  0.7056  2.2997  0.3533
 8989TIP3   OH248381   1.479   6.370  15.839 -0.0360  0.4147  0.2705
 8989TIP3    H148382   1.401   6.384  15.785 -0.8005  0.5765  1.3873
 8989TIP3    H248383   1.512   6.458  15.857  1.4177  0.3215 -1.5592
 8990TIP3   OH248384   2.143   5.246   6.717  0.0602 -0.0535  0.2439
 8990TIP3    H148385   2.061   5.233   6.669 -0.7791 -0.5286  1.7167
 8990TIP3    H248386   2.179   5.158   6.728  0.3108  0.0606  0.3475
 8991TIP3   OH248387   6.192   0.290   1.374 -0.0401  0.2121  0.1587
 8991TIP3    H148388   6.154   0.202   1.376 -0.6593  0.4766  1.4038
 8991TIP3    H248389   6.119   0.348   1.351 -0.3930  0.6945  2.2666
 8992TIP3   OH248390   3.180   2.023   2.203  0.5314  0.0972  0.4479
 8992TIP3    H148391   3.205   2.114   2.186 -1.5697  0.6985  0.3838
 8992TIP3    H248392   3.114   2.003   2.137 -0.8661 -0.6238  1.9996
 8993TIP3   OH248393   4.623   0.221  13.198 -0.1538  0.0606 -0.0748
 8993TIP3    H148394   4.662   0.191  13.279  2.0187 -0.2604 -1.1736
 8993TIP3    H248395   4.551   0.278  13.226 -0.4899 -1.2796  2.0291
 8994TIP3   OH248396   6.497   5.995   0.271  0.2229  0.6347 -0.5514
 8994TIP3    H148397   6.423   5.956   0.318  1.4950 -1.4187 -0.1276
 8994TIP3    H248398   6.523   6.069   0.325  1.4574 -1.4830  2.0125
 8995TIP3   OH248399   2.188   4.559   0.368  0.2220 -0.6750 -0.1703
 8995TIP3    H148400   2.271   4.574   0.413 -0.4826 -1.5629  1.5207
 8995TIP3    H248401   2.200   4.476   0.321  1.3160  0.7668 -2.6259
 8996TIP3   OH248402   4.412   2.794  14.811  1.0153 -0.4356  0.3959
 8996TIP3    H148403   4.453   2.734  14.873  0.9853  0.8169  1.6870
 8996TIP3    H248404   4.477   2.804  14.741  2.6606  0.8667  1.9898
 8997TIP3   OH248405   3.780   4.814  16.736  0.6000  0.4745 -0.0606
 8997TIP3    H148406   3.711   4.867  16.777  0.6302 -0.2760  1.0007
 8997TIP3    H248407   3.798   4.745  16.800  1.3578 -0.1556 -0.9376
 8998TIP3   OH248408   5.247   6.595   4.455 -0.3214 -0.1451  0.2088
 8998TIP3    H148409   5.269   6.543   4.532 -0.3787 -0.5430 -0.0447
 8998TIP3    H248410   5.157   6.570   4.434 -0.7208  0.8183  0.7048
 8999TIP3   OH248411   5.944   0.095   1.975  0.1650  0.1653  0.3070
 8999TIP3    H148412   6.016   0.064   2.030  1.4195  2.4760  0.1068
 8999TIP3    H248413   5.914   0.017   1.928  3.6516 -0.7091 -0.8103
 9000TIP3   OH248414   3.244   3.728  13.435  0.3908  0.2767 -0.0957
 9000TIP3    H148415   3.217   3.792  13.370 -0.0914 -0.6351 -0.8200
 9000TIP3    H248416   3.197   3.754  13.515  1.0299  1.4339 -0.0761
 9001TIP3   OH248417   2.375   5.475  13.540 -0.0509 -0.4217  0.6914
 9001TIP3    H148418   2.301   5.523  13.502  0.8859  0.0439 -0.6202
 9001TIP3    H248419   2.372   5.389  13.498  1.0345  0.1216 -0.5613
 9002TIP3   OH248420   2.887   6.739   5.434 -0.1166 -0.7594 -0.3183
 9002TIP3    H148421   2.966   6.789   5.456 -1.3127  0.3654  1.7383
 9002TIP3    H248422   2.920   6.660   5.393  2.1835 -0.7192  1.2389
 9003TIP3   OH248423   5.346   2.839   3.430 -0.0852  0.1201  0.1881
 9003TIP3    H148424   5.392   2.807   3.508  2.2621 -0.0809 -1.1946
 9003TIP3    H248425   5.346   2.934   3.440 -0.5352  0.0589  0.8135
 9004TIP3   OH248426   1.038   5.856  11.795 -0.8303  0.5254  0.4340
 9004TIP3    H148427   1.044   5.796  11.721 -0.2528  2.2937 -1.0302
 9004TIP3    H248428   0.983   5.811  11.859 -2.4622 -0.5283 -1.6118
 9005TIP3   OH248429   4.008   2.116  15.070 -0.5239  0.3011  0.1916
 9005TIP3    H148430   3.933   2.173  15.085 -1.2924 -0.5543 -0.3121
 9005TIP3    H248431   4.071   2.141  15.138 -1.8845 -0.0221  1.6327
 9006TIP3   OH248432   2.264   0.540  11.341 -0.2073 -0.6270 -0.1992
 9006TIP3    H148433   2.260   0.524  11.436 -0.6057  2.4207  0.4075
 9006TIP3    H248434   2.189   0.596  11.323  0.4354 -0.3088 -2.1441
 9007TIP3   OH248435   6.002   4.013   4.694  0.6084  0.2643  0.2116
 9007TIP3    H148436   5.946   3.940   4.666  0.9204  0.5027 -1.0988
 9007TIP3    H248437   5.942   4.074   4.735  0.1771 -0.2484  0.3632
 9008TIP3   OH248438   4.694   2.647   0.589  0.1274  0.6026  0.3865
 9008TIP3    H148439   4.625   2.584   0.608 -0.8028  0.7582 -2.1331
 9008TIP3    H248440   4.772   2.594   0.577 -0.6071 -0.1561 -1.5327
 9009TIP3   OH248441   1.299   0.441  13.512 -0.0791  0.4344 -0.3544
 9009TIP3    H148442   1.395   0.438  13.518  0.0274  2.0205 -0.7286
 9009TIP3    H248443   1.275   0.514  13.570 -1.1463 -0.4635  0.3731
 9010TIP3   OH248444   4.598   5.381   3.245  0.1281  0.1298  0.4542
 9010TIP3    H148445   4.547   5.433   3.183  1.4545 -0.9404 -1.6486
 9010TIP3    H248446   4.550   5.299   3.253 -0.1996  0.3797  1.1084
 9011TIP3   OH248447   5.358   5.918  17.287 -0.2657  0.3352  0.2504
 9011TIP3    H148448   5.338   5.828  17.313 -1.8226  0.8582  0.9987
 9011TIP3    H248449   5.415   5.952  17.356  1.2014 -0.3853 -0.5789
 9012TIP3   OH248450   6.296   5.712  14.747 -0.3768 -0.3883 -0.3076
 9012TIP3    H148451   6.391   5.711  14.732  0.1001 -0.3442  2.2948
 9012TIP3    H248452   6.277   5.627  14.786 -1.2795 -0.0963 -0.0821
 9013TIP3   OH248453   1.337   2.254   0.537  0.4104 -0.1156 -0.0283
 9013TIP3    H148454   1.417   2.283   0.494 -0.7965  1.5425 -1.2822
 9013TIP3    H248455   1.356   2.165   0.566  3.0155  0.5461  0.5707
 9014TIP3   OH248456   2.604   3.968  14.978 -0.2079  0.5063 -0.3684
 9014TIP3    H148457   2.543   4.042  14.986  0.2921  0.9809 -0.8389
 9014TIP3    H248458   2.553   3.899  14.936 -0.2969  1.0660 -1.2078
 9015TIP3   OH248459   0.362   4.628   3.783 -0.0887 -0.4231  0.1430
 9015TIP3    H148460   0.275   4.594   3.762 -0.6115 -1.0709  2.9135
 9015TIP3    H248461   0.417   4.550   3.793 -0.4276 -0.4250  2.9938
 9016TIP3   OH248462   5.859   6.601  13.477  0.1573 -0.3980  0.3392
 9016TIP3    H148463   5.948   6.624  13.452  0.0252  0.3762  0.5476
 9016TIP3    H248464   5.817   6.573  13.395  0.3334  0.0926  0.0805
 9017TIP3   OH248465   5.166   5.021   1.377  0.1460  0.5730 -0.4147
 9017TIP3    H148466   5.188   5.035   1.469  1.5989 -2.5750 -0.1665
 9017TIP3    H248467   5.078   4.984   1.378  0.7792 -1.0079 -0.0803
 9018TIP3   OH248468   0.349   6.455  10.853  0.3995  0.7546 -0.2380
 9018TIP3    H148469   0.344   6.540  10.809 -0.1729  0.4234 -0.8312
 9018TIP3    H248470   0.436   6.454  10.892 -0.0884  2.2147  1.0287
 9019TIP3   OH248471   1.396   1.605   4.044 -0.1515  0.4424  0.2498
 9019TIP3    H148472   1.443   1.637   3.967 -0.5608 -2.0014 -1.1314
 9019TIP3    H248473   1.439   1.523   4.066 -2.2039 -0.6487  0.4436
 9020TIP3   OH248474   1.913   2.642   4.070  0.4779  0.4332  0.2947
 9020TIP3    H148475   1.955   2.563   4.037 -3.0266 -1.3655 -0.2982
 9020TIP3    H248476   1.903   2.698   3.993 -0.1870 -0.1259 -0.0380
 9021TIP3   OH248477   2.544   2.063  13.316  0.1148 -0.5692  0.0139
 9021TIP3    H148478   2.528   2.153  13.344 -0.5471 -0.4232 -0.8152
 9021TIP3    H248479   2.615   2.069  13.253  0.0736 -0.6344 -0.0385
 9022TIP3   OH248480   0.606   6.449  12.086  0.5179 -0.6024 -0.3994
 9022TIP3    H148481   0.617   6.385  12.015  2.0682  0.4587 -1.1576
 9022TIP3    H248482   0.536   6.507  12.055 -0.6549 -1.6780  0.1421
 9023TIP3   OH248483   3.813   6.390   0.727  0.2056  0.0138  0.4455
 9023TIP3    H148484   3.827   6.381   0.633  0.4552 -1.2012  0.5729
 9023TIP3    H248485   3.899   6.414   0.762  0.1371  0.3614  0.3721
 9024TIP3   OH248486   1.035   4.120  12.165  0.8007  0.3318 -0.4144
 9024TIP3    H148487   1.020   4.178  12.091 -0.3465  1.1509  0.4264
 9024TIP3    H248488   1.092   4.170  12.224  0.3168  0.3838  0.0245
 9025TIP3   OH248489   4.757   0.822  15.144 -0.0207  0.0129  0.4299
 9025TIP3    H148490   4.821   0.865  15.202  0.7453 -1.7984  0.9798
 9025TIP3    H248491   4.804   0.810  15.062 -1.1295  2.6457 -0.7297
 9026TIP3   OH248492   1.322   2.206  11.521  0.6202  0.0448  0.5096
 9026TIP3    H148493   1.240   2.249  11.544 -0.3611 -1.6627  0.3223
 9026TIP3    H248494   1.310   2.180  11.429  1.8247  0.7516  0.1285
 9027TIP3   OH248495   5.394   4.039   5.942  0.1886 -0.2755 -0.5658
 9027TIP3    H148496   5.372   3.962   5.890  1.1856 -0.0498 -1.3553
 9027TIP3    H248497   5.444   4.004   6.016 -3.1248 -0.8680  1.5951
 9028TIP3   OH248498   2.194   0.522  17.340 -0.2443  0.6044  0.1493
 9028TIP3    H148499   2.268   0.472  17.375  0.3873  0.5412 -1.2264
 9028TIP3    H248500   2.143   0.546  17.418  0.1285 -1.0518  0.9673
 9029TIP3   OH248501   3.244   2.697   0.257  0.3510 -0.3499 -0.2862
 9029TIP3    H148502   3.225   2.610   0.224  0.6838 -0.7641  0.5908
 9029TIP3    H248503   3.220   2.694   0.349 -1.1899  0.9839 -0.5925
 9030TIP3   OH248504   3.330   3.592   5.167 -0.5376  0.0963 -0.1079
 9030TIP3    H148505   3.278   3.663   5.204 -1.3621 -0.8726  0.6360
 9030TIP3    H248506   3.343   3.531   5.240  2.3914  0.6800 -0.0075
 9031TIP3   OH248507   3.301   2.468   3.107  0.4362  0.2457  0.1577
 9031TIP3    H148508   3.331   2.559   3.116 -0.9820  0.8308 -0.6652
 9031TIP3    H248509   3.381   2.418   3.094  1.1295  1.6340 -1.2271
 9032TIP3   OH248510   4.512   4.287  15.404 -0.6276 -0.0649  0.5987
 9032TIP3    H148511   4.572   4.354  15.373 -1.1242  0.8973  1.6583
 9032TIP3    H248512   4.427   4.330  15.412 -1.1892 -1.0748  0.3478
 9033TIP3   OH248513   2.428   6.571  11.560 -0.4583 -0.5157 -0.1861
 9033TIP3    H148514   2.366   6.617  11.616  0.4582 -0.3397  0.7354
 9033TIP3    H248515   2.394   6.581  11.471 -0.0193  2.4793 -0.1382
 9034TIP3   OH248516   2.584   2.636   4.473 -0.0886  0.6107  0.1849
 9034TIP3    H148517   2.491   2.615   4.478 -0.0388  0.1730 -0.5266
 9034TIP3    H248518   2.613   2.641   4.564 -1.1126  2.2110  0.4558
 9035TIP3   OH248519   1.466   2.963  14.092  0.3363  0.3433  0.3327
 9035TIP3    H148520   1.540   3.001  14.045  0.8281  0.6301  1.3241
 9035TIP3    H248521   1.505   2.920  14.168 -0.4977  0.3889  0.7943
 9036TIP3   OH248522   0.225   4.538  10.487 -0.0230 -0.9123  0.2538
 9036TIP3    H148523   0.218   4.478  10.562 -1.1350 -1.2924 -0.1271
 9036TIP3    H248524   0.141   4.529  10.442  0.6353 -0.7096 -1.0573
 9037TIP3   OH248525   0.277   1.418  12.866  0.4089  0.1338  0.4940
 9037TIP3    H148526   0.250   1.471  12.941  0.2678 -1.3870  1.5593
 9037TIP3    H248527   0.239   1.332  12.882  3.2140 -1.2311  0.4736
 9038TIP3   OH248528   2.592   1.974   4.571 -0.3879 -0.2910 -0.2802
 9038TIP3    H148529   2.498   1.981   4.554 -0.8381 -1.0869  1.5315
 9038TIP3    H248530   2.603   1.885   4.605  0.9813 -0.1311 -0.2497
 9039TIP3   OH248531   4.558   3.729  11.787 -0.3620  1.0306 -0.1628
 9039TIP3    H148532   4.507   3.654  11.817  1.5826  0.4177  1.8506
 9039TIP3    H248533   4.609   3.695  11.713  0.7692  0.1940  0.9561
 9040TIP3   OH248534   0.792   1.736   6.922  0.1458 -0.2158 -0.1211
 9040TIP3    H148535   0.841   1.816   6.902 -0.1619  0.2026  0.7694
 9040TIP3    H248536   0.767   1.701   6.836  1.3572 -0.0346 -0.5593
 9041TIP3   OH248537   1.501   4.279   3.380  0.0767  0.1617  0.8953
 9041TIP3    H148538   1.479   4.190   3.352 -2.4321  0.7959  0.6923
 9041TIP3    H248539   1.458   4.289   3.465 -0.1537  1.3908  0.6464
 9042TIP3   OH248540   2.437   2.952  16.415 -0.3590  0.0707  0.0114
 9042TIP3    H148541   2.376   2.893  16.371 -1.2865  1.4903 -0.6840
 9042TIP3    H248542   2.513   2.956  16.358 -0.8618  0.5926 -0.6346
 9043TIP3   OH248543   2.976   0.496   3.705  0.0281  0.2674 -0.7363
 9043TIP3    H148544   3.040   0.483   3.635  0.5438  1.3149 -0.4622
 9043TIP3    H248545   2.894   0.513   3.658  0.1607 -0.0254 -1.0843
 9044TIP3   OH248546   2.851   5.816   5.897  0.2342  0.1929 -0.3876
 9044TIP3    H148547   2.922   5.875   5.921 -0.5403  0.9348  0.0828
 9044TIP3    H248548   2.852   5.748   5.964  1.2320 -0.4476 -1.0218
 9045TIP3   OH248549   6.349   2.041  14.104  0.4137 -0.3219  0.2547
 9045TIP3    H148550   6.415   2.101  14.140  0.5416 -0.6783  0.6232
 9045TIP3    H248551   6.299   2.094  14.042  0.4376  0.2042  0.6821
 9046TIP3   OH248552   6.723   0.938  15.041  0.0842 -0.1267 -0.1011
 9046TIP3    H148553   6.721   0.846  15.065 -0.1462  0.3633  1.8716
 9046TIP3    H248554   6.746   0.984  15.121 -1.0258  1.6349 -0.7221
 9047TIP3   OH248555   2.729   0.122  15.836 -0.1419 -0.3722  0.5516
 9047TIP3    H148556   2.801   0.065  15.810  0.2986 -0.2976  1.5574
 9047TIP3    H248557   2.760   0.211  15.815  0.0015 -0.3506  0.8545
 9048TIP3   OH248558   3.632   4.254  17.017 -0.1794  0.4649  0.3233
 9048TIP3    H148559   3.692   4.293  17.080  2.7394 -3.7965  0.5379
 9048TIP3    H248560   3.593   4.180  17.063 -1.1807 -0.2967 -1.6270
 9049TIP3   OH248561   6.251   4.446  14.938  0.3959 -0.3167 -0.6143
 9049TIP3    H148562   6.313   4.512  14.968 -0.0209  0.1191 -0.7166
 9049TIP3    H248563   6.167   4.490  14.938 -0.0560 -1.1450  0.3445
 9050TIP3   OH248564   0.328   0.722  12.243  0.3078  0.7321 -0.1294
 9050TIP3    H148565   0.391   0.671  12.293 -2.7887 -3.2494  0.2332
 9050TIP3    H248566   0.264   0.752  12.308 -0.6705  0.5565 -0.9778
 9051TIP3   OH248567   0.406   3.134   3.490 -0.7454 -0.0195 -0.4893
 9051TIP3    H148568   0.367   3.048   3.502  0.8395 -0.7551 -0.3707
 9051TIP3    H248569   0.439   3.158   3.577  0.3104 -0.0686 -0.8586
 9052TIP3   OH248570   0.336   4.768   3.557  0.5486  0.9907  0.5776
 9052TIP3    H148571   0.346   4.718   3.639 -2.1389 -1.9012 -0.6600
 9052TIP3    H248572   0.380   4.715   3.491 -0.6128  1.2630 -0.4524
 9053TIP3   OH248573   2.171   3.374  13.104  0.0515 -0.4349 -0.5856
 9053TIP3    H148574   2.234   3.322  13.055  0.7465  0.5903 -0.8153
 9053TIP3    H248575   2.219   3.406  13.179 -0.0812  0.6310 -0.9350
 9054TIP3   OH248576   2.122   6.097   5.265  0.5140  0.2904  0.0410
 9054TIP3    H148577   2.209   6.101   5.226  0.1845  2.5131 -0.5842
 9054TIP3    H248578   2.121   6.168   5.330 -0.9391  0.5535 -0.2259
 9055TIP3   OH248579   3.907   4.112   6.130  0.0166  1.5713  0.1449
 9055TIP3    H148580   3.948   4.031   6.099 -0.1300  1.2334  0.8224
 9055TIP3    H248581   3.892   4.163   6.050 -2.8828 -0.3986 -0.7128
 9056TIP3   OH248582   3.349   0.677   6.216  0.0705  0.5945 -0.2442
 9056TIP3    H148583   3.298   0.605   6.251  1.8093 -0.0244  1.1798
 9056TIP3    H248584   3.284   0.740   6.184 -1.5433 -0.3356  1.0563
 9057TIP3   OH248585   5.254   2.530  13.396 -0.2473 -0.3931 -0.1741
 9057TIP3    H148586   5.253   2.437  13.373 -0.8280 -0.9481  1.8895
 9057TIP3    H248587   5.202   2.572  13.327 -0.7808 -1.7155 -0.6187
 9058TIP3   OH248588   0.418   0.602  14.406  0.7074  0.0912 -0.1079
 9058TIP3    H148589   0.429   0.532  14.471  1.3207  1.8444  1.7734
 9058TIP3    H248590   0.327   0.595  14.378  0.4983 -0.8575  0.7550
 9059TIP3   OH248591   6.239   6.723   1.031 -0.1113 -0.2211 -0.0495
 9059TIP3    H148592   6.236   6.665   1.107  0.0119 -0.3904 -0.1726
 9059TIP3    H248593   6.284   6.672   0.963 -0.5686 -0.2176 -0.3614
 9060TIP3   OH248594   5.853   4.997   6.596 -0.2822 -0.5073 -0.4767
 9060TIP3    H148595   5.817   4.986   6.684  0.4579  3.3806  0.5014
 9060TIP3    H248596   5.943   4.964   6.603  0.3731  1.3829  0.8573
 9061TIP3   OH248597   1.354   0.455   4.230 -0.4835 -0.4901  0.1541
 9061TIP3    H148598   1.430   0.398   4.242 -0.1604 -0.0502  0.2378
 9061TIP3    H248599   1.362   0.486   4.139 -0.2102  0.0529  0.3589
 9062TIP3   OH248600   5.157   3.807   0.245 -0.0203 -0.2781 -0.1256
 9062TIP3    H148601   5.203   3.806   0.161 -0.1713  1.9795 -0.2742
 9062TIP3    H248602   5.226   3.809   0.311  0.1646  1.8211 -0.3221
 9063TIP3   OH248603   5.929   1.444  16.815  0.2577  0.1676 -0.5189
 9063TIP3    H148604   5.904   1.408  16.729 -2.0988  1.7071 -0.5695
 9063TIP3    H248605   5.955   1.534  16.796  0.8471  0.1610  0.2418
 9064TIP3   OH248606   0.924   2.395  15.489 -0.0580 -0.4525  0.0084
 9064TIP3    H148607   0.917   2.465  15.425  0.7601 -1.2238 -0.9520
 9064TIP3    H248608   1.017   2.393  15.513 -0.3862 -0.0206  1.4073
 9065TIP3   OH248609   0.724   6.730   2.063  0.1317  0.9490  0.0078
 9065TIP3    H148610   0.632   6.705   2.053 -0.0332  0.3104  2.4176
 9065TIP3    H248611   0.732   6.810   2.012 -1.3084  0.1469 -1.6232
 9066TIP3   OH248612   3.397   3.632   3.352  0.0711  0.3353  0.4478
 9066TIP3    H148613   3.304   3.608   3.347 -0.1049  0.8540  1.1218
 9066TIP3    H248614   3.433   3.575   3.420  0.3032 -0.0214  0.0328
 9067TIP3   OH248615   3.067   5.265   3.052  0.8871  0.0835  0.0393
 9067TIP3    H148616   3.011   5.340   3.074 -1.8998 -2.0562  0.7544
 9067TIP3    H248617   3.026   5.226   2.975  2.6258 -0.4626 -0.6797
 9068TIP3   OH248618   2.233   3.682  13.818  0.1114  0.0508  0.0637
 9068TIP3    H148619   2.300   3.685  13.750  0.2544 -0.6052  0.1708
 9068TIP3    H248620   2.281   3.683  13.900  0.0260 -0.7991  0.1405
 9069TIP3   OH248621   3.981   0.251  13.599  0.6164 -0.0618 -0.1139
 9069TIP3    H148622   3.963   0.266  13.506  0.8073  0.1792 -0.1139
 9069TIP3    H248623   3.910   0.194  13.628  1.1882 -1.0865 -0.6788
 9070TIP3   OH248624   4.001   1.811   5.747  0.4700 -0.0462  0.0850
 9070TIP3    H148625   4.077   1.789   5.693 -0.7207 -2.6508 -0.7334
 9070TIP3    H248626   3.959   1.884   5.702  2.1050  1.0243  0.2235
 9071TIP3   OH248627   1.093   2.842   3.212  0.1267 -0.2618 -0.0412
 9071TIP3    H148628   1.188   2.831   3.209  0.0219 -1.2367  0.0401
 9071TIP3    H248629   1.058   2.753   3.210 -0.7779  0.0751  0.2750
 9072TIP3   OH248630   4.669   3.130  16.197  0.1980  0.0512 -0.3843
 9072TIP3    H148631   4.663   3.208  16.252  2.8787 -0.5477  0.9656
 9072TIP3    H248632   4.646   3.058  16.256 -0.4473 -0.3256 -1.0913
 9073TIP3   OH248633   5.792   3.852   2.954 -0.6181 -0.2396  0.0592
 9073TIP3    H148634   5.860   3.882   3.013  0.4054 -1.1067 -0.6348
 9073TIP3    H248635   5.710   3.871   2.999  0.1073 -0.0460  1.3268
 9074TIP3   OH248636   1.264   4.989  11.099 -0.2001 -0.3836  0.6520
 9074TIP3    H148637   1.190   4.946  11.142 -0.7765 -0.3760 -0.2857
 9074TIP3    H248638   1.274   4.942  11.016  0.6592 -0.1865  0.6338
 9075TIP3   OH248639   4.552   4.249   3.699 -0.0835  0.4609 -0.6498
 9075TIP3    H148640   4.556   4.154   3.699 -0.7610  0.4172  0.0143
 9075TIP3    H248641   4.462   4.270   3.671 -0.0274  0.8914 -0.5254
 9076TIP3   OH248642   2.730   1.168   2.575 -0.1004  0.0538  0.4073
 9076TIP3    H148643   2.649   1.121   2.595 -0.0730  1.0053  3.1829
 9076TIP3    H248644   2.730   1.243   2.635  2.0657  1.0182 -0.6634
 9077TIP3   OH248645   3.715   3.539   5.661 -0.0412 -0.0455 -0.1261
 9077TIP3    H148646   3.659   3.615   5.668 -0.1846 -0.1481 -0.1602
 9077TIP3    H248647   3.750   3.542   5.572  0.9312  0.6627  0.2574
 9078TIP3   OH248648   1.015   3.733  15.215 -0.4165 -0.7059  0.2027
 9078TIP3    H148649   1.084   3.667  15.221 -0.7797 -1.0471  0.8274
 9078TIP3    H248650   1.031   3.790  15.290 -0.3706 -0.3478 -0.0799
 9079TIP3   OH248651   2.143   2.703   0.098 -0.4837  0.0835 -0.0994
 9079TIP3    H148652   2.099   2.784   0.123  0.5970  0.5908  0.2581
 9079TIP3    H248653   2.159   2.657   0.180 -0.2159 -0.0226 -0.2076
 9080TIP3   OH248654   1.482   2.192  11.943  0.1887 -0.0202  0.1527
 9080TIP3    H148655   1.444   2.115  11.986 -0.4620  1.3655  2.2106
 9080TIP3    H248656   1.407   2.248  11.925  0.7855  0.6883 -0.1618
 9081TIP3   OH248657   1.517   2.040  10.526  0.2848 -0.0265  0.0679
 9081TIP3    H148658   1.489   2.041  10.434  1.4130 -2.0551 -0.3633
 9081TIP3    H248659   1.437   2.019  10.575  0.0119 -0.7507 -0.6532
 9082TIP3   OH248660   1.345   3.992   3.884  0.0406  0.1886 -0.0389
 9082TIP3    H148661   1.279   3.959   3.945  0.7899  0.0684  0.7143
 9082TIP3    H248662   1.364   3.918   3.827  0.0025  0.0309  0.1530
 9083TIP3   OH248663   4.427   5.019   1.100 -0.2082 -0.3040 -0.0316
 9083TIP3    H148664   4.520   5.041   1.093  0.2423 -1.7057  1.1155
 9083TIP3    H248665   4.382   5.101   1.079  1.2508  0.2608 -1.1989
 9084TIP3   OH248666   1.398   0.118   1.381 -0.0472 -0.2110 -0.0011
 9084TIP3    H148667   1.326   0.147   1.325 -0.7029 -1.8455 -0.0416
 9084TIP3    H248668   1.462   0.080   1.320 -0.0847 -0.6297  0.2167
 9085TIP3   OH248669   5.606   3.202  16.778 -0.7303  0.3486 -0.1522
 9085TIP3    H148670   5.600   3.110  16.804  0.2181  0.9084  2.4213
 9085TIP3    H248671   5.700   3.222  16.783 -0.4548  0.6716 -4.0747
 9086TIP3   OH248672   1.732   6.559  11.735  0.3689 -0.1874  0.5201
 9086TIP3    H148673   1.701   6.570  11.825  0.1387 -0.4725  0.4752
 9086TIP3    H248674   1.658   6.521  11.688  0.8749 -1.1255  0.4711
 9087TIP3   OH248675   6.025   1.566  15.308  0.0212 -0.1798 -0.6639
 9087TIP3    H148676   6.062   1.651  15.283  1.4032  0.5530  3.1353
 9087TIP3    H248677   6.066   1.504  15.249 -0.5516  1.6482 -3.1629
 9088TIP3   OH248678   2.748   5.157  11.512 -0.4304  0.1481 -0.1138
 9088TIP3    H148679   2.812   5.209  11.561 -0.2482  1.6455 -1.8057
 9088TIP3    H248680   2.669   5.160  11.565 -0.0671  1.2077  0.4040
 9089TIP3   OH248681   3.457   6.493   3.868  0.1911 -0.3967  0.7188
 9089TIP3    H148682   3.382   6.526   3.918  0.0617 -1.9315  1.6112
 9089TIP3    H248683   3.418   6.458   3.788  0.5664  3.6616 -1.4889
 9090TIP3   OH248684   4.483   2.828  16.698  0.0742  0.0972  0.5056
 9090TIP3    H148685   4.493   2.837  16.793  2.2418 -0.5664  0.4030
 9090TIP3    H248686   4.473   2.733  16.684  1.0698  0.0456  0.0186
 9091TIP3   OH248687   3.227   5.337   4.793  0.1385 -0.1360 -0.0391
 9091TIP3    H148688   3.293   5.304   4.733  0.2252 -0.1919  0.0884
 9091TIP3    H248689   3.260   5.423   4.820  0.5018 -0.4508  0.5611
 9092TIP3   OH248690   2.481   3.868  13.095 -0.3697 -0.3068  0.1167
 9092TIP3    H148691   2.409   3.891  13.154 -1.2914  0.6950 -1.3372
 9092TIP3    H248692   2.476   3.933  13.024  3.3080  1.1870  1.0035
 9093TIP3   OH248693   1.250   0.165   1.167 -0.0048  0.1014  0.0900
 9093TIP3    H148694   1.313   0.189   1.099 -1.3008  1.5053 -0.6547
 9093TIP3    H248695   1.184   0.234   1.165 -1.0725 -0.8178  1.5106
 9094TIP3   OH248696   3.041   6.019   5.934 -0.2970 -0.1682  0.7656
 9094TIP3    H148697   3.111   6.060   5.883  0.2720 -0.0043  1.6583
 9094TIP3    H248698   3.055   6.050   6.023 -1.0339 -0.7781  1.1037
 9095TIP3   OH248699   4.088   6.466   4.894 -0.0313 -0.5625  0.6123
 9095TIP3    H148700   4.033   6.534   4.855 -0.2232 -1.3380 -0.5311
 9095TIP3    H248701   4.080   6.479   4.988 -1.7280 -0.2843  0.4609
 9096TIP3   OH248702   5.357   4.987  14.135 -0.3713  0.1514  0.3626
 9096TIP3    H148703   5.347   4.904  14.182 -1.7439 -0.2069 -0.4945
 9096TIP3    H248704   5.274   5.032  14.148  0.6366  1.7891  1.4945
 9097TIP3   OH248705   4.379   3.659   4.810  0.5928 -0.0696 -0.6085
 9097TIP3    H148706   4.425   3.699   4.736 -0.4410  0.6920 -0.8692
 9097TIP3    H248707   4.429   3.581   4.830  2.1894  0.9081 -0.6410
 9098TIP3   OH248708   6.080   5.685  16.987 -0.4744  0.3882  0.7212
 9098TIP3    H148709   6.021   5.686  17.062  0.5154 -2.1335  1.6486
 9098TIP3    H248710   6.167   5.680  17.025  0.1552  0.7583 -0.6155
 9099TIP3   OH248711   3.011   5.370   2.176  0.4308 -0.3897 -0.3351
 9099TIP3    H148712   3.103   5.343   2.179  0.4089 -1.1007 -3.1504
 9099TIP3    H248713   3.013   5.457   2.136 -0.1218 -0.1549  0.1318
 9100TIP3   OH248714   1.579   6.107  14.951  0.4115 -0.2895 -0.1180
 9100TIP3    H148715   1.494   6.115  14.908 -1.4163  2.2392  3.4360
 9100TIP3    H248716   1.634   6.171  14.906  0.0473 -0.9446 -1.5530
 9101TIP3   OH248717   0.007   5.186   0.223 -0.2327 -0.4555 -0.3382
 9101TIP3    H148718  -0.069   5.199   0.167 -0.6153 -1.6422 -0.1312
 9101TIP3    H248719  -0.027   5.195   0.312 -0.4617 -2.3598 -0.1934
 9102TIP3   OH248720   0.516   0.640  13.972 -0.1649 -0.5358  0.2933
 9102TIP3    H148721   0.535   0.553  14.007 -2.3794 -0.2612  2.3986
 9102TIP3    H248722   0.433   0.629  13.924  0.7085 -0.0062 -1.4495
 9103TIP3   OH248723   1.410   1.393   5.288 -0.3362 -0.1053 -0.2730
 9103TIP3    H148724   1.370   1.378   5.203 -0.9630 -1.4154  0.2238
 9103TIP3    H248725   1.405   1.487   5.301 -1.8623 -0.0691 -0.9041
 9104TIP3   OH248726   6.284   5.579  16.522 -0.3675  0.1323 -0.4396
 9104TIP3    H148727   6.324   5.616  16.600 -1.1208 -1.6198  0.8450
 9104TIP3    H248728   6.232   5.650  16.485 -0.7906  0.7173  1.2184
 9105TIP3   OH248729   3.883   1.226  16.586  0.1236 -0.2259  0.1133
 9105TIP3    H148730   3.788   1.228  16.603 -0.0778 -0.2500 -0.9335
 9105TIP3    H248731   3.923   1.240  16.672 -0.8292 -0.3325  0.5887
 9106TIP3   OH248732   2.605   4.549   0.236 -0.2011  0.3438 -0.3958
 9106TIP3    H148733   2.549   4.624   0.256 -1.5455 -0.7616  0.1405
 9106TIP3    H248734   2.613   4.550   0.140 -2.8098 -0.5577 -0.7131
 9107TIP3   OH248735   2.898   0.946   4.339  0.0741 -0.0856 -0.0503
 9107TIP3    H148736   2.958   0.964   4.266 -0.5274  3.6164  0.1706
 9107TIP3    H248737   2.848   0.870   4.310  1.7789 -0.5091 -2.2040
 9108TIP3   OH248738   2.372   6.326  13.361  0.1394 -0.5633 -0.0139
 9108TIP3    H148739   2.450   6.273  13.378 -0.5552 -1.4592  0.4773
 9108TIP3    H248740   2.395   6.414  13.390  0.7230 -0.9758  0.8102
 9109TIP3   OH248741   3.654   1.643   5.095 -0.2464  0.4257  0.0502
 9109TIP3    H148742   3.590   1.610   5.158  0.1015  2.9448  1.8889
 9109TIP3    H248743   3.719   1.573   5.087 -1.2141 -0.6398  1.1260
 9110TIP3   OH248744   1.629   4.125  15.796  0.7246 -0.7771 -0.1229
 9110TIP3    H148745   1.647   4.084  15.712  1.4783  1.0860 -0.9245
 9110TIP3    H248746   1.546   4.172  15.783 -0.0057 -1.7782  0.7053
 9111TIP3   OH248747   0.933   5.228   4.584 -0.0862  0.5399 -0.5735
 9111TIP3    H148748   0.942   5.147   4.633 -0.4903 -0.0875 -1.4989
 9111TIP3    H248749   1.017   5.239   4.539 -0.2428  0.3032 -0.9279
 9112TIP3   OH248750   5.714   6.228  15.806  0.6625  0.2783  0.5090
 9112TIP3    H148751   5.673   6.252  15.723 -0.9769 -0.0882  1.1712
 9112TIP3    H248752   5.728   6.134  15.800 -1.0760 -0.0620  1.2818
 9113TIP3   OH248753   5.899   2.865  11.230 -0.1691  0.5561 -0.2781
 9113TIP3    H148754   5.908   2.960  11.235 -1.0611  0.6165  0.9512
 9113TIP3    H248755   5.949   2.832  11.305 -2.1738  0.3097  1.0553
 9114TIP3   OH248756   5.925   1.036   2.078 -0.0436  0.3641  0.1101
 9114TIP3    H148757   5.854   0.987   2.119  1.5631 -2.7360 -0.5395
 9114TIP3    H248758   5.990   1.048   2.147  0.2714  0.1176 -0.1410
 9115TIP3   OH248759   0.438   1.318  13.979 -0.7133 -0.2926  0.1602
 9115TIP3    H148760   0.378   1.392  13.966  1.4411  1.6176  0.2927
 9115TIP3    H248761   0.394   1.262  14.043 -2.3442  1.0032  0.2380
 9116TIP3   OH248762   3.351   3.015   1.800 -0.4484  0.3683  0.2536
 9116TIP3    H148763   3.383   3.020   1.890  0.8993 -0.4987 -0.1513
 9116TIP3    H248764   3.391   3.090   1.756  2.2419 -1.4278 -0.5739
 9117TIP3   OH248765   0.951   4.093  11.580 -0.8737 -0.0736  0.1867
 9117TIP3    H148766   0.889   4.066  11.647  0.0242 -1.0930  0.6470
 9117TIP3    H248767   0.902   4.086  11.498 -1.6398  0.0567  0.6251
 9118TIP3   OH248768   4.828   4.857   6.051  0.3197 -0.1401  0.1453
 9118TIP3    H148769   4.843   4.947   6.078  0.9775  0.2090 -1.2896
 9118TIP3    H248770   4.748   4.860   5.999  0.6158 -0.2758 -0.3308
 9119TIP3   OH248771   1.731   0.298  16.006  0.0683  0.2204  0.2642
 9119TIP3    H148772   1.673   0.370  15.983  1.4758  1.4479  0.3653
 9119TIP3    H248773   1.770   0.271  15.922  0.2105  0.1938  0.3379
 9120TIP3   OH248774   5.508   4.077   3.911  0.2055 -0.1863 -0.0204
 9120TIP3    H148775   5.494   3.982   3.917 -2.2921  0.1312  0.1144
 9120TIP3    H248776   5.520   4.105   4.001  0.7133 -0.3327 -0.0395
 9121TIP3   OH248777   3.985   4.243  15.390 -0.6409 -0.1174  0.3206
 9121TIP3    H148778   3.972   4.335  15.367  2.0911  0.0079 -1.1808
 9121TIP3    H248779   3.969   4.240  15.485  0.7688  2.2910  0.7192
 9122TIP3   OH248780   5.863   5.746  13.020 -0.4822 -0.1070 -0.1379
 9122TIP3    H148781   5.847   5.745  13.114  0.5168  1.9582  0.1134
 9122TIP3    H248782   5.945   5.699  13.009 -0.5704 -0.2994  0.0308
 9123TIP3   OH248783   0.841   1.374  15.441 -0.5918 -0.0694 -0.2815
 9123TIP3    H148784   0.891   1.396  15.520 -1.4503  1.2186 -0.0560
 9123TIP3    H248785   0.867   1.441  15.377 -1.2800  0.0240 -0.4752
 9124TIP3   OH248786   1.342   2.207   1.815 -0.1478 -0.0231 -0.2178
 9124TIP3    H148787   1.420   2.256   1.842  0.8809 -1.9690  0.4950
 9124TIP3    H248788   1.327   2.144   1.885 -1.0938 -1.1024 -1.3384
 9125TIP3   OH248789   0.963   2.267   5.556 -0.2117 -0.2813 -0.2118
 9125TIP3    H148790   1.012   2.206   5.500  1.6569 -0.1194  1.1393
 9125TIP3    H248791   1.004   2.352   5.541  1.9369 -0.5828  2.9221
 9126TIP3   OH248792   2.567   0.503  14.309 -0.0085 -0.2283 -0.3699
 9126TIP3    H148793   2.652   0.465  14.329 -0.6245 -0.0320  3.3420
 9126TIP3    H248794   2.578   0.597  14.324 -0.6900 -0.1246 -0.4658
 9127TIP3   OH248795   0.946   2.748   0.190 -0.7196 -0.4675  0.2705
 9127TIP3    H148796   0.872   2.767   0.248 -1.1901 -0.9320 -0.1720
 9127TIP3    H248797   0.990   2.674   0.231  0.6127  0.9579  1.5349
 9128TIP3   OH248798   4.632   6.377  13.324 -0.2062 -0.1699 -0.3403
 9128TIP3    H148799   4.573   6.316  13.280  0.1488  1.3022 -3.1060
 9128TIP3    H248800   4.711   6.377  13.269  0.7327  0.9636  0.9467
 9129TIP3   OH248801   6.528   4.758   4.199  0.6301  0.6108  0.6046
 9129TIP3    H148802   6.498   4.743   4.109  0.6971  0.8478  0.5410
 9129TIP3    H248803   6.511   4.676   4.244 -0.9663  1.0234  0.7995
 9130TIP3   OH248804   6.033   3.548  16.612 -0.0472  0.0788  0.0479
 9130TIP3    H148805   6.005   3.639  16.618 -0.4323 -0.0472  0.1648
 9130TIP3    H248806   6.075   3.541  16.526 -0.6001  0.2000 -0.2329
 9131TIP3   OH248807   2.921   2.497  15.305  0.5694  0.3734 -0.2715
 9131TIP3    H148808   2.956   2.467  15.220 -0.1676  1.4452 -0.9815
 9131TIP3    H248809   2.872   2.422  15.338  1.2210 -0.2069 -0.5758
 9132TIP3   OH248810   5.964   4.237  11.296 -0.1393 -0.2701  0.0780
 9132TIP3    H148811   5.961   4.178  11.371  1.9295  0.0926  0.5026
 9132TIP3    H248812   5.996   4.320  11.331 -0.1871  0.2314 -1.0097
 9133TIP3   OH248813   4.020   0.812  16.959 -0.0984  0.9254 -0.1908
 9133TIP3    H148814   4.001   0.878  17.025  0.0880  1.2549 -0.4638
 9133TIP3    H248815   4.095   0.763  16.994 -2.2245 -1.3167  1.5739
 9134TIP3   OH248816   6.445   2.438  11.670  0.4154 -0.1747 -0.0483
 9134TIP3    H148817   6.407   2.417  11.755 -1.0306 -0.7767 -0.8176
 9134TIP3    H248818   6.444   2.355  11.622 -1.8973  0.7645 -1.8098
 9135TIP3   OH248819   6.263   3.821  14.201  1.0288 -0.1570 -0.4454
 9135TIP3    H148820   6.219   3.906  14.191 -0.9304 -1.2983 -2.3999
 9135TIP3    H248821   6.348   3.832  14.159  1.0462  0.9889 -0.1443
 9136TIP3   OH248822   2.187   5.842   1.920  0.5523 -0.2133  0.2894
 9136TIP3    H148823   2.222   5.753   1.922 -0.3794 -0.6959 -1.8363
 9136TIP3    H248824   2.257   5.897   1.956  0.5863 -1.9078  3.0543
 9137TIP3   OH248825   0.570   4.020   3.110  0.1175 -0.2948 -0.4117
 9137TIP3    H148826   0.478   4.030   3.135  0.5212 -0.4207  1.1915
 9137TIP3    H248827   0.615   4.093   3.151  0.8547 -0.6598 -0.5502
 9138TIP3   OH248828   2.933   3.466  12.417 -0.0253  0.2497  0.2578
 9138TIP3    H148829   2.932   3.473  12.512  1.0343  0.2304  0.2786
 9138TIP3    H248830   2.902   3.377  12.399 -1.9663  0.8400  0.4892
 9139TIP3   OH248831   5.804   5.290  12.051  0.0787  0.1436  0.7584
 9139TIP3    H148832   5.745   5.229  12.006  0.9222  0.1506 -0.3994
 9139TIP3    H248833   5.791   5.373  12.006  1.6337 -0.0713 -0.1602
 9140TIP3   OH248834   4.980   1.156  15.584  0.3079  0.2867  0.1820
 9140TIP3    H148835   4.975   1.209  15.663 -2.7887 -0.1329  0.3911
 9140TIP3    H248836   4.937   1.074  15.607 -0.6256  0.1273 -1.8686
 9141TIP3   OH248837   6.098   0.768  11.377  0.2313 -0.4674 -0.2401
 9141TIP3    H148838   6.030   0.705  11.402  0.1912 -0.3077  0.0576
 9141TIP3    H248839   6.082   0.784  11.284 -1.3192  0.9769  0.2104
 9142TIP3   OH248840   2.936   4.092   0.663 -0.6065  0.4277 -0.7560
 9142TIP3    H148841   2.965   4.043   0.586  1.1576 -0.0272  0.1454
 9142TIP3    H248842   3.004   4.158   0.676 -0.7931  0.3780  0.5170
 9143TIP3   OH248843   2.299   5.153   4.492  0.4648  0.4813 -0.5925
 9143TIP3    H148844   2.220   5.200   4.521 -0.9222 -3.2501  2.5742
 9143TIP3    H248845   2.280   5.127   4.402 -1.0747  1.3346 -0.5477
 9144TIP3   OH248846   4.652   4.318  10.602  0.0826  0.0837  0.1741
 9144TIP3    H148847   4.705   4.262  10.658 -1.5197 -0.7334  0.9373
 9144TIP3    H248848   4.588   4.259  10.562 -0.8634  1.1672  0.0241
 9145TIP3   OH248849   5.441   0.862  14.177 -0.3900 -0.5181 -0.3075
 9145TIP3    H148850   5.358   0.832  14.140 -1.0217  0.8044 -0.0223
 9145TIP3    H248851   5.486   0.905  14.104 -0.3797 -0.3988 -0.2317
 9146TIP3   OH248852   0.320   1.828  12.337  0.0859 -0.4730  0.0910
 9146TIP3    H148853   0.344   1.875  12.257 -0.9135 -0.4637 -0.2153
 9146TIP3    H248854   0.273   1.893  12.389  1.2918 -0.2886  0.9937
 9147TIP3   OH248855   4.115   0.967   3.498 -0.2632  0.6766  0.3213
 9147TIP3    H148856   4.189   0.954   3.557 -0.8987  1.6244  1.3759
 9147TIP3    H248857   4.046   1.002   3.554 -1.2496  0.5599 -0.7901
 9148TIP3   OH248858   6.543   1.323   1.761 -0.1099  0.4411 -0.3225
 9148TIP3    H148859   6.463   1.350   1.806  0.8432  0.3522  1.5156
 9148TIP3    H248860   6.571   1.244   1.807  0.0670 -0.6223 -2.1418
 9149TIP3   OH248861   0.009   0.140   1.534  0.4763  0.4950 -0.1819
 9149TIP3    H148862  -0.083   0.118   1.523  0.4895 -0.1369  0.8450
 9149TIP3    H248863   0.054   0.055   1.542  1.6717  0.5786 -3.9942
 9150TIP3   OH248864   4.950   4.616  11.372  0.5516  0.1564  0.0506
 9150TIP3    H148865   5.040   4.592  11.348 -0.0006 -0.5179 -1.4347
 9150TIP3    H248866   4.901   4.612  11.289 -0.6870  1.2862  0.6947
 9151TIP3   OH248867   3.283   3.032  15.977  0.3330 -0.2200 -0.2349
 9151TIP3    H148868   3.206   3.076  15.941  0.3300 -0.0710 -0.0540
 9151TIP3    H248869   3.264   2.939  15.969  0.8067 -0.2138 -1.6282
 9152TIP3   OH248870   4.892   5.064   4.616 -0.6897  0.7321 -0.0325
 9152TIP3    H148871   4.887   4.974   4.648 -0.1782  0.9507  0.6781
 9152TIP3    H248872   4.954   5.060   4.544  0.6154  0.7859  1.0384
 9153TIP3   OH248873   4.580   1.922  12.442 -0.0386  0.2632 -0.3330
 9153TIP3    H148874   4.553   1.842  12.487 -1.3899  1.8077  1.7780
 9153TIP3    H248875   4.661   1.948  12.486  0.0930  0.3761 -0.6368
 9154TIP3   OH248876   0.097   5.864   5.282 -0.2368  0.0031  0.3188
 9154TIP3    H148877   0.038   5.930   5.246 -0.2608 -0.0155  0.3248
 9154TIP3    H248878   0.167   5.915   5.324  0.0792  0.0262 -0.2228
 9155TIP3   OH248879   3.992   1.336   4.252 -0.3296  0.1725  0.4059
 9155TIP3    H148880   4.039   1.366   4.174 -1.7816 -0.5195 -0.7622
 9155TIP3    H248881   4.022   1.247   4.266  0.0761  0.3620  0.7727
 9156TIP3   OH248882   4.578   3.614  13.903 -0.1361  0.4075 -0.3687
 9156TIP3    H148883   4.620   3.650  13.981  0.7256 -1.7289  0.2142
 9156TIP3    H248884   4.635   3.641  13.831  0.2270  0.5919 -0.0157
 9157TIP3   OH248885   5.022   0.412  14.940 -0.0548  0.3626  0.5908
 9157TIP3    H148886   4.963   0.466  14.886 -1.4326 -1.8324 -0.2478
 9157TIP3    H248887   5.038   0.334  14.888  2.2334  0.0874  1.5741
 9158TIP3   OH248888   1.164   3.503  12.992 -0.4162 -0.3146 -0.1318
 9158TIP3    H148889   1.180   3.597  12.999 -0.1506 -0.2778 -1.0606
 9158TIP3    H248890   1.247   3.467  12.962 -1.0074 -0.5935 -1.5405
 9159TIP3   OH248891   1.499   0.030  11.076 -0.2353  0.2075  0.0992
 9159TIP3    H148892   1.512   0.030  11.171  1.2978 -0.4054 -0.0823
 9159TIP3    H248893   1.587   0.040  11.040 -0.8222  0.6782 -1.2688
 9160TIP3   OH248894   2.654   1.483   4.657  0.0189  0.2170  0.2599
 9160TIP3    H148895   2.746   1.458   4.668  0.0646  0.0833 -0.3622
 9160TIP3    H248896   2.611   1.402   4.630 -0.2339  0.3374  0.3067
 9161TIP3   OH248897   4.929   1.554   4.195  0.2499 -0.1531  0.2066
 9161TIP3    H148898   4.892   1.576   4.280 -0.3762  2.2061 -0.6075
 9161TIP3    H248899   4.861   1.579   4.132 -0.4040 -4.2025 -0.9804
 9162TIP3   OH248900   1.178   2.657   6.199  0.5900 -0.1770  0.3941
 9162TIP3    H148901   1.167   2.563   6.211  1.8025 -0.4492 -0.4876
 9162TIP3    H248902   1.101   2.695   6.242 -1.8486 -1.7019 -2.3037
 9163TIP3   OH248903   6.265   5.044   3.863  0.0419  0.7086 -0.0444
 9163TIP3    H148904   6.213   5.098   3.922 -0.2133  2.6351 -1.9079
 9163TIP3    H248905   6.350   5.087   3.860  0.5293 -0.2207  0.0169
 9164TIP3   OH248906   2.062   3.871   2.372  0.2085 -0.1047  0.3148
 9164TIP3    H148907   2.116   3.892   2.296 -0.8552 -0.0315 -0.4358
 9164TIP3    H248908   2.054   3.775   2.371  0.5236 -0.1369  0.5758
 9165TIP3   OH248909   0.454   0.357  14.171 -0.3893 -0.9542 -0.1118
 9165TIP3    H148910   0.441   0.361  14.076  0.9833 -2.0342 -0.3739
 9165TIP3    H248911   0.368   0.333  14.206 -1.2923  0.8485 -0.9196
 9166TIP3   OH248912   3.170   3.918   2.696 -0.1178 -0.1545 -0.3231
 9166TIP3    H148913   3.263   3.912   2.672 -0.4696 -1.6680 -1.4849
 9166TIP3    H248914   3.123   3.905   2.614 -1.3735 -2.5721  0.6689
 9167TIP3   OH248915   1.806   3.018  13.480  0.6995  0.3503  0.2097
 9167TIP3    H148916   1.809   2.944  13.419  0.1689  0.8961 -0.4988
 9167TIP3    H248917   1.734   2.997  13.539 -2.2282  2.0796 -2.4345
 9168TIP3   OH248918   5.810   2.223   1.503 -0.0784 -0.1859  0.5848
 9168TIP3    H148919   5.749   2.155   1.529 -1.6275  0.4004 -1.2714
 9168TIP3    H248920   5.873   2.228   1.575 -1.0288 -2.2080  1.6386
 9169TIP3   OH248921   5.106   2.684  10.793  0.6879  0.3493  0.2612
 9169TIP3    H148922   5.101   2.598  10.750  0.1725  0.4818  0.0401
 9169TIP3    H248923   5.062   2.743  10.731  0.5324  0.6647  0.6722
 9170TIP3   OH248924   0.930   6.386   0.610  0.8848 -0.0936 -0.8766
 9170TIP3    H148925   0.915   6.293   0.623 -1.0511  0.2172 -0.5476
 9170TIP3    H248926   0.850   6.418   0.568 -0.0768  2.0210  2.1976
 9171TIP3   OH248927   0.702   6.168   0.766 -0.5524  0.0768 -0.0171
 9171TIP3    H148928   0.656   6.251   0.753 -0.5780 -0.0333 -0.6471
 9171TIP3    H248929   0.732   6.171   0.857 -1.2964  0.4032  0.2242
 9172TIP3   OH248930   4.078   1.428  14.459  0.5599  0.4075 -0.1283
 9172TIP3    H148931   4.098   1.507  14.408  0.5927  0.0521 -0.6688
 9172TIP3    H248932   4.078   1.458  14.550  1.5582  0.8370 -0.2564
 9173TIP3   OH248933   0.412   0.191   5.597  0.3149  0.1068  0.0997
 9173TIP3    H148934   0.353   0.215   5.668 -1.1530 -0.1721 -0.9728
 9173TIP3    H248935   0.369   0.118   5.553  0.7710  0.7644 -1.5359
 9174TIP3   OH248936   0.019   2.097   1.493  0.4370  0.4039  0.3702
 9174TIP3    H148937  -0.063   2.140   1.520 -0.4997 -0.5327 -0.8832
 9174TIP3    H248938   0.083   2.125   1.559 -0.7582  1.5683  1.0961
 9175TIP3   OH248939   4.508   6.159  13.177  0.4151 -0.7128 -0.1158
 9175TIP3    H148940   4.427   6.109  13.169 -1.2931  1.5690  1.5114
 9175TIP3    H248941   4.501   6.228  13.111  2.1212 -1.7634 -1.4613
 9176TIP3   OH248942   2.877   4.584   3.748 -0.2201  0.2136  0.6055
 9176TIP3    H148943   2.862   4.492   3.728  0.8110 -0.1979  1.6450
 9176TIP3    H248944   2.871   4.629   3.663 -1.3677 -0.7034  0.1793
 9177TIP3   OH248945   3.529   6.580   5.661 -0.7058 -0.1889  0.1291
 9177TIP3    H148946   3.590   6.649   5.632 -1.9698  0.9905  0.1531
 9177TIP3    H248947   3.515   6.527   5.583  1.5455 -1.4688  0.5130
 9178TIP3   OH248948   6.489   3.520   3.205  0.2388  0.2397  0.0724
 9178TIP3    H148949   6.574   3.557   3.231  1.4618 -2.0540 -0.4539
 9178TIP3    H248950   6.483   3.438   3.253 -1.8011  0.4119  0.2091
 9179TIP3   OH248951   1.253   0.863   4.337  0.0381 -0.2428  0.0662
 9179TIP3    H148952   1.342   0.828   4.333  0.0697 -0.3182  1.1315
 9179TIP3    H248953   1.228   0.854   4.429 -0.6864  0.7313 -0.0172
 9180TIP3   OH248954   0.640   1.187   0.014 -0.0134 -0.0537  0.1860
 9180TIP3    H148955   0.552   1.164   0.045  0.2083 -0.1046  0.7863
 9180TIP3    H248956   0.662   1.266   0.063  0.6868 -0.6170  0.7832
 9181TIP3   OH248957   5.069   5.987  16.686  0.0250  0.6929  0.6678
 9181TIP3    H148958   5.033   5.970  16.598  0.6274  2.9236 -0.0774
 9181TIP3    H248959   5.011   5.938  16.745 -0.3730 -0.9021 -0.9342
 9182TIP3   OH248960   2.478   0.422   0.922 -0.0554  0.1543  0.4067
 9182TIP3    H148961   2.452   0.389   0.836 -1.2647  0.6443  0.5713
 9182TIP3    H248962   2.423   0.373   0.984  1.9696 -1.4339  1.0745
 9183TIP3   OH248963   5.450   5.390   2.510 -0.0775 -0.1154  0.0836
 9183TIP3    H148964   5.470   5.297   2.495  0.0949 -0.1255  0.3834
 9183TIP3    H248965   5.370   5.389   2.562  0.7760 -0.1294  1.4321
 9184TIP3   OH248966   3.380   2.941  13.361  0.2831 -0.3958 -0.0913
 9184TIP3    H148967   3.351   2.976  13.445  0.7366 -0.5121  0.1167
 9184TIP3    H248968   3.442   3.006  13.328 -0.0921 -0.2244 -0.4586
 9185TIP3   OH248969   0.374   2.145  16.396  0.5879  0.4592  0.0811
 9185TIP3    H148970   0.375   2.085  16.471  0.6168 -1.2235 -1.2147
 9185TIP3    H248971   0.338   2.226  16.432 -0.8010 -0.7377  1.5937
 9186TIP3   OH248972   3.809   5.405  17.116  0.0197  0.0150 -0.6647
 9186TIP3    H148973   3.735   5.413  17.056  0.4063  0.3338 -1.1144
 9186TIP3    H248974   3.848   5.320  17.096  0.5272  0.3901 -1.3250
 9187TIP3   OH248975   2.186   1.768   2.088 -0.1975 -0.0023 -0.2073
 9187TIP3    H148976   2.173   1.695   2.028  5.4492  0.1771 -2.2411
 9187TIP3    H248977   2.199   1.727   2.173 -1.0112 -0.9100 -0.4961
 9188TIP3   OH248978   5.089   4.227  15.676 -0.2750  0.1046 -0.1360
 9188TIP3    H148979   5.009   4.201  15.630 -1.0482  0.2526  1.0685
 9188TIP3    H248980   5.118   4.306  15.632 -1.6266  0.8790  0.3115
 9189TIP3   OH248981   4.946   5.435  14.911  0.8573 -0.2686 -0.8757
 9189TIP3    H148982   4.927   5.405  15.000 -0.5636  0.6347 -0.8367
 9189TIP3    H248983   4.972   5.527  14.922 -0.6567  0.2617 -1.4762
 9190TIP3   OH248984   1.754   4.189  14.275  0.3762 -0.6767  0.3560
 9190TIP3    H148985   1.763   4.198  14.370  2.4424  0.3488  0.1124
 9190TIP3    H248986   1.722   4.274  14.246  0.3727 -0.7742  0.0676
 9191TIP3   OH248987   4.541   2.214   5.320  0.1025 -0.0922  0.4335
 9191TIP3    H148988   4.601   2.141   5.338 -0.5673 -0.5849  0.7132
 9191TIP3    H248989   4.587   2.268   5.256  0.2890 -1.1754 -0.3781
 9192TIP3   OH248990   3.467   4.529   3.036 -0.0189 -0.1581 -0.5704
 9192TIP3    H148991   3.539   4.584   3.068  0.1031  0.2282 -1.4833
 9192TIP3    H248992   3.438   4.572   2.956 -1.0989 -0.4620 -0.3557
 9193TIP3   OH248993   2.123   0.710   5.146 -0.1927  1.0050  0.3724
 9193TIP3    H148994   2.161   0.623   5.153  1.9837  1.7309 -1.2701
 9193TIP3    H248995   2.128   0.746   5.234  0.1179 -0.0406  0.7898
 9194TIP3   OH248996   0.891   0.765   0.315  0.0516 -0.7328 -0.4078
 9194TIP3    H148997   0.853   0.771   0.402 -0.8782 -1.0063 -0.7893
 9194TIP3    H248998   0.820   0.786   0.255  1.2651  2.0478 -1.0477
 9195TIP3   OH248999   6.623   3.037  15.592 -0.2509  0.5155  0.3537
 9195TIP3    H149000   6.565   2.967  15.560 -0.1659  0.3205  0.6243
 9195TIP3    H249001   6.603   3.043  15.685  1.6664 -1.0263  0.9355
 9196TIP3   OH249002   1.927   5.298  12.434  0.4661  0.1479 -0.1245
 9196TIP3    H149003   1.965   5.284  12.521  0.7902  0.5269 -0.1993
 9196TIP3    H249004   1.860   5.230  12.425  0.1612  0.3518  0.5779
 9197TIP3   OH249005   4.511   1.014  10.360 -0.1967  0.2649  0.0728
 9197TIP3    H149006   4.575   0.967  10.306 -1.7497 -1.8271 -0.0706
 9197TIP3    H249007   4.563   1.058  10.427  1.4454 -0.6566 -0.5466
 9198TIP3   OH249008   2.963   0.981   3.296  0.0508 -0.3633 -0.5078
 9198TIP3    H149009   2.881   0.973   3.248  0.0100  1.6473 -0.8551
 9198TIP3    H249010   2.982   0.892   3.326 -2.2991 -0.8591 -0.3008
 9199TIP3   OH249011   1.065   2.067  12.681 -0.0700 -0.0977  0.2861
 9199TIP3    H149012   1.076   2.159  12.704  1.4233 -0.3620  0.6970
 9199TIP3    H249013   0.973   2.059  12.656 -0.6454  1.1324  1.9201
 9200TIP3   OH249014   0.852   0.106   3.767 -0.3721 -0.5439  0.1441
 9200TIP3    H149015   0.764   0.139   3.784  0.2571  1.7921 -0.8330
 9200TIP3    H249016   0.900   0.120   3.848  0.1152  1.9234 -0.4912
 9201TIP3   OH249017   5.110   6.336  11.979  0.2200 -0.2945  0.0386
 9201TIP3    H149018   5.137   6.401  12.045 -0.4154 -1.5670  1.6291
 9201TIP3    H249019   5.168   6.352  11.905  1.3514  0.8579  1.1112
 9202TIP3   OH249020   3.551   4.144   1.125  0.4875 -0.0777 -0.7663
 9202TIP3    H149021   3.459   4.121   1.136  1.2678 -2.5187  1.4607
 9202TIP3    H249022   3.576   4.102   1.043 -0.1401 -0.1062 -0.9528
 9203TIP3   OH249023   2.611   3.776  15.645  0.5361  0.3706 -0.8340
 9203TIP3    H149024   2.624   3.845  15.710 -0.1587 -0.5209  0.3028
 9203TIP3    H249025   2.688   3.782  15.588  1.8716  0.3354  0.8746
 9204TIP3   OH249026   2.115   1.137   3.995  0.3336  0.4347  0.3862
 9204TIP3    H149027   2.049   1.189   3.948  0.8231  0.4041 -0.3549
 9204TIP3    H249028   2.178   1.202   4.026  0.0478  0.4472  0.9523
 9205TIP3   OH249029   3.461   0.588   6.497  0.1002  0.0233 -0.1995
 9205TIP3    H149030   3.419   0.632   6.423 -0.0460  0.0651 -0.0919
 9205TIP3    H249031   3.446   0.495   6.481  1.1824 -0.0441 -0.8985
 9206TIP3   OH249032   2.857   3.064   0.886 -0.3573  0.6356 -0.2433
 9206TIP3    H149033   2.893   3.050   0.799  0.4788 -0.9230  0.3103
 9206TIP3    H249034   2.914   3.131   0.925  1.2363 -0.8999  0.1755
 9207TIP3   OH249035   5.190   3.008  16.711 -0.0913  0.2976  0.5013
 9207TIP3    H149036   5.139   2.928  16.698  1.5687 -0.7490 -0.0037
 9207TIP3    H249037   5.133   3.078  16.680 -0.8898 -0.9094 -0.9263
 9208TIP3   OH249038   1.406   4.305   1.616  0.3641  0.3328 -1.1474
 9208TIP3    H149039   1.375   4.371   1.554 -3.4238  0.2928  0.4508
 9208TIP3    H249040   1.409   4.350   1.700 -0.8003 -1.0751 -0.2955
 9209TIP3   OH249041   3.055   5.393  14.121  0.3443  0.2757 -0.5521
 9209TIP3    H149042   3.062   5.312  14.171 -0.7928  0.6525  0.2585
 9209TIP3    H249043   3.084   5.369  14.033 -0.2479 -1.0853 -0.4049
 9210TIP3   OH249044   5.423   3.659  16.768 -0.3298  0.1496  1.1318
 9210TIP3    H149045   5.403   3.672  16.675 -0.8507  0.6482  1.3081
 9210TIP3    H249046   5.490   3.724  16.788 -1.0961  0.8773  1.3922
 9211TIP3   OH249047   5.547   2.887  13.486  0.3326  0.4635  0.3793
 9211TIP3    H149048   5.576   2.939  13.412  0.1653  1.2360  0.8527
 9211TIP3    H249049   5.489   2.944  13.536 -2.2017 -1.0992 -0.6171
 9212TIP3   OH249050   4.004   2.483  14.486 -0.6437  0.3828 -0.0298
 9212TIP3    H149051   4.058   2.475  14.565 -1.6847 -1.9344  0.5345
 9212TIP3    H249052   3.954   2.563  14.499  1.1211  1.4773  0.3800
 9213TIP3   OH249053   6.712   4.280  12.534  0.9169  0.7024 -0.0158
 9213TIP3    H149054   6.764   4.238  12.603  2.4134 -0.0462 -1.5353
 9213TIP3    H249055   6.644   4.328  12.582  0.4551 -1.6556  1.8801
 9214TIP3   OH249056   4.804   0.200   0.210 -0.0244  0.0746 -0.0536
 9214TIP3    H149057   4.745   0.254   0.158  0.3865 -0.2814 -0.9002
 9214TIP3    H249058   4.824   0.253   0.287 -1.0523  0.3972  0.0029
 9215TIP3   OH249059   0.499   2.709  14.923  0.6903  0.2682 -0.1653
 9215TIP3    H149060   0.517   2.643  14.990  1.5317  1.1502  0.5055
 9215TIP3    H249061   0.467   2.658  14.848 -2.5271 -0.5779  1.5935
 9216TIP3   OH249062   1.083   2.222   3.189 -0.0224 -0.1456  0.3778
 9216TIP3    H149063   1.171   2.251   3.167  0.3933 -1.5422  0.1103
 9216TIP3    H249064   1.028   2.254   3.117  0.0669  1.5250  0.9949
 9217TIP3   OH249065   4.862   5.561   0.727 -0.2700  0.7763  0.1122
 9217TIP3    H149066   4.774   5.578   0.693  0.1534  0.4379 -1.1815
 9217TIP3    H249067   4.887   5.644   0.769 -0.8765  1.1513 -0.2376
 9218TIP3   OH249068   6.012   5.531  16.331  0.2234 -0.5695  0.1688
 9218TIP3    H149069   6.106   5.527  16.313  0.6143 -2.2044  2.1327
 9218TIP3    H249070   5.975   5.461  16.278 -0.1047  0.7179 -1.3889
 9219TIP3   OH249071   1.440   0.316   4.818 -0.0824  0.2099 -0.0690
 9219TIP3    H149072   1.446   0.394   4.762 -1.4605  1.0933  0.9247
 9219TIP3    H249073   1.501   0.334   4.890  2.2902 -1.2711 -1.5395
 9220TIP3   OH249074   0.283   0.901  12.785  0.2464 -0.1233  0.0781
 9220TIP3    H149075   0.313   0.859  12.866  0.3579 -1.7284 -0.7514
 9220TIP3    H249076   0.210   0.846  12.756  1.7625 -1.0883 -2.1932
 9221TIP3   OH249077   1.967   4.247  16.877 -0.4976  0.2838 -1.2650
 9221TIP3    H149078   1.983   4.165  16.924  0.7621  1.0003 -0.3775
 9221TIP3    H249079   1.872   4.250  16.865 -0.9353  0.1601  1.4691
 9222TIP3   OH249080   3.065   1.711  13.235 -0.6273 -0.6868  0.1865
 9222TIP3    H149081   2.976   1.745  13.240 -1.0733 -1.7290 -0.3530
 9222TIP3    H249082   3.120   1.789  13.229 -1.5218 -0.0386  0.2072
 9223TIP3   OH249083   6.525   0.570   1.877  0.1517  0.7602 -0.3046
 9223TIP3    H149084   6.444   0.521   1.864  0.8229 -1.0066  1.6019
 9223TIP3    H249085   6.499   0.643   1.934 -0.2749  0.7853 -0.5256
 9224TIP3   OH249086   1.462   5.485   2.949  0.2346 -0.1191  0.1825
 9224TIP3    H149087   1.384   5.433   2.927  0.6917 -0.9100  0.4024
 9224TIP3    H249088   1.510   5.431   3.011  0.8219  0.4925  0.2686
 9225TIP3   OH249089   5.265   4.869  13.274  0.0357 -0.0353 -0.3637
 9225TIP3    H149090   5.235   4.959  13.284 -0.3909 -0.0962 -1.0480
 9225TIP3    H249091   5.326   4.871  13.200 -0.8209 -0.4913 -1.1017
 9226TIP3   OH249092   6.280   0.371  17.180  0.0514 -0.5111 -0.2487
 9226TIP3    H149093   6.275   0.291  17.128  1.1296  0.3275 -1.7321
 9226TIP3    H249094   6.372   0.396  17.177 -0.1164  0.3415  0.9070
 9227TIP3   OH249095   0.770   2.299  14.956 -0.4830  0.2258  0.2682
 9227TIP3    H149096   0.734   2.374  14.908 -1.0011  1.0532  1.8761
 9227TIP3    H249097   0.844   2.270  14.902  0.1749  2.3408 -0.0811
 9228TIP3   OH249098   1.055   5.842  12.591  0.7444  0.0019  0.0571
 9228TIP3    H149099   1.001   5.918  12.572 -0.5954 -1.0987 -0.7611
 9228TIP3    H249100   1.047   5.830  12.686 -0.3170 -0.0278 -0.0228
 9229TIP3   OH249101   2.698   0.617   3.084  0.4388 -0.2099 -0.2169
 9229TIP3    H149102   2.694   0.663   3.168 -1.6276 -0.5413 -0.0805
 9229TIP3    H249103   2.791   0.599   3.071  0.9895  1.4551  1.1023
 9230TIP3   OH249104   2.911   2.444   0.300 -0.4545  0.0167 -0.4376
 9230TIP3    H149105   2.983   2.494   0.263 -1.4864  1.4911 -0.5450
 9230TIP3    H249106   2.868   2.404   0.225 -0.8750  0.7221 -0.5873
 9231TIP3   OH249107   0.606   5.816   5.797  0.2310  0.1700  0.3377
 9231TIP3    H149108   0.631   5.848   5.883  2.4036  1.5890 -0.7154
 9231TIP3    H249109   0.512   5.830   5.792  0.2172  0.9392  2.1222
 9232TIP3   OH249110   3.281   2.546   4.125 -0.5225 -0.4109 -0.2692
 9232TIP3    H149111   3.287   2.598   4.205  1.0406 -1.2358  0.1904
 9232TIP3    H249112   3.220   2.475   4.147 -1.3673  0.2582 -0.3701
 9233TIP3   OH249113   2.434   3.282  13.277 -0.0464  0.5036 -1.2619
 9233TIP3    H149114   2.416   3.373  13.301 -1.1707 -0.4844  2.3471
 9233TIP3    H249115   2.524   3.267  13.307 -0.3050  0.1250 -0.6509
 9234TIP3   OH249116   4.856   5.116  16.229 -0.0758  0.3802  0.2557
 9234TIP3    H149117   4.879   5.055  16.300 -0.3381  0.5220  0.4680
 9234TIP3    H249118   4.821   5.192  16.275  2.2683  1.6144  0.1113
 9235TIP3   OH249119   1.701   6.282   6.276  0.2028  0.3758  0.8405
 9235TIP3    H149120   1.614   6.319   6.261 -1.1441 -3.0318 -0.7563
 9235TIP3    H249121   1.700   6.257   6.368 -1.7066 -2.0668  0.2721
 9236TIP3   OH249122   6.708   4.561   0.523 -0.1694  0.3196  0.3846
 9236TIP3    H149123   6.619   4.552   0.557 -0.1886  0.6149  0.4195
 9236TIP3    H249124   6.696   4.578   0.429 -0.1196 -0.4090  0.2418
 9237TIP3   OH249125   2.411   3.379   4.894  0.0626 -0.2007  0.4663
 9237TIP3    H149126   2.352   3.358   4.822 -0.1360 -0.2910  0.6544
 9237TIP3    H249127   2.354   3.413   4.963  0.3348  0.6123  0.2991
 9238TIP3   OH249128   5.527   3.644   2.956  0.2616  0.3226  0.5350
 9238TIP3    H149129   5.549   3.603   3.039 -1.8673  1.0016  1.5008
 9238TIP3    H249130   5.550   3.736   2.967  0.9577  0.2263 -0.0365
 9239TIP3   OH249131   5.652   5.385  14.439  0.5201 -0.6757 -0.1070
 9239TIP3    H149132   5.724   5.385  14.503 -0.6274 -0.6143  1.2196
 9239TIP3    H249133   5.695   5.363  14.356  2.1119 -0.3849  0.5905
 9240TIP3   OH249134   6.426   2.935   1.764  0.0066  0.0412  0.6066
 9240TIP3    H149135   6.367   3.010   1.755  0.8479  0.5661 -1.1030
 9240TIP3    H249136   6.368   2.858   1.762 -0.7270  0.5903  0.5236
 9241TIP3   OH249137   3.144   4.145   5.181  0.6850  0.3630  0.0355
 9241TIP3    H149138   3.201   4.135   5.257 -0.0991  0.3394  0.6252
 9241TIP3    H249139   3.204   4.166   5.109  1.5636 -0.7506  0.4119
 9242TIP3   OH249140   4.283   5.328  16.874  0.1615  0.1161  0.0264
 9242TIP3    H149141   4.321   5.323  16.961 -0.3735 -0.6171  0.2296
 9242TIP3    H249142   4.254   5.419  16.865  1.2812  0.4918  0.1504
 9243TIP3   OH249143   4.644   2.229  11.928  0.4084  0.4183  0.1927
 9243TIP3    H149144   4.713   2.292  11.946 -0.8280  1.3352  2.0666
 9243TIP3    H249145   4.621   2.193  12.014 -2.0709  0.8711 -0.1913
 9244TIP3   OH249146   3.362   6.140   4.334  0.0966  0.7193  0.0057
 9244TIP3    H149147   3.422   6.146   4.260 -0.8076 -1.2468 -0.9634
 9244TIP3    H249148   3.275   6.155   4.296 -0.1744  2.1318  1.1270
 9245TIP3   OH249149   1.688   2.285  13.951  0.0452 -0.0209  0.2769
 9245TIP3    H149150   1.773   2.253  13.980 -0.8491 -2.4852  0.4069
 9245TIP3    H249151   1.687   2.268  13.857 -0.1812  0.2840  0.2253
 9246TIP3   OH249152   0.638   1.475  14.962  0.3302  0.6541 -0.2538
 9246TIP3    H149153   0.667   1.384  14.971  0.4780  0.8774  2.4051
 9246TIP3    H249154   0.565   1.471  14.900 -2.2469 -1.9643  2.5712
 9247TIP3   OH249155   1.632   6.633  14.131  0.0427  0.1639 -0.9180
 9247TIP3    H149156   1.611   6.726  14.123  0.5161  0.5688  1.8391
 9247TIP3    H249157   1.675   6.624  14.216 -0.9780 -2.7584 -0.5766
 9248TIP3   OH249158   5.137   6.674   3.010 -0.0425  0.1074  0.2459
 9248TIP3    H149159   5.221   6.639   2.981 -0.9255  0.3370 -3.0690
 9248TIP3    H249160   5.082   6.669   2.932 -3.6375 -1.4589  2.6144
 9249TIP3   OH249161   0.605   5.076  14.758 -0.0355  0.0579 -0.4773
 9249TIP3    H149162   0.583   4.984  14.745 -0.4836  0.2881 -1.5376
 9249TIP3    H249163   0.547   5.105  14.828  0.9451 -0.7434  0.6943
 9250TIP3   OH249164   6.052   6.557   3.841  0.1950  0.5638  0.0719
 9250TIP3    H149165   6.028   6.649   3.830 -1.5341 -0.0176 -1.7751
 9250TIP3    H249166   6.083   6.530   3.755 -0.6646 -0.9067  0.1894
 9251TIP3   OH249167   2.489   4.589   3.074  0.0916  0.0752  0.2447
 9251TIP3    H149168   2.424   4.620   3.012 -1.7046  1.4042  2.6191
 9251TIP3    H249169   2.539   4.667   3.097  1.9110 -0.7273 -0.7395
 9252TIP3   OH249170   6.461   1.488   4.680 -0.1813 -0.2059 -0.2132
 9252TIP3    H149171   6.487   1.434   4.755  1.1102  1.6974  0.7686
 9252TIP3    H249172   6.516   1.456   4.608 -0.3652 -1.0515  0.0080
 9253TIP3   OH249173   2.047   5.354   4.274 -0.0532  0.1969  0.0345
 9253TIP3    H149174   1.995   5.396   4.343 -0.3239 -0.2258  0.0943
 9253TIP3    H249175   2.138   5.367   4.301 -0.0127  2.5277 -0.9757
 9254TIP3   OH249176   3.055   5.558   5.617  0.1785  0.0611 -0.3127
 9254TIP3    H149177   3.101   5.504   5.682  0.4417 -0.9771 -1.3239
 9254TIP3    H249178   2.973   5.582   5.660  0.5093 -0.3001  0.5411
 9255TIP3   OH249179   6.364   2.806   3.908  0.0052 -0.2263  0.1989
 9255TIP3    H149180   6.301   2.828   3.839 -0.5559  0.4792  0.9180
 9255TIP3    H249181   6.367   2.711   3.908  0.1437 -0.2323 -0.9182
 9256TIP3   OH249182   0.218   0.979   5.157 -0.6404 -0.1414  0.4247
 9256TIP3    H149183   0.161   1.048   5.122  0.3454  0.6714  0.3785
 9256TIP3    H249184   0.236   1.006   5.247  0.1519 -0.0733  0.2522
 9257TIP3   OH249185   5.339   0.998  16.794 -0.1823  0.0264  0.3791
 9257TIP3    H149186   5.304   1.060  16.730 -0.2683  0.0293  0.4292
 9257TIP3    H249187   5.410   1.045  16.838 -0.5748  0.2618  0.7638
 9258TIP3   OH249188   0.541   0.883  13.681  0.2778  0.2134  0.2389
 9258TIP3    H149189   0.472   0.946  13.701  1.5220  1.7117 -0.0420
 9258TIP3    H249190   0.606   0.933  13.632  2.4013 -0.6675  1.9858
 9259TIP3   OH249191   3.222   0.225  15.442 -0.2433  0.5020  0.2722
 9259TIP3    H149192   3.309   0.239  15.405  0.0409 -0.4916  0.5380
 9259TIP3    H249193   3.217   0.130  15.456  0.6391  0.9151  5.0761
 9260TIP3   OH249194   4.692   2.221   3.948 -0.0390  0.5588  0.5722
 9260TIP3    H149195   4.657   2.178   4.025  1.8118  0.7893  1.5946
 9260TIP3    H249196   4.619   2.273   3.914 -2.3039 -3.0637 -0.6125
 9261TIP3   OH249197   1.577   5.572   1.703  0.3269 -0.3563 -0.2017
 9261TIP3    H149198   1.514   5.521   1.652  0.2963 -0.0763 -0.4476
 9261TIP3    H249199   1.523   5.639   1.746  0.5416  0.3758 -1.0282
 9262TIP3   OH249200   0.139   1.504  10.767  0.4518 -0.1472  0.4915
 9262TIP3    H149201   0.066   1.443  10.754  2.0257 -2.2145  0.7845
 9262TIP3    H249202   0.212   1.464  10.720  1.5808  1.5340  0.7402
 9263TIP3   OH249203   0.638   1.103   4.300  0.0813 -0.0434 -0.2464
 9263TIP3    H149204   0.724   1.120   4.339 -1.0789  3.0187  1.2696
 9263TIP3    H249205   0.602   1.031   4.351  1.6307 -1.2157 -0.7578
 9264TIP3   OH249206   5.991   5.415   3.677 -0.5336 -0.7206  0.3139
 9264TIP3    H149207   5.959   5.367   3.753  1.9144 -1.2130  1.1515
 9264TIP3    H249208   6.080   5.442   3.702 -1.1094  2.6929 -0.8339
 9265TIP3   OH249209   4.954   1.981  12.044 -0.1292  0.1153 -0.1690
 9265TIP3    H149210   4.959   2.004  11.951  0.2993  0.5460 -0.0430
 9265TIP3    H249211   5.004   2.049  12.088  0.0587 -0.3491  0.3374
 9266TIP3   OH249212   5.173   4.502   4.075  0.0467 -0.1334  0.1643
 9266TIP3    H149213   5.167   4.593   4.043 -0.4702 -0.2894 -0.2101
 9266TIP3    H249214   5.266   4.482   4.074  0.0431 -0.2232 -1.5644
 9267TIP3   OH249215   6.562   0.813   1.710  0.4196  0.2384 -0.3463
 9267TIP3    H149216   6.646   0.831   1.669  0.4893  0.3566 -0.1492
 9267TIP3    H249217   6.577   0.732   1.760  0.3786  0.1843 -0.4210
 9268TIP3   OH249218   2.410   3.448   5.535  0.6317  0.0261  0.0855
 9268TIP3    H149219   2.375   3.463   5.623  1.5209 -2.4299  0.9271
 9268TIP3    H249220   2.505   3.450   5.546  0.7900  1.3596 -1.1813
 9269TIP3   OH249221   5.378   6.260  11.713 -0.2518 -0.0346 -0.0192
 9269TIP3    H149222   5.401   6.353  11.712 -2.2568  0.6364  2.7577
 9269TIP3    H249223   5.398   6.232  11.802  0.9168 -2.5298 -0.9661
 9270TIP3   OH249224   6.050   0.366   0.944  0.3553 -0.2834 -0.6154
 9270TIP3    H149225   6.007   0.451   0.943  0.8466 -0.0420 -1.6078
 9270TIP3    H249226   6.142   0.385   0.961  0.9113 -0.3764 -3.1355
 9271TIP3   OH249227   5.491   3.498   5.997  0.1182  0.2472  0.1093
 9271TIP3    H149228   5.422   3.461   6.052  0.1127 -0.5386 -0.4191
 9271TIP3    H249229   5.546   3.547   6.058 -0.1193 -0.2691  0.7467
 9272TIP3   OH249230   5.761   2.075  12.787 -0.3415  0.2889 -0.1515
 9272TIP3    H149231   5.735   2.032  12.869  0.5487  0.2111  0.0928
 9272TIP3    H249232   5.768   2.167  12.809 -0.5226  0.3271 -0.2494
 9273TIP3   OH249233   2.143   2.593   3.353  0.2078 -0.4101  0.5496
 9273TIP3    H149234   2.171   2.605   3.444  1.9759  1.5620 -0.1693
 9273TIP3    H249235   2.148   2.681   3.315 -1.9769 -0.9331 -1.0848
 9274TIP3   OH249236   5.952   3.409  14.960  1.2331  0.3221  0.4315
 9274TIP3    H149237   5.960   3.366  14.875  0.5380 -1.1185  1.0529
 9274TIP3    H249238   5.977   3.500  14.944 -0.8662  0.5969 -1.7321
 9275TIP3   OH249239   4.202   3.772   1.062 -0.9276 -0.3623  0.4376
 9275TIP3    H149240   4.284   3.732   1.032 -0.4270 -0.0549  1.3546
 9275TIP3    H249241   4.133   3.717   1.024 -0.2982 -0.6242 -0.3439
 9276TIP3   OH249242   5.179   1.622  15.339 -0.0877 -0.0185  0.2159
 9276TIP3    H149243   5.200   1.715  15.339  1.1390 -0.2685 -0.0436
 9276TIP3    H249244   5.174   1.598  15.246  1.3391 -0.5359  0.2350
 9277TIP3   OH249245   5.734   3.683   1.041 -0.3712  0.5246 -0.1698
 9277TIP3    H149246   5.730   3.696   0.946  0.4446 -0.1204 -0.2980
 9277TIP3    H249247   5.820   3.645   1.057 -0.6329  0.3038  0.7971
 9278TIP3   OH249248   5.368   6.728  15.364  0.0282 -0.0514  0.7228
 9278TIP3    H149249   5.449   6.695  15.403 -1.2155 -0.5488  3.0846
 9278TIP3    H249250   5.397   6.777  15.286  2.4720 -1.0607  0.8988
 9279TIP3   OH249251   6.353   2.486   5.735  0.2500 -0.4634  0.1414
 9279TIP3    H149252   6.406   2.546   5.682 -0.9118  0.0868 -0.4429
 9279TIP3    H249253   6.288   2.542   5.778  0.4001 -1.0638  1.1851
 9280TIP3   OH249254   3.181   1.904   3.118 -0.4363  0.5740 -0.5372
 9280TIP3    H149255   3.179   1.833   3.183  3.2643  0.5568 -0.2439
 9280TIP3    H249256   3.189   1.984   3.171  2.5744  0.5627 -0.7848
 9281TIP3   OH249257   1.074   0.733   1.100  0.1132 -0.3819  0.7073
 9281TIP3    H149258   1.122   0.780   1.032  0.6393  0.8668  1.8882
 9281TIP3    H249259   0.983   0.732   1.069  0.1875  0.9407  0.3946
 9282TIP3   OH249260   5.949   0.734  11.123 -0.3295 -0.2392 -0.0888
 9282TIP3    H149261   6.016   0.759  11.059  2.0389 -2.2659  1.3819
 9282TIP3    H249262   5.870   0.781  11.095  1.5358  1.9085 -2.2344
 9283TIP3   OH249263   3.574   2.329  13.035  0.1160 -0.4771 -0.2176
 9283TIP3    H149264   3.612   2.405  12.990  0.8519 -2.1691 -2.6432
 9283TIP3    H249265   3.635   2.309  13.106  0.3568  0.6384 -0.0937
 9284TIP3   OH249266   0.051   4.011  11.853 -0.3591 -0.6598  0.2969
 9284TIP3    H149267  -0.006   4.080  11.819  0.0453  0.1269  1.1764
 9284TIP3    H249268   0.008   3.929  11.827 -1.8041 -0.0877  0.7946
 9285TIP3   OH249269   0.210   4.857   6.315  0.2375 -0.0647  0.4121
 9285TIP3    H149270   0.182   4.913   6.387 -0.3070  0.7165 -0.3802
 9285TIP3    H249271   0.211   4.769   6.352  0.7215  0.4095  1.5687
 9286TIP3   OH249272   5.868   6.397   0.363  0.0603  0.0680 -0.5016
 9286TIP3    H149273   5.874   6.401   0.459 -2.2643 -0.6631 -0.2737
 9286TIP3    H249274   5.873   6.489   0.335 -0.3393  0.3834  0.4160
 9287TIP3   OH249275   1.703   4.027   4.002  0.5975  0.2968 -0.0589
 9287TIP3    H149276   1.723   4.064   4.088 -2.2336  0.1476  0.7845
 9287TIP3    H249277   1.626   4.075   3.973 -0.0497 -1.3911 -1.3083
 9288TIP3   OH249278   5.093   1.075  11.643  0.0163  0.1724  0.2250
 9288TIP3    H149279   5.013   1.071  11.695 -0.1086  1.6994  0.1789
 9288TIP3    H249280   5.151   1.011  11.685 -0.7053  0.0936  1.1515
 9289TIP3   OH249281   5.255   6.741  12.331  0.0473  0.0197  0.4538
 9289TIP3    H149282   5.211   6.826  12.324  0.0498  0.0393  0.6585
 9289TIP3    H249283   5.296   6.743  12.418 -1.3773 -0.8435  1.1931
 9290TIP3   OH249284   2.007   5.454   4.847 -0.1760 -0.1610 -0.0346
 9290TIP3    H149285   2.065   5.379   4.836 -0.8496 -0.8528  0.8770
 9290TIP3    H249286   2.058   5.517   4.896  0.0077 -0.5314  0.2601
 9291TIP3   OH249287   2.677   2.852   5.301 -0.1020  0.0378  0.1288
 9291TIP3    H149288   2.656   2.918   5.367 -0.4628 -1.0450  1.1411
 9291TIP3    H249289   2.769   2.866   5.280 -0.6312  2.0498 -1.0973
 9292TIP3   OH249290   5.730   6.601  15.936 -0.1304  0.2190 -0.2785
 9292TIP3    H149291   5.803   6.631  15.991  1.3559 -1.6235 -1.0948
 9292TIP3    H249292   5.653   6.608  15.992  0.9779  0.5339  1.2699
 9293TIP3   OH249293   4.682   6.526  15.691 -0.0170 -0.0789 -0.4394
 9293TIP3    H149294   4.621   6.599  15.701 -0.8764 -0.7258 -0.8471
 9293TIP3    H249295   4.732   6.525  15.773 -0.1992  0.7742 -0.3061
 9294TIP3   OH249296   4.799   2.260   6.362 -0.5171 -0.2961  0.0580
 9294TIP3    H149297   4.860   2.216   6.420 -1.6801 -0.9007  0.8661
 9294TIP3    H249298   4.787   2.200   6.289  0.6498  0.2956 -0.6493
 9295TIP3   OH249299   0.440   3.752   4.367 -0.3917 -0.4075  0.6124
 9295TIP3    H149300   0.411   3.680   4.310 -0.4988  0.3790 -0.3649
 9295TIP3    H249301   0.534   3.759   4.350 -0.5835  0.4102 -0.1623
 9296TIP3   OH249302   0.641   1.949  13.226 -0.9594  0.3723  0.2081
 9296TIP3    H149303   0.587   1.879  13.262 -0.2750  0.1012  0.7231
 9296TIP3    H249304   0.695   1.905  13.160 -2.5884  0.9572 -1.6023
 9297TIP3   OH249305   0.683   5.861  12.386 -0.8498 -0.4297 -0.4118
 9297TIP3    H149306   0.736   5.934  12.417 -1.9498 -0.0439  0.6605
 9297TIP3    H249307   0.601   5.902  12.357 -0.5553 -0.9955 -2.1436
 9298TIP3   OH249308   1.573   2.804  14.907 -0.3765  0.5414 -0.7145
 9298TIP3    H149309   1.520   2.753  14.968  1.4100 -1.0874 -0.3912
 9298TIP3    H249310   1.628   2.738  14.864  2.3901  2.2126  0.0285
 9299TIP3   OH249311   3.638   0.133  15.917 -0.1260  0.8935  0.0372
 9299TIP3    H149312   3.690   0.069  15.966 -1.2198  0.6098  0.8893
 9299TIP3    H249313   3.555   0.087  15.901 -0.1621  1.3659 -1.1850
 9300TIP3   OH249314   5.222   0.486  12.068  0.3073  0.0424 -0.6324
 9300TIP3    H149315   5.250   0.395  12.061  0.6827  0.2414 -1.8182
 9300TIP3    H249316   5.272   0.521  12.142  0.8884 -0.4479 -0.7886
 9301TIP3   OH249317   1.304   0.419   0.843 -0.5078 -0.5548 -0.3765
 9301TIP3    H149318   1.342   0.501   0.812 -1.0135 -0.3888 -0.5811
 9301TIP3    H249319   1.211   0.440   0.857 -0.7466 -1.2174 -0.9017
 9302TIP3   OH249320   4.779   5.309   5.239 -0.3598  0.3294  0.7568
 9302TIP3    H149321   4.779   5.376   5.171  0.2044  0.1929  0.6187
 9302TIP3    H249322   4.861   5.323   5.286 -0.8971  0.6320  1.6191
 9303TIP3   OH249323   3.359   4.567   3.562  0.3594 -0.3292 -0.0820
 9303TIP3    H149324   3.278   4.569   3.614  1.1635 -0.5272  1.2345
 9303TIP3    H249325   3.369   4.476   3.536  0.3888 -0.3970  0.1593
 9304TIP3   OH249326   5.105   3.272  15.881 -0.4807  0.1155  0.2280
 9304TIP3    H149327   5.116   3.272  15.976  0.9096  0.6492  0.0988
 9304TIP3    H249328   5.167   3.206  15.850 -1.2532 -0.3788 -0.2863
 9305TIP3   OH249329   0.413   5.342  16.588  0.4503  0.3405  0.5175
 9305TIP3    H149330   0.484   5.395  16.551  0.6657  0.3068  0.8769
 9305TIP3    H249331   0.343   5.349  16.523  0.1440  1.7989  0.9523
 9306TIP3   OH249332   5.210   3.529  17.255  1.0006  0.0171  0.5663
 9306TIP3    H149333   5.253   3.499  17.176  0.9490 -0.6238  0.7792
 9306TIP3    H249334   5.121   3.495  17.249  0.9420  0.1212  0.8150
 9307TIP3   OH249335   6.429   1.939  10.867  0.1625 -0.1342 -0.0766
 9307TIP3    H149336   6.444   1.922  10.774  1.0674  2.3278 -0.4586
 9307TIP3    H249337   6.422   1.852  10.906  0.6971 -1.2568 -2.2977
 9308TIP3   OH249338   4.753   0.831  12.584 -0.0109  0.3500  0.3970
 9308TIP3    H149339   4.723   0.782  12.661 -2.8227  1.4303  0.1219
 9308TIP3    H249340   4.785   0.765  12.523  0.7061 -0.6642  1.8213
 9309TIP3   OH249341   5.469   2.491   2.591  0.1478  0.2015 -0.1554
 9309TIP3    H149342   5.532   2.453   2.530 -0.5294  0.0859 -0.7957
 9309TIP3    H249343   5.384   2.481   2.548 -0.6231 -1.5833  1.6174
 9310TIP3   OH249344   5.784   0.385   4.768  0.1419  0.0551 -0.1088
 9310TIP3    H149345   5.715   0.321   4.751  2.7832 -2.9093 -0.6386
 9310TIP3    H249346   5.844   0.375   4.695  1.4839  2.0191  0.6631
 9311TIP3   OH249347   6.491   6.066  13.512  0.2540 -0.0947  0.1905
 9311TIP3    H149348   6.454   6.054  13.600 -3.4027 -0.7160 -1.2583
 9311TIP3    H249349   6.494   5.978  13.475  0.5186  0.3011 -0.7744
 9312TIP3   OH249350   4.194   3.504   2.680 -0.3247  0.1986 -0.1337
 9312TIP3    H149351   4.250   3.581   2.688 -1.0461  0.6672  0.5454
 9312TIP3    H249352   4.240   3.435   2.728  0.8356 -0.1127 -1.6199
 9313TIP3   OH249353   2.734   0.295   4.409  0.4360 -0.7436 -0.2875
 9313TIP3    H149354   2.769   0.243   4.337 -0.6899 -0.0441 -1.4056
 9313TIP3    H249355   2.790   0.276   4.483  1.5695 -1.5917 -1.3261
 9314TIP3   OH249356   2.080   0.668   3.794  0.5994 -0.1652 -0.2442
 9314TIP3    H149357   2.163   0.627   3.818  0.6038 -0.1640 -0.2578
 9314TIP3    H249358   2.105   0.754   3.760  0.8523 -1.2081 -2.9424
 9315TIP3   OH249359   4.897   1.221  13.541  0.3044 -0.6213  0.1386
 9315TIP3    H149360   4.880   1.238  13.634 -1.6564  2.2984 -0.6230
 9315TIP3    H249361   4.938   1.301  13.509 -0.2530 -1.0655 -1.7975
 9316TIP3   OH249362   4.278   1.059  16.608 -0.0568 -0.2609  0.1099
 9316TIP3    H149363   4.366   1.096  16.615 -0.3403  0.9092 -1.6885
 9316TIP3    H249364   4.258   1.025  16.695  1.6677  0.6143  0.8785
 9317TIP3   OH249365   0.399   1.366  12.306  0.2425 -0.0904 -0.5353
 9317TIP3    H149366   0.405   1.317  12.224  1.6105  0.5712 -0.8646
 9317TIP3    H249367   0.321   1.332  12.349 -0.8909  0.0345 -2.4106
 9318TIP3   OH249368   5.795   2.444   4.549 -0.0546  0.2548  0.4212
 9318TIP3    H149369   5.770   2.483   4.632 -0.0555  0.8054  0.1625
 9318TIP3    H249370   5.863   2.502   4.514  1.3721 -1.0144  0.9487
 9319TIP3   OH249371   2.953   4.650   2.722  0.1118 -0.1121 -0.6205
 9319TIP3    H149372   2.964   4.555   2.718  1.5200 -0.1591  2.1549
 9319TIP3    H249373   3.013   4.684   2.655  0.6089 -1.1350 -0.7204
 9320TIP3   OH249374   1.742   2.752  11.558  0.1128 -0.3740 -0.6881
 9320TIP3    H149375   1.679   2.722  11.624 -0.9999  1.2545 -0.9506
 9320TIP3    H249376   1.689   2.765  11.479  0.8645  0.6256 -1.0386
 9321TIP3   OH249377   0.303   4.200   5.320  0.8228  0.1500 -0.2014
 9321TIP3    H149378   0.221   4.240   5.349  0.3082  0.2760 -1.7134
 9321TIP3    H249379   0.357   4.274   5.293  0.8997 -0.0079 -0.4874
 9322TIP3   OH249380   2.700   1.339   0.079 -0.5554  0.1372 -0.5668
 9322TIP3    H149381   2.690   1.283   0.002 -0.7770 -0.1350 -0.3435
 9322TIP3    H249382   2.732   1.422   0.044 -3.5567  1.0795 -1.3584
 9323TIP3   OH249383   4.802   0.779   2.034  0.9556 -0.2999 -0.5684
 9323TIP3    H149384   4.730   0.841   2.033  0.0178 -1.3631 -0.8264
 9323TIP3    H249385   4.881   0.834   2.041  0.0639  0.8115  1.5531
 9324TIP3   OH249386   1.775   0.059   2.451 -0.2316  0.1038 -0.5321
 9324TIP3    H149387   1.865   0.047   2.423  0.1760  0.9107  0.3958
 9324TIP3    H249388   1.753  -0.021   2.499 -0.0353 -0.1095 -0.7972
 9325TIP3   OH249389   4.887   3.791  16.125  0.1030 -0.6995  0.1585
 9325TIP3    H149390   4.972   3.828  16.100 -0.4810  0.5856 -0.0189
 9325TIP3    H249391   4.881   3.805  16.219 -1.7834  3.5026 -0.3821
 9326TIP3   OH249392   3.694   2.218   4.838  0.3989  0.7458 -0.7070
 9326TIP3    H149393   3.729   2.202   4.926  2.0510  1.6600 -1.1534
 9326TIP3    H249394   3.610   2.172   4.837  0.5947  0.2577  1.1583
 9327TIP3   OH249395   2.747   2.753  13.636  0.1771  0.4087 -0.5178
 9327TIP3    H149396   2.753   2.790  13.548  0.9218 -0.7407 -0.9724
 9327TIP3    H249397   2.653   2.745  13.653  0.0125  1.8797 -0.6501
 9328TIP3   OH249398   0.726   2.664   3.895  0.2446  0.4279 -0.3103
 9328TIP3    H149399   0.711   2.688   3.986  0.6128 -0.6318  0.0444
 9328TIP3    H249400   0.821   2.657   3.888  0.2337  0.7764 -0.8555
 9329TIP3   OH249401   5.211   6.312  12.396 -0.3394  0.4829 -0.3569
 9329TIP3    H149402   5.239   6.349  12.479  0.9874  2.5758 -1.6507
 9329TIP3    H249403   5.203   6.387  12.337  0.6444 -1.0808 -2.6328
 9330TIP3   OH249404   3.842   2.649  16.293  0.3052 -0.1532  0.4004
 9330TIP3    H149405   3.865   2.735  16.260 -1.3104  0.6644  1.2651
 9330TIP3    H249406   3.771   2.620  16.235 -0.5904  0.0439  1.3805
 9331TIP3   OH249407   4.414   1.900  15.724 -0.0159  0.1225  0.6099
 9331TIP3    H149408   4.471   1.841  15.774  1.5727 -0.5948 -1.8411
 9331TIP3    H249409   4.379   1.846  15.654  0.0127  1.6441 -0.6365
 9332TIP3   OH249410   4.644   0.890   0.993  0.5560 -0.5396 -0.0310
 9332TIP3    H149411   4.711   0.955   1.016  1.4410 -1.0205 -1.1501
 9332TIP3    H249412   4.657   0.818   1.054  0.8970 -0.5213 -0.0823
 9333TIP3   OH249413   0.780   0.184   5.104 -0.1012  0.0034 -0.1706
 9333TIP3    H149414   0.727   0.238   5.162  0.1809 -0.1503  0.2281
 9333TIP3    H249415   0.862   0.170   5.151 -0.1868 -0.8135 -0.2486
 9334TIP3   OH249416   3.408   1.373   1.097 -0.2929  0.2051  0.7237
 9334TIP3    H149417   3.405   1.380   1.193  2.5533  2.4974  0.7691
 9334TIP3    H249418   3.458   1.294   1.080  1.3212  1.0645  1.2581
 9335TIP3   OH249419   0.847   2.856  10.868  0.1026 -0.3110 -0.4581
 9335TIP3    H149420   0.801   2.789  10.918  1.2792 -0.7881  0.0313
 9335TIP3    H249421   0.918   2.809  10.825 -1.2272 -0.0227 -3.1298
 9336TIP3   OH249422   1.395   0.395  10.847  0.0227  0.3632  0.1122
 9336TIP3    H149423   1.490   0.407  10.850  0.0204  0.4872 -0.3354
 9336TIP3    H249424   1.359   0.478  10.877  0.0554  0.3589  0.1630
 9337TIP3   OH249425   5.074   0.818  11.217  0.2033  0.0518  0.2659
 9337TIP3    H149426   5.084   0.825  11.122 -2.8272 -0.8479 -0.2166
 9337TIP3    H249427   5.114   0.898  11.250 -0.4679  1.4085 -1.9481
 9338TIP3   OH249428   0.069   4.590  15.503 -0.0181  0.3416  0.1697
 9338TIP3    H149429  -0.025   4.596  15.482 -0.3007  1.4752  1.6096
 9338TIP3    H249430   0.078   4.505  15.548 -0.5886  0.7165  1.0254
 9339TIP3   OH249431   4.466   0.620  16.808 -0.4937  0.6096  0.2049
 9339TIP3    H149432   4.487   0.532  16.839 -0.2938 -0.2585 -2.2418
 9339TIP3    H249433   4.408   0.656  16.876 -0.7964 -1.4758  1.1302
 9340TIP3   OH249434   2.501   5.135  11.581 -0.1975  0.5154 -0.1220
 9340TIP3    H149435   2.413   5.096  11.576  0.3856 -1.0139  0.8274
 9340TIP3    H249436   2.485   5.229  11.585 -1.8930  0.2215  1.6516
 9341TIP3   OH249437   6.043   4.868  16.665 -0.1746  0.0569 -0.3842
 9341TIP3    H149438   6.119   4.903  16.620  0.1087  0.6300  0.5226
 9341TIP3    H249439   5.968   4.903  16.617  0.1081  1.4995  0.1695
 9342TIP3   OH249440   3.928   3.393  13.789  0.2995 -0.6020 -0.6411
 9342TIP3    H149441   3.840   3.402  13.753 -0.1112  1.4031  0.6836
 9342TIP3    H249442   3.967   3.480  13.777  2.0056 -1.3703 -0.9274
 9343TIP3   OH249443   6.421   2.025   4.128  0.3805  0.1069 -0.4455
 9343TIP3    H149444   6.346   2.047   4.073  0.8567  2.5325 -0.2432
 9343TIP3    H249445   6.384   2.011   4.215 -0.1910 -2.2936 -0.9823
 9344TIP3   OH249446   3.086   0.992  16.399 -0.5787  0.4775 -0.6807
 9344TIP3    H149447   3.006   1.043  16.394 -1.6865 -1.1010  0.0175
 9344TIP3    H249448   3.061   0.905  16.366  1.2055  0.3177 -1.7638
 9345TIP3   OH249449   3.684   4.452   6.473  0.0827 -0.0088 -0.3592
 9345TIP3    H149450   3.590   4.449   6.488  0.3773 -1.0403  1.4778
 9345TIP3    H249451   3.704   4.546   6.466 -1.1529  0.2031 -1.6289
 9346TIP3   OH249452   5.887   4.180  12.669  0.1902 -0.3495  0.0354
 9346TIP3    H149453   5.898   4.276  12.670  0.7243 -0.3988 -0.3020
 9346TIP3    H249454   5.795   4.166  12.688 -0.7574  0.3824 -3.3995
 9347TIP3   OH249455   6.571   1.797   4.155 -0.0437 -0.2448  0.0606
 9347TIP3    H149456   6.493   1.844   4.183  0.3253  0.2470  0.2948
 9347TIP3    H249457   6.639   1.864   4.152  0.3120 -0.6183 -0.3781
 9348TIP3   OH249458   2.549   3.620   0.347 -0.1906 -0.3063  0.4503
 9348TIP3    H149459   2.525   3.648   0.259  1.5498  0.9931  0.3329
 9348TIP3    H249460   2.506   3.684   0.405 -0.6208 -0.6433  0.5114
 9349TIP3   OH249461   5.878   3.715  15.262 -0.0095  0.4432  0.0298
 9349TIP3    H149462   5.887   3.647  15.328 -1.1394 -1.4517 -1.6629
 9349TIP3    H249463   5.784   3.731  15.257  0.2433  2.2608  0.4724
 9350TIP3   OH249464   0.199   3.523  12.042  0.0279  0.1376  0.9542
 9350TIP3    H149465   0.242   3.609  12.042 -2.1334  1.2824  0.4848
 9350TIP3    H249466   0.120   3.535  11.990  0.1727 -2.4570 -0.0247
 9351TIP3   OH249467   3.756   1.370   2.093 -0.1032 -0.3084  0.0429
 9351TIP3    H149468   3.801   1.328   2.020 -0.6868 -0.1312 -0.4262
 9351TIP3    H249469   3.790   1.459   2.096 -0.2758 -0.2343 -0.1865
 9352TIP3   OH249470   5.601   3.823  15.095 -0.2943  0.0492 -0.0903
 9352TIP3    H149471   5.609   3.754  15.030 -0.3847 -1.5225  1.4952
 9352TIP3    H249472   5.507   3.828  15.114 -0.3775  1.1549 -0.7461
 9353TIP3   OH249473   1.007   3.481  12.271  0.0107 -0.0222 -0.4391
 9353TIP3    H149474   0.970   3.481  12.360  2.3491 -1.3193  0.6291
 9353TIP3    H249475   1.003   3.573  12.244  1.2787  0.8767  2.0033
 9354TIP3   OH249476   3.401   5.205  17.276  0.3421 -0.2798 -0.1359
 9354TIP3    H149477   3.379   5.120  17.314  1.4326 -0.2075  0.6932
 9354TIP3    H249478   3.488   5.193  17.238  0.6096  0.5142  0.2000
 9355TIP3   OH249479   5.466   2.955  15.349 -0.0946  0.4519  0.3441
 9355TIP3    H149480   5.480   3.050  15.353  0.2141  0.3806  1.0276
 9355TIP3    H249481   5.543   2.917  15.391  0.7767 -0.1875 -1.7026
 9356TIP3   OH249482   3.184   3.628   4.442  0.5660 -0.0729  0.1966
 9356TIP3    H149483   3.215   3.714   4.471 -0.3935  1.2498 -2.3616
 9356TIP3    H249484   3.263   3.581   4.417  0.9478  1.2639 -1.2522
 9357TIP3   OH249485   6.709   3.470  16.865  0.1320 -0.0859  0.2216
 9357TIP3    H149486   6.696   3.532  16.936 -1.6353  1.5719 -1.4301
 9357TIP3    H249487   6.737   3.523  16.791 -0.0944 -1.4372 -0.8877
 9358TIP3   OH249488   6.014   2.167  16.036 -0.3952 -0.3940  0.1781
 9358TIP3    H149489   5.955   2.240  16.019 -0.7236 -0.4669  0.9492
 9358TIP3    H249490   6.040   2.179  16.127  1.8430  0.3910 -0.4961
 9359TIP3   OH249491   4.331   0.074   3.239 -0.5432 -0.1233  0.3654
 9359TIP3    H149492   4.412   0.072   3.188  0.3964 -0.3086  1.7854
 9359TIP3    H249493   4.357   0.114   3.322 -1.8252 -0.5478  0.9868
 9360TIP3   OH249494   5.909   5.072   5.639  0.2332 -0.0540  0.5125
 9360TIP3    H149495   5.912   5.138   5.709 -0.0864 -0.1024  0.5760
 9360TIP3    H249496   5.969   5.004   5.668  1.3811  0.6811 -0.0495
 9361TIP3   OH249497   4.077   3.008   1.734 -1.0467  0.1154 -0.2186
 9361TIP3    H149498   4.074   3.098   1.701 -1.2100 -0.1467 -0.9333
 9361TIP3    H249499   4.112   3.017   1.823  2.1438  0.5994 -1.3773
 9362TIP3   OH249500   4.785   4.057   5.818  0.3005  0.0310  0.0543
 9362TIP3    H149501   4.743   3.991   5.873 -0.0927  0.8100  0.7242
 9362TIP3    H249502   4.868   4.075   5.862 -0.2327  1.0174  0.7083
 9363TIP3   OH249503   6.335   3.211   1.408  0.1986  0.4705  0.3568
 9363TIP3    H149504   6.297   3.291   1.371 -0.2788  1.1014  2.0978
 9363TIP3    H249505   6.403   3.186   1.346 -0.7191  1.3140 -1.0447
 9364TIP3   OH249506   2.891   3.082   4.119  0.0261  0.2872 -0.4059
 9364TIP3    H149507   2.888   3.038   4.204  2.1028 -1.0083 -0.9297
 9364TIP3    H249508   2.815   3.141   4.120 -0.3353 -0.0938  2.0923
 9365TIP3   OH249509   5.058   5.086  12.264  0.0410  0.8977  0.0357
 9365TIP3    H149510   5.079   5.160  12.322 -0.5339  2.5260 -1.7560
 9365TIP3    H249511   4.965   5.095  12.246 -0.1097 -0.4830  0.0232
 9366TIP3   OH249512   0.738   0.983   1.655  0.0842 -0.0143 -0.0560
 9366TIP3    H149513   0.703   0.903   1.614 -1.0298  0.4506 -0.0336
 9366TIP3    H249514   0.674   1.051   1.634 -0.5143  0.2715  2.3761
 9367TIP3   OH249515   3.855   0.047   2.616  0.1672  0.1901  0.5088
 9367TIP3    H149516   3.870   0.128   2.568 -0.3853  0.7272  1.2076
 9367TIP3    H249517   3.935   0.034   2.667 -0.3061  1.1437  1.5534
 9368TIP3   OH249518   6.614   4.531  16.624 -0.4902 -0.0643 -0.3309
 9368TIP3    H149519   6.650   4.446  16.599  0.3897  0.3628 -0.5717
 9368TIP3    H249520   6.522   4.513  16.643 -0.4217 -0.9885 -0.7828
 9369TIP3   OH249521   4.624   3.881  17.088 -0.4712 -0.3712 -0.4210
 9369TIP3    H149522   4.625   3.929  17.171 -0.4435 -1.9356  0.5231
 9369TIP3    H249523   4.595   3.945  17.024 -1.0924  0.7232  0.8994
 9370TIP3   OH249524   2.848   6.220  17.144  0.5902 -0.8149  0.2246
 9370TIP3    H149525   2.753   6.232  17.138  0.7963  1.4012  0.5759
 9370TIP3    H249526   2.861   6.161  17.218 -0.4505  0.6476  1.6237
 9371TIP3   OH249527   1.225   3.378   1.434 -0.2518  0.0255  0.4846
 9371TIP3    H149528   1.191   3.300   1.477  1.0293 -0.3288  0.9092
 9371TIP3    H249529   1.156   3.443   1.445 -0.7746 -0.6428  1.3372
 9372TIP3   OH249530   4.146   1.367  12.847 -0.6476 -0.2834  0.3585
 9372TIP3    H149531   4.133   1.304  12.917 -0.3751 -0.7610 -0.0114
 9372TIP3    H249532   4.180   1.315  12.774  0.2590  0.3995  0.2767
 9373TIP3   OH249533   2.398   5.479  11.001  0.6330 -0.1342  0.2943
 9373TIP3    H149534   2.490   5.501  10.983  0.4850 -0.1007 -0.4180
 9373TIP3    H249535   2.359   5.467  10.915 -0.1388  0.2644  0.5878
 9374TIP3   OH249536   4.032   6.313  14.120  0.2945  0.2176  0.3287
 9374TIP3    H149537   3.989   6.374  14.180 -0.4007  1.1548 -1.0628
 9374TIP3    H249538   3.964   6.251  14.096  0.0750  0.8813 -0.8134
 9375TIP3   OH249539   2.363   3.829   3.169  0.3438 -0.2275 -0.3634
 9375TIP3    H149540   2.432   3.895   3.171 -0.1447  0.3987 -1.8875
 9375TIP3    H249541   2.346   3.809   3.260  1.6313  0.5669  0.0819
 9376TIP3   OH249542   1.772   5.824   2.966 -0.6133  0.0838 -0.1703
 9376TIP3    H149543   1.709   5.887   3.000 -0.0958  0.8617 -0.6330
 9376TIP3    H249544   1.774   5.755   3.032  0.0536  1.3519  1.2084
 9377TIP3   OH249545   3.987   5.845   0.012  0.3809  0.1403  0.3883
 9377TIP3    H149546   3.945   5.784  -0.048  0.9690  0.4833 -0.3788
 9377TIP3    H249547   4.039   5.789   0.070 -0.7184 -0.2453  1.0340
 9378TIP3   OH249548   5.988   1.409  14.044  0.1542 -0.4452 -0.5730
 9378TIP3    H149549   6.022   1.326  14.079 -1.1918 -1.1863 -0.9369
 9378TIP3    H249550   6.056   1.439  13.984  1.5768 -0.2138  1.0526
 9379TIP3   OH249551   4.823   1.920  16.230  0.3734  0.7856  0.2967
 9379TIP3    H149552   4.855   1.846  16.178 -1.6054 -1.3485  1.8851
 9379TIP3    H249553   4.897   1.981  16.233  1.7277 -0.5668 -2.0205
 9380TIP3   OH249554   1.242   6.253  13.396  0.0986 -0.4945  0.3114
 9380TIP3    H149555   1.230   6.346  13.375 -1.4593 -0.6500  0.3990
 9380TIP3    H249556   1.337   6.242  13.404  0.4358  0.6869 -1.5089
 9381TIP3   OH249557   3.507   3.720  14.393 -0.2348 -0.1880 -0.1854
 9381TIP3    H149558   3.449   3.645  14.408 -1.4100  0.7425  0.0964
 9381TIP3    H249559   3.579   3.685  14.340 -1.4464 -1.2230 -1.2241
 9382TIP3   OH249560   3.874   0.843   1.579 -0.6561  0.0546  0.3058
 9382TIP3    H149561   3.946   0.875   1.633 -0.7018  0.9515 -0.1534
 9382TIP3    H249562   3.838   0.769   1.628 -0.0806  0.2474  1.0294
 9383TIP3   OH249563   0.939   5.505  14.882  0.4941  0.3371  0.5114
 9383TIP3    H149564   0.981   5.524  14.966  0.0261  0.8568  0.6366
 9383TIP3    H249565   0.875   5.437  14.902 -0.0953  0.9411  0.7238
 9384TIP3   OH249566   5.148   4.912  15.506 -0.2169 -0.0322  0.0933
 9384TIP3    H149567   5.077   4.936  15.448  1.1350 -0.5386 -1.8700
 9384TIP3    H249568   5.172   4.823  15.480 -0.8531 -1.1164  2.8041
 9385TIP3   OH249569   1.852   5.276   3.571  0.2361  0.4535 -0.6256
 9385TIP3    H149570   1.764   5.261   3.605 -0.3196  0.1816 -2.1179
 9385TIP3    H249571   1.905   5.206   3.610  0.2244  1.5731  1.6072
 9386TIP3   OH249572   4.780   3.887  13.967  0.3171 -0.5466  0.2619
 9386TIP3    H149573   4.742   3.925  13.888  0.2490 -2.0812 -0.4737
 9386TIP3    H249574   4.781   3.960  14.030 -0.5674  0.4394 -0.8089
 9387TIP3   OH249575   1.294   1.899   5.293  0.7336  0.0739 -0.0413
 9387TIP3    H149576   1.363   1.853   5.244  1.1358 -1.6787  2.0446
 9387TIP3    H249577   1.303   1.867   5.383  0.3254  3.4940  1.3497
 9388TIP3   OH249578   0.746   0.963   0.792 -0.3854  0.5402 -0.0503
 9388TIP3    H149579   0.699   0.882   0.811 -0.2412  0.5996  0.6015
 9388TIP3    H249580   0.683   1.018   0.746 -1.4410  1.1336  1.9553
 9389TIP3   OH249581   0.909   4.207   2.305  0.1315  0.2540  0.0939
 9389TIP3    H149582   0.853   4.284   2.317  1.0589  1.3631 -1.9923
 9389TIP3    H249583   0.962   4.229   2.228  0.7339 -2.3221 -0.3102
 9390TIP3   OH249584   5.816   4.980   0.956 -0.0763 -0.3328  0.8709
 9390TIP3    H149585   5.779   4.939   0.877 -0.1462 -1.4286  1.4531
 9390TIP3    H249586   5.742   5.023   0.998 -0.1778 -0.3414  0.7013
 9391TIP3   OH249587   5.086   0.560   3.369  0.7459  0.1190  0.2292
 9391TIP3    H149588   5.172   0.526   3.346 -0.0751 -1.8130 -0.1331
 9391TIP3    H249589   5.062   0.512   3.448 -0.3968 -0.0341 -0.2035
 9392TIP3   OH249590   5.436   0.442   1.664  0.6382 -0.2826  0.3038
 9392TIP3    H149591   5.447   0.519   1.608 -1.1078  1.2419  1.8825
 9392TIP3    H249592   5.473   0.469   1.749 -0.8311 -0.7818  1.1421
 9393TIP3   OH249593   1.137   6.391   0.081 -0.0498 -0.3141 -0.7849
 9393TIP3    H149594   1.056   6.402   0.131  0.2161  0.2366 -0.4669
 9393TIP3    H249595   1.204   6.374   0.147 -0.5399 -5.1458 -1.2158
 9394TIP3   OH249596   2.707   4.384  10.644 -0.0376 -0.3653 -0.1202
 9394TIP3    H149597   2.769   4.451  10.618 -2.0138  0.6094 -2.7828
 9394TIP3    H249598   2.657   4.424  10.715 -0.0825  0.3640 -0.5475
 9395TIP3   OH249599   5.036   0.857  12.990  0.1138  0.3283 -0.3594
 9395TIP3    H149600   5.119   0.816  12.967 -0.8096 -2.6116  1.0072
 9395TIP3    H249601   4.983   0.851  12.910  0.3109 -0.3327 -0.4462
 9396TIP3   OH249602   0.088   2.945   2.840 -0.0325 -0.2925  0.3033
 9396TIP3    H149603   0.044   3.028   2.858 -0.2294  0.2489 -2.2359
 9396TIP3    H249604   0.134   2.960   2.757  2.1768 -1.9081  1.1278
 9397TIP3   OH249605   1.238   4.173  14.106  0.1047 -0.3301 -0.0511
 9397TIP3    H149606   1.206   4.117  14.177  0.6111 -1.2791 -0.5528
 9397TIP3    H249607   1.303   4.229  14.148 -1.8180  1.3463  0.8908
 9398TIP3   OH249608   1.193   1.382  11.139 -0.6644  0.2671 -0.5350
 9398TIP3    H149609   1.251   1.427  11.200 -1.4938 -1.8215  1.9543
 9398TIP3    H249610   1.252   1.337  11.078  0.1975  1.6185 -0.7300
 9399TIP3   OH249611   1.608   1.315   1.952 -0.2708  0.2262  0.3773
 9399TIP3    H149612   1.655   1.287   1.874 -1.6703 -1.6930  0.1548
 9399TIP3    H249613   1.592   1.408   1.939  1.5932  0.4670 -0.4772
 9400TIP3   OH249614   1.416   5.058   1.113 -0.0884 -0.9695 -0.3694
 9400TIP3    H149615   1.375   5.105   1.186 -0.9652  0.6724 -1.8525
 9400TIP3    H249616   1.379   4.970   1.118 -2.0640 -0.1836 -0.2533
 9401TIP3   OH249617   0.565   1.118   4.734  0.1607  0.4430  0.1357
 9401TIP3    H149618   0.522   1.147   4.815  2.5593 -0.3912  1.8448
 9401TIP3    H249619   0.639   1.178   4.723  0.2665  0.1223 -1.0601
 9402TIP3   OH249620   6.256   4.287  16.421 -0.1723 -0.1651  0.1579
 9402TIP3    H149621   6.166   4.257  16.432 -0.1830 -0.3447 -0.3775
 9402TIP3    H249622   6.266   4.297  16.326  0.6321 -0.9566  0.1443
 9403TIP3   OH249623   4.893   2.272   0.948  0.2090  0.2916  0.9464
 9403TIP3    H149624   4.897   2.361   0.984  0.4393  0.3192  0.8527
 9403TIP3    H249625   4.978   2.260   0.906 -0.1333  0.3369  0.2292
 9404TIP3   OH249626   0.406   6.025  13.857 -0.2682 -0.8659  0.2612
 9404TIP3    H149627   0.492   5.987  13.836 -0.0254 -0.6567  0.8713
 9404TIP3    H249628   0.401   6.023  13.952 -0.9842 -0.9619  0.2277
 9405TIP3   OH249629   1.446   3.458   2.171  0.2989  0.0887  0.5411
 9405TIP3    H149630   1.413   3.510   2.244 -2.5899 -0.8746  0.0322
 9405TIP3    H249631   1.485   3.523   2.112  0.6668  1.1258  1.8735
 9406TIP3   OH249632   5.415   2.878   4.066 -0.5940  0.0599 -0.1307
 9406TIP3    H149633   5.377   2.797   4.101 -0.1619 -0.4435 -0.8085
 9406TIP3    H249634   5.390   2.946   4.130  0.8501 -0.9444  1.5754
 9407TIP3   OH249635   3.440   4.748  16.622  0.2407  0.1672  0.2385
 9407TIP3    H149636   3.403   4.744  16.534  0.7983 -1.0241  0.0413
 9407TIP3    H249637   3.377   4.702  16.677 -0.2207  1.1064  0.5254
 9408TIP3   OH249638   5.342   0.925   0.466  0.2016 -0.2889  0.0088
 9408TIP3    H149639   5.371   0.979   0.540  1.0288 -0.7759  0.0458
 9408TIP3    H249640   5.417   0.924   0.406 -0.1433 -0.6354 -0.4194
 9409TIP3   OH249641   2.406   6.312  16.369 -0.3644 -0.9698 -0.2858
 9409TIP3    H149642   2.340   6.380  16.386 -2.2150 -2.2341 -1.9835
 9409TIP3    H249643   2.389   6.284  16.279  2.1242 -1.8103 -0.5501
 9410TIP3   OH249644   2.655   4.728   0.521  0.2819  0.1603 -0.3431
 9410TIP3    H149645   2.630   4.808   0.567  1.7823  0.0713  0.7192
 9410TIP3    H249646   2.589   4.663   0.547 -0.3698  0.7894 -0.4122
 9411TIP3   OH249647   2.569   4.301   1.437  0.5466 -0.0659 -0.8211
 9411TIP3    H149648   2.599   4.248   1.511 -0.2761  1.0633  0.3763
 9411TIP3    H249649   2.597   4.390   1.459 -1.6455  0.6594 -0.7368
 9412TIP3   OH249650   6.667   1.363  12.986 -0.0283 -0.0280 -0.1617
 9412TIP3    H149651   6.601   1.399  12.927  1.4242  1.1815 -1.1059
 9412TIP3    H249652   6.717   1.301  12.933  1.6828  1.5257 -0.4313
 9413TIP3   OH249653   6.202   3.956  15.948  0.2350  0.0616 -0.3538
 9413TIP3    H149654   6.139   3.890  15.922  1.3792 -0.5057 -1.7949
 9413TIP3    H249655   6.272   3.907  15.991  0.4818  0.4975 -0.2515
 9414TIP3   OH249656   3.999   4.250  15.035  0.5728  0.3004  0.1883
 9414TIP3    H149657   3.942   4.174  15.044 -0.3381  0.9157 -0.1637
 9414TIP3    H249658   4.081   4.224  15.076  0.9046 -1.5020 -1.4756
 9415TIP3   OH249659   4.137   2.130  11.597 -0.0271  0.2508  0.1698
 9415TIP3    H149660   4.091   2.047  11.586 -0.4778  0.5385 -0.1393
 9415TIP3    H249661   4.179   2.122  11.683  0.6496 -0.6338 -0.2295
 9416TIP3   OH249662   3.648   1.276  15.090 -0.1071  0.2095 -0.3690
 9416TIP3    H149663   3.571   1.228  15.118  0.8843 -1.0608  0.2840
 9416TIP3    H249664   3.673   1.236  15.006  0.2823  0.0972 -0.2011
 9417TIP3   OH249665   5.579   0.881  17.250 -0.0351 -0.5128  0.6509
 9417TIP3    H149666   5.504   0.927  17.212 -0.0194  0.4722  1.7488
 9417TIP3    H249667   5.542   0.800  17.284 -0.7154  0.1525  1.5671
 9418TIP3   OH249668   6.513   1.413  16.177  0.6049  0.3928 -0.7394
 9418TIP3    H149669   6.426   1.402  16.140  0.6760  2.2602 -1.5884
 9418TIP3    H249670   6.571   1.418  16.101  1.7596 -2.5779 -0.1620
 9419TIP3   OH249671   1.851   4.086  11.752 -0.0100  0.0657 -1.1004
 9419TIP3    H149672   1.894   4.038  11.681  0.6390 -2.1525  0.6901
 9419TIP3    H249673   1.852   4.026  11.826 -2.9447  1.3289  0.1232
 9420TIP3   OH249674   6.022   3.919   1.701  0.5240 -0.2132 -0.2279
 9420TIP3    H149675   5.967   3.996   1.686  0.5745 -0.2151 -0.4254
 9420TIP3    H249676   5.978   3.872   1.771  0.4464 -0.0476 -0.1635
 9421TIP3   OH249677   5.900   6.476  14.100  0.3228  0.8093  0.3470
 9421TIP3    H149678   5.818   6.506  14.062  0.2794  0.2117 -0.0535
 9421TIP3    H249679   5.874   6.429  14.179  0.3416  1.2978  0.6420
 9422TIP3   OH249680   4.610   3.573  12.836  0.6554 -0.3892  0.0108
 9422TIP3    H149681   4.674   3.571  12.907  1.0018 -1.1889 -0.3131
 9422TIP3    H249682   4.643   3.510  12.772  0.2766  0.2242 -0.8054
 9423TIP3   OH249683   0.160   6.422   4.915 -0.7659 -0.1891  0.5622
 9423TIP3    H149684   0.185   6.505   4.957 -0.2219 -0.2736  0.4151
 9423TIP3    H249685   0.243   6.383   4.889 -0.9622 -1.1889  1.3912
 9424TIP3   OH249686   2.857   2.378   1.454  0.0984  0.2913 -0.4716
 9424TIP3    H149687   2.859   2.301   1.509  0.0917 -0.5804 -1.6479
 9424TIP3    H249688   2.893   2.349   1.370  0.9291  1.7872 -0.6810
 9425TIP3   OH249689   3.346   6.195  14.181  0.7308 -0.4595 -0.7015
 9425TIP3    H149690   3.365   6.247  14.259  1.3296 -1.6284 -0.0353
 9425TIP3    H249691   3.384   6.109  14.199  2.4984 -0.2784 -2.9949
 9426TIP3   OH249692   6.511   2.909   2.906  0.1417 -0.1733 -0.4115
 9426TIP3    H149693   6.520   2.882   2.814 -0.6789 -1.0811 -0.2484
 9426TIP3    H249694   6.418   2.928   2.916  0.0644 -0.9420  0.4436
 9427TIP3   OH249695   5.543   4.840   1.741 -0.2163 -0.4169  0.6102
 9427TIP3    H149696   5.498   4.756   1.756 -0.1754 -0.3598  1.0506
 9427TIP3    H249697   5.476   4.896   1.701 -0.2094 -0.6981  0.1959
 9428TIP3   OH249698   3.602   2.331   0.257 -0.0281 -0.1382  0.3452
 9428TIP3    H149699   3.541   2.315   0.329 -0.6638 -0.3580 -0.2414
 9428TIP3    H249700   3.603   2.426   0.247  0.0284 -0.1102  0.6074
 9429TIP3   OH249701   1.952   6.590  12.307 -0.4468 -0.5041  0.4100
 9429TIP3    H149702   1.997   6.664  12.348 -1.6213  0.1827  0.5091
 9429TIP3    H249703   1.978   6.593  12.215  0.4206 -0.6937  0.6309
 9430TIP3   OH249704   4.599   1.343   1.434 -0.3333  0.5421 -0.0292
 9430TIP3    H149705   4.634   1.365   1.520  0.2575  1.0755 -0.3920
 9430TIP3    H249706   4.645   1.402   1.374 -0.8538  0.2903 -0.6906
 9431TIP3   OH249707   4.610   5.772  16.195  0.2336 -0.3177  0.0590
 9431TIP3    H149708   4.588   5.679  16.197  2.1241 -0.8123  1.3316
 9431TIP3    H249709   4.590   5.803  16.284 -1.4637  0.8109 -0.6788
 9432TIP3   OH249710   0.220   5.888   1.914 -0.0420  0.3041 -0.3207
 9432TIP3    H149711   0.272   5.815   1.947  0.9790  1.4162  0.6355
 9432TIP3    H249712   0.258   5.910   1.830  0.7754  0.8218  0.1717
 9433TIP3   OH249713   1.020   2.061  15.414  0.1712  0.1343 -0.5363
 9433TIP3    H149714   0.956   2.010  15.462  1.1271 -1.8121 -1.2105
 9433TIP3    H249715   1.039   2.009  15.336  0.3530  2.0971 -1.8861
 9434TIP3   OH249716   5.328   4.896   6.972  0.2952  0.1043  0.0688
 9434TIP3    H149717   5.359   4.896   6.882 -1.0487  1.7044 -0.4333
 9434TIP3    H249718   5.241   4.857   6.967  0.4511 -0.3644  0.7955
 9435TIP3   OH249719   6.262   6.699   2.711 -0.1535 -0.5094  0.3804
 9435TIP3    H149720   6.217   6.774   2.672 -1.0494 -1.7274 -1.0671
 9435TIP3    H249721   6.264   6.634   2.641  3.1736 -0.8549  0.6679
 9436TIP3   OH249722   4.151   3.384  14.050  0.0904  0.2005 -0.2215
 9436TIP3    H149723   4.091   3.441  14.002 -0.0970  0.0922 -0.1176
 9436TIP3    H249724   4.099   3.306  14.070 -0.3321  0.8924  1.5424
 9437TIP3   OH249725   1.588   3.681  14.021 -0.2207 -0.6943  0.2917
 9437TIP3    H149726   1.519   3.619  13.997  0.8931 -2.0804  0.5347
 9437TIP3    H249727   1.564   3.711  14.109 -0.2453 -1.5748  0.5931
 9438TIP3   OH249728   3.990   6.312   3.471 -0.5555  0.3880 -0.8858
 9438TIP3    H149729   3.976   6.381   3.407 -0.5242  0.1190 -1.1806
 9438TIP3    H249730   4.073   6.272   3.446 -0.7092  0.0645 -0.8752
 9439TIP3   OH249731   1.448   6.427  16.288  0.1939  0.0724 -0.3762
 9439TIP3    H149732   1.516   6.417  16.354  1.2625  1.0502 -1.2705
 9439TIP3    H249733   1.384   6.486  16.327 -0.0138 -0.6316  0.3685
 9440TIP3   OH249734   6.290   6.248  15.143  0.3480 -0.1307 -0.1141
 9440TIP3    H149735   6.380   6.232  15.174  0.4443 -0.2290 -0.4378
 9440TIP3    H249736   6.294   6.230  15.049  0.0251  0.0228 -0.1585
 9441TIP3   OH249737   0.412   5.157   4.997  0.3649  0.4100  0.0069
 9441TIP3    H149738   0.453   5.116   5.074  0.5726 -1.0087 -0.8267
 9441TIP3    H249739   0.325   5.118   4.994 -0.3096  1.8347  0.5508
 9442TIP3   OH249740   3.871   3.158  14.827 -0.5874  0.0418  0.6596
 9442TIP3    H149741   3.859   3.219  14.899  2.2625 -0.8891  2.0634
 9442TIP3    H249742   3.912   3.210  14.758  0.0464  0.1430  1.1086
 9443TIP3   OH249743   1.956   0.621  16.114 -0.1522  0.0464 -0.3675
 9443TIP3    H149744   2.037   0.618  16.062 -1.1759 -2.3321 -1.9874
 9443TIP3    H249745   1.969   0.556  16.183 -0.6405 -0.2148 -0.5237
 9444TIP3   OH249746   4.091   4.415  14.805 -0.5472 -0.7815 -0.0764
 9444TIP3    H149747   4.068   4.360  14.880 -0.9757  0.0425  0.4174
 9444TIP3    H249748   4.124   4.354  14.739 -3.2603 -1.9627 -0.4707
 9445TIP3   OH249749   3.859   4.559   4.305 -0.6285 -0.0025 -0.1614
 9445TIP3    H149750   3.935   4.529   4.355 -0.5519  0.9407  0.3030
 9445TIP3    H249751   3.862   4.507   4.224 -0.4444 -1.1555  0.5650
 9446TIP3   OH249752   4.477   0.772  15.769  0.3945  0.1097 -0.3677
 9446TIP3    H149753   4.427   0.840  15.724  0.2889 -0.5335 -1.2514
 9446TIP3    H249754   4.463   0.790  15.862  2.6547  2.9971 -0.4404
 9447TIP3   OH249755   2.551   2.451   3.284 -0.2325 -0.3633 -0.4994
 9447TIP3    H149756   2.631   2.399   3.280  1.2598  1.8045 -0.3391
 9447TIP3    H249757   2.523   2.458   3.192  0.0600 -0.6833 -0.6148
 9448TIP3   OH249758   2.518   1.524   0.800  0.0567  0.2134  0.4174
 9448TIP3    H149759   2.595   1.556   0.846 -0.0701  0.2895  0.5792
 9448TIP3    H249760   2.450   1.518   0.867 -0.1512  0.4044  0.2283
 9449TIP3   OH249761   1.957   5.666   2.726 -0.2811 -0.9656 -0.1770
 9449TIP3    H149762   1.947   5.620   2.642 -2.0184 -1.0640  0.0475
 9449TIP3    H249763   1.874   5.649   2.772 -0.8083  1.9646  0.1178
 9450TIP3   OH249764   1.063   2.419  15.150 -0.5028 -0.0545  0.0829
 9450TIP3    H149765   1.138   2.430  15.208 -1.7705 -0.4014  1.8904
 9450TIP3    H249766   1.100   2.420  15.062  1.3024  2.6060  0.7312
 9451TIP3   OH249767   1.621   4.289   3.789  0.1189 -0.1241 -0.2635
 9451TIP3    H149768   1.661   4.209   3.755 -1.2242 -1.7760  1.7665
 9451TIP3    H249769   1.528   4.280   3.768 -0.2049  0.4291  0.8547
 9452TIP3   OH249770   0.732   4.008   2.552 -0.4222 -0.0441  0.2768
 9452TIP3    H149771   0.703   4.057   2.629 -1.3284 -0.8049  0.4320
 9452TIP3    H249772   0.811   4.054   2.523  0.9800 -0.7661  2.7001
 9453TIP3   OH249773   3.617   6.184   1.486  0.0896 -0.3020 -0.0087
 9453TIP3    H149774   3.695   6.198   1.538 -0.2111  1.2124  0.0575
 9453TIP3    H249775   3.641   6.211   1.398 -0.3280  0.0579 -0.0130
 9454TIP3   OH249776   5.128   6.165  12.965  0.2107 -0.5033  0.0749
 9454TIP3    H149777   5.205   6.127  13.007 -0.1942 -1.1412  0.2541
 9454TIP3    H249778   5.055   6.137  13.021 -0.3205 -1.2286 -0.9532
 9455TIP3   OH249779   0.988   6.236  15.573 -0.1001  0.2589 -0.0564
 9455TIP3    H149780   0.971   6.218  15.665  0.0622  0.0248 -0.0721
 9455TIP3    H249781   0.929   6.309  15.552 -0.3582  0.1135  0.1513
 9456TIP3   OH249782   6.622   5.290  12.709  0.0732 -0.2733  0.0790
 9456TIP3    H149783   6.670   5.215  12.674  1.2454  0.3186  0.3525
 9456TIP3    H249784   6.651   5.364  12.654 -1.0953 -0.0204 -0.2211
 9457TIP3   OH249785   3.093   5.680   1.898  0.1615  0.1743  0.1958
 9457TIP3    H149786   3.053   5.760   1.931  1.7084  0.9681  0.2742
 9457TIP3    H249787   3.134   5.640   1.974 -2.0922 -1.6980  0.5233
 9458TIP3   OH249788   3.363   0.486  14.963 -0.2856  0.3011  0.1660
 9458TIP3    H149789   3.357   0.394  14.989  2.4231  0.9499  3.9783
 9458TIP3    H249790   3.429   0.488  14.893 -0.8176 -0.6929 -0.3691
 9459TIP3   OH249791   3.490   0.375   5.507 -0.1576 -0.0253 -0.2846
 9459TIP3    H149792   3.559   0.421   5.555 -1.0322  0.2046  0.7712
 9459TIP3    H249793   3.411   0.388   5.558 -0.6226 -1.9842 -0.3982
 9460TIP3   OH249794   5.164   1.296   2.922 -0.0759 -0.1673  0.3521
 9460TIP3    H149795   5.258   1.295   2.939  0.3257 -0.0444 -1.6199
 9460TIP3    H249796   5.143   1.388   2.907 -0.5916 -0.1532  1.0996
 9461TIP3   OH249797   1.820   0.371   2.582 -0.0433 -0.0717  0.0727
 9461TIP3    H149798   1.846   0.407   2.497  1.0496  0.9043  0.7998
 9461TIP3    H249799   1.769   0.293   2.560  0.1389  0.2148 -1.4794
 9462TIP3   OH249800   4.315   1.940  16.863 -0.0744  0.4654  0.3369
 9462TIP3    H149801   4.239   1.886  16.841  0.0097  0.2657  0.5360
 9462TIP3    H249802   4.341   1.911  16.951  0.7249 -0.0244 -0.0569
 9463TIP3   OH249803   6.711   6.077   5.526 -0.1309  0.7055 -0.4909
 9463TIP3    H149804   6.649   6.004   5.527  0.6770  0.0008 -1.0383
 9463TIP3    H249805   6.661   6.149   5.487 -1.4075  0.9146  1.4069
 9464TIP3   OH249806   5.761   4.500   4.138  0.3317 -0.0433  0.4047
 9464TIP3    H149807   5.816   4.500   4.217  1.0088  1.0751 -0.0431
 9464TIP3    H249808   5.714   4.583   4.142  0.9941  0.4089 -0.7738
 9465TIP3   OH249809   0.936   1.563  15.231  0.0893 -0.2416 -0.0835
 9465TIP3    H149810   0.968   1.475  15.209 -0.1256 -0.6022  0.9794
 9465TIP3    H249811   0.983   1.621  15.171  1.2345 -0.9564  0.0820
 9466TIP3   OH249812   3.742   3.226   4.392 -0.6031 -0.1620 -0.2861
 9466TIP3    H149813   3.729   3.277   4.472  0.1126 -0.2264 -0.1245
 9466TIP3    H249814   3.829   3.251   4.361  0.3455 -2.2250  0.5170
 9467TIP3   OH249815   5.892   4.978  16.456  0.0565  0.3530 -0.3296
 9467TIP3    H149816   5.865   5.070  16.449  0.1912  0.3605 -0.8548
 9467TIP3    H249817   5.812   4.930  16.475 -0.1081  0.5247 -0.5802
 9468TIP3   OH249818   2.541   5.184   3.870  0.5078  0.0047  0.0390
 9468TIP3    H149819   2.508   5.109   3.920 -1.0259 -0.8025 -2.0335
 9468TIP3    H249820   2.493   5.259   3.906  0.0849 -0.4134  0.3655
 9469TIP3   OH249821   1.066   3.707  13.420 -0.5807  0.5240  0.0591
 9469TIP3    H149822   1.069   3.690  13.326  0.1069 -2.1652  0.4907
 9469TIP3    H249823   1.106   3.793  13.429 -1.0025  1.0144 -2.1248
 9470TIP3   OH249824   6.230   1.748   3.834 -0.1570 -0.0631 -0.0143
 9470TIP3    H149825   6.235   1.667   3.885  3.5563  0.3142  0.4493
 9470TIP3    H249826   6.187   1.811   3.892  0.8098 -0.5845  1.3066
 9471TIP3   OH249827   0.965   6.175  11.422  0.1910 -0.3833 -0.0862
 9471TIP3    H149828   1.030   6.163  11.492 -0.5972  0.1377  0.7503
 9471TIP3    H249829   1.017   6.202  11.346  0.8625  1.0449  0.8400
 9472TIP3   OH249830   3.389   6.447   1.319  0.1269  0.6640  0.4129
 9472TIP3    H149831   3.444   6.394   1.262  0.0567  1.4712 -0.4386
 9472TIP3    H249832   3.302   6.406   1.315  0.5228 -0.2890  1.3224
 9473TIP3   OH249833   2.985   2.758  14.142  0.5253  0.3766  0.4431
 9473TIP3    H149834   2.929   2.798  14.075  2.2237  2.2914  0.0825
 9473TIP3    H249835   2.945   2.673  14.158 -1.2193  0.7700 -1.3713
 9474TIP3   OH249836   4.174   4.818  17.063  0.1741  0.0391  0.0383
 9474TIP3    H149837   4.200   4.900  17.023  0.2821 -0.2379 -0.4625
 9474TIP3    H249838   4.228   4.752  17.021 -0.9870 -0.4919 -0.6774
 9475TIP3   OH249839   5.724   5.190  15.692  0.0964  1.1102 -0.6035
 9475TIP3    H149840   5.744   5.097  15.694 -2.5001  0.5018 -0.4176
 9475TIP3    H249841   5.810   5.233  15.686  1.6866 -1.0954  3.2584
 9476TIP3   OH249842   5.575   1.040   1.840  0.2337  0.1084 -0.9353
 9476TIP3    H149843   5.648   1.049   1.779 -0.1848 -0.7652 -1.5912
 9476TIP3    H249844   5.603   0.971   1.901 -0.0018 -0.1674 -1.1360
 9477TIP3   OH249845   5.449   1.872   0.507  0.1102  0.0241 -0.2015
 9477TIP3    H149846   5.433   1.905   0.419 -0.9086  2.8136  0.9188
 9477TIP3    H249847   5.370   1.823   0.529  0.4702 -0.8924 -0.8856
 9478TIP3   OH249848   1.465   6.311   4.739  0.1718  0.2593  0.0500
 9478TIP3    H149849   1.486   6.218   4.744  1.3065  0.4292 -1.1309
 9478TIP3    H249850   1.463   6.341   4.830 -0.1194 -0.8807  0.4342
 9479TIP3   OH249851   3.565   2.834   1.373  0.8981  0.0592 -0.7211
 9479TIP3    H149852   3.590   2.884   1.451  0.7131 -0.0049 -0.6184
 9479TIP3    H249853   3.559   2.744   1.403 -0.3977  0.1930 -0.4990
 9480TIP3   OH249854   0.304   5.361  15.024 -0.0390  0.0558  0.6324
 9480TIP3    H149855   0.258   5.304  15.086  1.8866 -0.8186  1.3122
 9480TIP3    H249856   0.281   5.449  15.052 -2.0302 -0.3290  0.3616
 9481TIP3   OH249857   4.396   0.637   1.728  0.0835 -0.7674  0.0120
 9481TIP3    H149858   4.372   0.554   1.688  0.4029 -0.2463 -1.3318
 9481TIP3    H249859   4.482   0.621   1.767 -0.3468 -1.3602  0.7093
 9482TIP3   OH249860   1.144   1.751   1.691  0.6032 -0.2209  0.4055
 9482TIP3    H149861   1.192   1.742   1.773  0.3966  1.3403  0.7375
 9482TIP3    H249862   1.067   1.804   1.714 -0.9463 -2.0565 -0.2409
 9483TIP3   OH249863   6.236   4.251   2.837  1.0833  0.3127  0.0540
 9483TIP3    H149864   6.146   4.231   2.812  0.7682  1.4129  0.2289
 9483TIP3    H249865   6.281   4.268   2.754  0.4780  2.2332  0.0687
 9484TIP3   OH249866   4.936   2.794   3.573  0.5223  0.5069  0.2484
 9484TIP3    H149867   4.928   2.702   3.600  1.4100  0.7501  1.3913
 9484TIP3    H249868   4.987   2.791   3.493  0.4161 -0.0077  0.1967
 9485TIP3   OH249869   3.058   6.162  16.904 -0.5679  0.2213  0.4966
 9485TIP3    H149870   3.060   6.083  16.850  0.6412  0.8619 -0.4629
 9485TIP3    H249871   2.965   6.182  16.916 -0.8783  0.2708 -1.6979
 9486TIP3   OH249872   2.201   5.724   2.595 -0.4290 -0.2873  0.4830
 9486TIP3    H149873   2.113   5.719   2.632 -0.4522 -1.0538  0.3282
 9486TIP3    H249874   2.215   5.639   2.554 -0.0143  0.1830 -0.3939
 9487TIP3   OH249875   0.244   2.949  11.768 -0.3597  0.2227 -0.0728
 9487TIP3    H149876   0.204   2.952  11.855 -0.0264  0.9296  0.0610
 9487TIP3    H249877   0.301   3.025  11.765 -1.6858  1.2146 -1.5556
 9488TIP3   OH249878   6.462   5.743   5.943  0.3021  0.4692 -0.1978
 9488TIP3    H149879   6.400   5.814   5.926 -0.3062 -0.3041 -1.3339
 9488TIP3    H249880   6.419   5.665   5.908  1.0552 -0.4317  0.8201
 9489TIP3   OH249881   4.158   0.484   0.727  0.0028 -0.1545 -0.0326
 9489TIP3    H149882   4.156   0.575   0.697 -0.4767 -0.3111 -0.4918
 9489TIP3    H249883   4.157   0.432   0.647 -0.7472 -0.5670  0.2304
 9490TIP3   OH249884   2.758   5.184  15.837  0.3550  0.3390  0.3713
 9490TIP3    H149885   2.755   5.088  15.836  2.6627  0.1673  1.6738
 9490TIP3    H249886   2.671   5.211  15.867 -1.3985 -1.1326 -2.9216
 9491TIP3   OH249887   4.871   3.243  17.105  0.7548  0.5452  0.0035
 9491TIP3    H149888   4.891   3.200  17.022  0.9502 -3.6587  1.9628
 9491TIP3    H249889   4.802   3.307  17.084 -0.2424 -1.3783 -3.1735
 9492TIP3   OH249890   6.047   5.644   1.033 -0.6163 -0.4243  0.3107
 9492TIP3    H149891   5.974   5.587   1.057  0.1452 -0.6585  2.3112
 9492TIP3    H249892   6.017   5.732   1.055 -0.1306 -0.5797  1.6914
 9493TIP3   OH249893   1.398   6.511   1.716 -0.0792  0.0301  0.6108
 9493TIP3    H149894   1.398   6.606   1.703 -0.3421 -0.0122  0.3102
 9493TIP3    H249895   1.458   6.477   1.649  0.6485  0.0520  1.2354
 9494TIP3   OH249896   6.625   1.129  16.447  0.1757 -0.7481 -0.4184
 9494TIP3    H149897   6.719   1.117  16.454  0.0099 -1.0856  2.0438
 9494TIP3    H249898   6.612   1.224  16.448  0.5133 -0.6502 -2.1087
 9495TIP3   OH249899   6.293   0.672   4.748  0.1730 -0.3100  0.5908
 9495TIP3    H149900   6.199   0.677   4.765  0.0490 -3.4875  1.5715
 9495TIP3    H249901   6.303   0.699   4.657 -2.1074 -2.2193 -0.3232
 9496TIP3   OH249902   1.982   2.829   4.264 -0.3588  0.8317 -0.3929
 9496TIP3    H149903   1.963   2.753   4.209  0.3607  0.6394 -0.3787
 9496TIP3    H249904   2.047   2.879   4.215  0.2958  0.6551  0.2822
 9497TIP3   OH249905   3.915   5.001  12.183  0.4645 -0.0466 -0.2674
 9497TIP3    H149906   4.005   4.983  12.210 -0.0321 -1.3981  0.5435
 9497TIP3    H249907   3.889   4.924  12.132 -1.1525 -1.0003  1.8735
 9498TIP3   OH249908   6.089   3.865   4.004  0.5502  0.3808  0.0872
 9498TIP3    H149909   6.023   3.833   4.066 -0.7736  0.9014 -1.0104
 9498TIP3    H249910   6.146   3.790   3.989  1.3833  0.4418  2.4937
 9499TIP3   OH249911   4.552   2.320   5.073  0.6016  0.2249  0.4670
 9499TIP3    H149912   4.488   2.319   5.001  0.5808 -0.2006  0.4932
 9499TIP3    H249913   4.593   2.406   5.066  0.7190  0.1219 -0.1632
 9500TIP3   OH249914   5.150   5.048  17.248 -0.4423 -0.2354 -0.0343
 9500TIP3    H149915   5.240   5.038  17.215 -1.0763 -0.6993 -1.7477
 9500TIP3    H249916   5.150   5.002  17.332  0.9157 -0.2227  0.0019
 9501TIP3   OH249917   4.712   6.035  14.418  0.6496  0.1359 -0.3619
 9501TIP3    H149918   4.632   6.079  14.391 -0.4664 -1.9251 -0.6192
 9501TIP3    H249919   4.747   5.997  14.337  2.1646  1.3546 -0.3326
 9502TIP3   OH249920   6.037   5.395  15.922  0.4138 -0.1225  0.3843
 9502TIP3    H149921   6.015   5.348  16.002 -0.9764 -1.6521 -0.7998
 9502TIP3    H249922   5.970   5.367  15.859 -0.1776  3.1058 -0.5819
 9503TIP3   OH249923   4.221   5.355  14.171  0.3105  0.2611 -0.0578
 9503TIP3    H149924   4.158   5.378  14.103 -0.8783  1.0942  1.2569
 9503TIP3    H249925   4.298   5.408  14.152  0.5753 -0.6119 -1.5664
 9504TIP3   OH249926   3.210   6.489   2.153 -0.1929 -0.1567  0.1555
 9504TIP3    H149927   3.242   6.578   2.159 -0.6246  0.1074 -1.1253
 9504TIP3    H249928   3.115   6.498   2.140 -0.0090 -0.6886 -1.9572
 9505TIP3   OH249929   1.508   4.764   3.726  0.0479 -0.7034 -0.5056
 9505TIP3    H149930   1.543   4.679   3.699 -0.4630 -0.8790 -0.6242
 9505TIP3    H249931   1.503   4.758   3.822  0.6492 -0.5497 -0.4556
 9506TIP3   OH249932   6.717   4.925  16.067 -0.2165  0.7460 -0.1566
 9506TIP3    H149933   6.623   4.930  16.053 -0.2748  3.5077  0.6774
 9506TIP3    H249934   6.747   5.016  16.066  2.5901 -0.0742 -1.1407
 9507TIP3   OH249935   1.033   2.491   0.297  0.4513  0.7081 -0.1564
 9507TIP3    H149936   0.937   2.484   0.294  0.3590  1.9605 -1.2492
 9507TIP3    H249937   1.063   2.401   0.307 -0.8433  0.3429  0.7753
 9508TIP3   OH249938   6.407   0.058   4.980  0.1377 -0.0974  0.0572
 9508TIP3    H149939   6.443   0.147   4.974 -2.4913  0.9975 -1.1624
 9508TIP3    H249940   6.431   0.016   4.898 -0.2986  0.2141 -0.2360
 9509TIP3   OH249941   1.560   5.724   0.271  0.4292 -0.6743 -0.7343
 9509TIP3    H149942   1.652   5.750   0.269  0.0549  0.8420  0.2901
 9509TIP3    H249943   1.515   5.790   0.219 -0.3523 -0.0734  0.6519
 9510TIP3   OH249944   4.418   3.407  13.966 -0.0912  0.0927  0.6303
 9510TIP3    H149945   4.492   3.466  13.947  0.4857 -0.1470  2.0174
 9510TIP3    H249946   4.342   3.465  13.971 -0.0289  0.3370 -0.8662
 9511TIP3   OH249947   4.315   4.540  14.199  0.0338 -0.3236  0.2528
 9511TIP3    H149948   4.400   4.573  14.170  0.1619 -0.1958  0.7701
 9511TIP3    H249949   4.255   4.614  14.188  0.5154  0.4243  2.3381
 9512TIP3   OH249950   1.353   0.976  13.861  0.5351  0.6071  0.3882
 9512TIP3    H149951   1.279   0.936  13.906 -1.4645  1.3666 -2.0310
 9512TIP3    H249952   1.417   0.906  13.852 -1.6712 -1.3400 -1.1972
 9513TIP3   OH249953   1.632   1.379   3.397  0.2883  0.0434  0.3092
 9513TIP3    H149954   1.604   1.411   3.311  0.9092 -0.5437 -0.1184
 9513TIP3    H249955   1.555   1.335   3.432  0.4101 -0.8847 -0.5318
 9514TIP3   OH249956   4.272   2.431  15.095 -0.1041 -0.0998 -0.5179
 9514TIP3    H149957   4.246   2.358  15.150 -2.7683 -2.2986 -4.2037
 9514TIP3    H249958   4.193   2.486  15.090 -0.4276 -0.6762 -2.9723
 9515TIP3   OH249959   3.887   0.529  14.344  0.4652 -0.0560 -0.5112
 9515TIP3    H149960   3.833   0.453  14.364  0.6823  0.0160  0.3952
 9515TIP3    H249961   3.912   0.518  14.252 -1.1436 -0.0468 -0.9789
 9516TIP3   OH249962   4.598   0.884   5.402  0.1066  0.4056 -0.3947
 9516TIP3    H149963   4.630   0.832   5.475  0.9352  1.0510 -0.2808
 9516TIP3    H249964   4.633   0.841   5.324  1.3650  1.1438 -0.2681
 9517TIP3   OH249965   1.978   4.332  10.602 -0.3577  0.4741 -0.0649
 9517TIP3    H149966   1.923   4.256  10.623  0.0230  0.7877  2.3208
 9517TIP3    H249967   2.039   4.339  10.675 -0.3800  3.0757 -0.1972
 9518TIP3   OH249968   6.327   4.092  15.748 -0.1075  0.5394  0.1467
 9518TIP3    H149969   6.256   4.064  15.805 -0.7773  0.3394 -0.7508
 9518TIP3    H249970   6.389   4.135  15.806 -0.6098  0.0645  1.0640
 9519TIP3   OH249971   0.498   6.619  15.164 -0.3298 -0.3001 -0.1805
 9519TIP3    H149972   0.432   6.575  15.110 -0.3798 -0.4016 -0.0356
 9519TIP3    H249973   0.569   6.556  15.170 -0.0138 -0.0112 -0.7314
 9520TIP3   OH249974   1.063   1.916  14.159  0.6377  0.3574 -0.6541
 9520TIP3    H149975   1.151   1.949  14.180  0.9903  0.1478 -1.7225
 9520TIP3    H249976   1.078   1.827  14.127 -0.1645 -0.3556  0.8492
 9521TIP3   OH249977   0.733   2.483  16.974  0.2665 -0.0760  0.0857
 9521TIP3    H149978   0.696   2.559  16.929  1.5597  0.3401 -0.3033
 9521TIP3    H249979   0.661   2.421  16.978 -0.0685  0.1056 -2.0239
 9522TIP3   OH249980   0.827   4.004  13.511 -0.6736  0.3927  0.6656
 9522TIP3    H149981   0.884   3.971  13.441  2.4752  1.8622  2.3111
 9522TIP3    H249982   0.847   3.949  13.587 -1.5877  0.8639  1.2696
 9523TIP3   OH249983   4.250   6.722   4.284 -0.0528 -0.1732 -0.5865
 9523TIP3    H149984   4.272   6.724   4.378 -0.8603 -1.1436 -0.3580
 9523TIP3    H249985   4.335   6.728   4.240  0.2448  2.8312  0.1085
 9524TIP3   OH249986   5.647   4.901   5.605 -0.0705 -0.6563  0.0307
 9524TIP3    H149987   5.715   4.969   5.596 -0.3597 -0.3651  0.0404
 9524TIP3    H249988   5.613   4.913   5.694 -0.0387 -0.8953  0.0759
 9525TIP3   OH249989   5.967   3.753   3.216 -0.0036  0.0550 -0.6812
 9525TIP3    H149990   6.058   3.732   3.194 -0.1849 -0.5330 -0.8863
 9525TIP3    H249991   5.938   3.680   3.271  0.6696  1.8387  2.2689
 9526TIP3   OH249992   3.369   2.736  14.452  1.0104  0.4059  0.0045
 9526TIP3    H149993   3.332   2.782  14.528  1.1011 -0.5113  0.6213
 9526TIP3    H249994   3.296   2.686  14.416  1.1367  0.2682 -0.0634
 9527TIP3   OH249995   6.192   4.009   1.298  0.1894  0.3709  0.2477
 9527TIP3    H149996   6.258   4.067   1.336  0.0701  0.7206 -0.0707
 9527TIP3    H249997   6.110   4.035   1.340  0.1449  0.3959  0.1451
 9528TIP3   OH249998   6.297   3.799  12.014  0.6572 -0.2192 -0.7250
 9528TIP3    H149999   6.330   3.737  12.080  1.2984 -0.0480 -0.8786
 9528TIP3    H250000   6.285   3.881  12.062  0.8578 -0.1697 -0.7577
 9529TIP3   OH250001   0.897   2.020  17.166  0.4347 -0.3183 -0.1565
 9529TIP3    H150002   0.918   2.040  17.258  0.6580  0.2143 -0.3165
 9529TIP3    H250003   0.805   1.996  17.167  0.0683  1.0131  0.0191
 9530TIP3   OH250004   6.535   3.070   3.853 -0.4202 -0.4792 -0.4144
 9530TIP3    H150005   6.479   3.145   3.871 -0.9372 -1.2712  1.4909
 9530TIP3    H250006   6.485   2.994   3.883  1.5867 -1.2213  1.2697
 9531TIP3   OH250007   2.050   3.866   1.472 -0.2313  0.3310 -0.1181
 9531TIP3    H150008   2.041   3.928   1.400  2.1427  1.2114  0.2684
 9531TIP3    H250009   2.137   3.829   1.461 -0.7684 -1.3482  0.9234
 9532TIP3   OH250010   1.684   6.262   5.133  0.2952  0.5282 -0.0147
 9532TIP3    H150011   1.713   6.195   5.071 -0.7077  1.1803 -1.2365
 9532TIP3    H250012   1.637   6.325   5.079 -2.7147 -0.0810  1.6716
 9533TIP3   OH250013   6.445   6.514  16.858  0.2935  0.4162 -0.4034
 9533TIP3    H150014   6.373   6.534  16.917  0.6302  0.0888  0.1283
 9533TIP3    H250015   6.447   6.418  16.853 -0.1119  0.4446 -1.4318
 9534TIP3   OH250016   3.689   4.464  16.830 -0.2274 -0.3675 -0.5641
 9534TIP3    H150017   3.675   4.524  16.903  1.0439 -1.2399  0.4356
 9534TIP3    H250018   3.639   4.386  16.853 -2.4262  0.4692 -2.1787
 9535TIP3   OH250019   4.200   2.231  13.267  0.6996 -0.3125 -0.3476
 9535TIP3    H150020   4.277   2.276  13.303  0.8687 -0.7473 -0.1644
 9535TIP3    H250021   4.145   2.213  13.344  0.9919 -1.1081 -0.3155
 9536TIP3   OH250022   4.611   4.794  13.635  0.4407 -0.2440 -0.0699
 9536TIP3    H150023   4.692   4.799  13.584  0.5259 -0.1291  0.0740
 9536TIP3    H250024   4.619   4.866  13.698 -0.3885  0.6596 -0.9502
 9537TIP3   OH250025   5.034   3.554   4.650 -0.0775 -0.3891 -0.5579
 9537TIP3    H150026   5.021   3.572   4.743 -1.4305  1.3887 -1.0462
 9537TIP3    H250027   4.990   3.626   4.605  2.3608 -0.0020 -2.5599
 9538TIP3   OH250028   5.037   1.849   6.342  0.1746 -0.0970 -0.3361
 9538TIP3    H150029   4.948   1.857   6.376  0.2027  0.3522 -0.3568
 9538TIP3    H250030   5.072   1.771   6.385  0.3017  0.5946  0.8619
 9539TIP3   OH250031   1.275   2.933  14.448 -0.3721 -0.2985  0.5683
 9539TIP3    H150032   1.344   2.958  14.387 -1.2241 -1.5306 -0.9863
 9539TIP3    H250033   1.266   3.009  14.506  1.4091  0.3733  0.0358
 9540TIP3   OH250034   1.754   2.107   1.682  0.3305  0.3506  0.1983
 9540TIP3    H150035   1.708   2.025   1.696  1.7665 -0.0985  3.1267
 9540TIP3    H250036   1.828   2.084   1.626  0.1705 -0.1340  0.1867
 9541TIP3   OH250037   4.390   4.458   4.000  0.4895  0.5116 -0.1743
 9541TIP3    H150038   4.330   4.430   4.069  2.1683 -1.1451  0.6845
 9541TIP3    H250039   4.394   4.553   4.008  0.2897  0.3929  1.7243
 9542TIP3   OH250040   1.038   3.417  16.844 -0.5130  0.4818  0.7602
 9542TIP3    H150041   1.057   3.493  16.788  0.7171 -0.1026  0.3453
 9542TIP3    H250042   1.008   3.349  16.783 -0.8698  0.3919  1.0313
 9543TIP3   OH250043   5.862   1.518   2.057 -0.1692 -0.1899 -0.2750
 9543TIP3    H150044   5.887   1.531   2.149 -3.0163 -0.8175  0.6693
 9543TIP3    H250045   5.909   1.439   2.031 -1.1755 -1.4278  1.4505
 9544TIP3   OH250046   3.851   3.395  15.011  0.5137  0.0740 -0.6857
 9544TIP3    H150047   3.927   3.452  15.021 -1.3808  2.4721  1.4545
 9544TIP3    H250048   3.803   3.432  14.937 -0.3658  0.9180  0.2718
 9545TIP3   OH250049   4.022   0.238  14.184 -0.3895 -0.0718 -0.1954
 9545TIP3    H150050   4.037   0.318  14.134 -0.1453 -0.9842 -1.6307
 9545TIP3    H250051   3.961   0.187  14.131  0.6769 -1.5271 -0.1042
 9546TIP3   OH250052   6.427   4.757  15.316 -0.2133  0.4283  0.0087
 9546TIP3    H150053   6.437   4.707  15.397 -0.5061 -0.0865 -0.2658
 9546TIP3    H250054   6.334   4.781  15.314 -0.1669  0.6053 -0.0787
 9547TIP3   OH250055   5.028   2.973  11.926  0.1372 -0.0325 -0.5006
 9547TIP3    H150056   5.110   2.976  11.977 -0.7920  4.0856  1.2012
 9547TIP3    H250057   4.965   3.018  11.982 -2.1056  0.9696 -3.6139
 9548TIP3   OH250058   3.233   5.377  17.127 -0.0399  0.4249  0.3048
 9548TIP3    H150059   3.194   5.321  17.060 -0.4132  1.8843 -0.7549
 9548TIP3    H250060   3.287   5.318  17.180 -0.6078 -0.9552 -0.5980
 9549TIP3   OH250061   1.648   1.822   2.368  0.5746 -0.2500  0.5582
 9549TIP3    H150062   1.678   1.758   2.304 -3.0579 -0.5338 -1.1154
 9549TIP3    H250063   1.710   1.895   2.359  1.6359 -1.2933 -1.4721
 9550TIP3   OH250064   2.324   1.652   4.139  0.4240  0.0668  0.1241
 9550TIP3    H150065   2.298   1.584   4.077  2.1773 -1.0619  0.5328
 9550TIP3    H250066   2.315   1.734   4.091 -1.0848 -0.5046 -0.6163
 9551TIP3   OH250067   1.433   2.746   0.207  0.3254  0.2299 -0.0676
 9551TIP3    H150068   1.378   2.694   0.266 -0.1975  0.1133 -0.6410
 9551TIP3    H250069   1.518   2.702   0.209  0.4050  0.4181  0.8382
 9552TIP3   OH250070   5.661   4.816  15.245 -0.2553  0.6984  0.1908
 9552TIP3    H150071   5.698   4.856  15.323 -1.1741 -0.6466  1.3692
 9552TIP3    H250072   5.707   4.732  15.237 -0.8673  0.3852 -0.1191
 9553TIP3   OH250073   2.113   3.063   4.704  0.3134 -0.2794  0.3664
 9553TIP3    H150074   2.189   3.028   4.659  0.5894  0.6347  0.1197
 9553TIP3    H250075   2.067   2.985   4.736  1.3007 -0.8408  0.4597
 9554TIP3   OH250076   5.252   6.158  13.291 -0.7491 -0.2165 -0.1985
 9554TIP3    H150077   5.303   6.123  13.217 -0.2131  0.4664 -0.1612
 9554TIP3    H250078   5.296   6.124  13.369  0.2847  1.1847 -0.1400
 9555TIP3   OH250079   1.885   1.980   0.233  0.3993 -0.3917 -0.1944
 9555TIP3    H150080   1.899   2.051   0.171  1.0752 -0.6767 -0.3708
 9555TIP3    H250081   1.868   2.024   0.316 -2.4296  0.0620 -0.8845
 9556TIP3   OH250082   0.640   4.236   5.080 -0.6133 -0.4650  0.1249
 9556TIP3    H150083   0.567   4.297   5.080 -1.2172 -1.1679 -0.0869
 9556TIP3    H250084   0.613   4.167   5.140 -0.0022 -0.5960  0.2547
 9557TIP3   OH250085   3.461   2.030   4.428  0.1928  0.0215  0.2106
 9557TIP3    H150086   3.399   1.995   4.364  1.6474  0.1014 -1.3065
 9557TIP3    H250087   3.439   2.123   4.434 -2.3997 -0.6003  2.7770
 9558TIP3   OH250088   6.640   2.797   3.117  0.5473 -0.1702  0.0424
 9558TIP3    H150089   6.700   2.871   3.125 -0.1138  0.3574  0.1910
 9558TIP3    H250090   6.582   2.821   3.044 -0.5785  0.1170  1.0087
 9559TIP3   OH250091   1.992   1.146  17.261 -0.4954  0.0182  0.1226
 9559TIP3    H150092   1.916   1.196  17.233 -1.2319 -0.9191  0.4076
 9559TIP3    H250093   2.003   1.169  17.353 -1.1503 -0.7203  0.3933
 9560TIP3   OH250094   3.737   6.319   5.159  0.0510 -0.1750 -0.0355
 9560TIP3    H150095   3.650   6.279   5.150 -1.2535  2.0873  1.3284
 9560TIP3    H250096   3.765   6.338   5.070 -1.3592 -0.0195 -0.4683
 9561TIP3   OH250097   5.569   3.825  12.398  0.0080  0.2805  0.0201
 9561TIP3    H150098   5.547   3.740  12.361  0.5345  0.0110  0.3054
 9561TIP3    H250099   5.634   3.861  12.337 -0.0797  0.3987 -0.0033
 9562TIP3   OH250100   0.637   0.201   1.924 -0.0698  0.1449 -0.6152
 9562TIP3    H150101   0.564   0.234   1.976  0.4584 -0.4954  0.5789
 9562TIP3    H250102   0.603   0.195   1.835 -1.3292  0.2918 -0.1595
 9563TIP3   OH250103   6.424   1.613  13.171  0.4382  0.1017  0.4386
 9563TIP3    H150104   6.465   1.614  13.258 -0.7561 -3.0200  1.1843
 9563TIP3    H250105   6.337   1.578  13.187 -0.3470  0.8772 -1.8674
 9564TIP3   OH250106   3.800   3.903   0.967  0.0731  0.3934 -0.1782
 9564TIP3    H150107   3.737   3.834   0.989 -0.2037  1.5786  3.4545
 9564TIP3    H250108   3.848   3.919   1.048  3.7258  1.0163 -2.2400
 9565TIP3   OH250109   0.757   0.984   2.385 -0.1234 -0.5328  0.7788
 9565TIP3    H150110   0.742   1.059   2.442  0.0041  1.8106 -2.0724
 9565TIP3    H250111   0.672   0.969   2.343  0.0003 -1.6367  0.8953
 9566TIP3   OH250112   5.354   4.615   3.794  0.0780  0.4010 -0.2310
 9566TIP3    H150113   5.421   4.622   3.862 -1.6316  0.6046  1.5058
 9566TIP3    H250114   5.364   4.696   3.743 -0.3921  1.6451  1.5380
 9567TIP3   OH250115   1.152   1.051  13.500 -0.2908  0.0840  0.1179
 9567TIP3    H150116   1.154   1.053  13.405  0.3078 -2.1135  0.0290
 9567TIP3    H250117   1.244   1.059  13.526 -0.4257  0.4231  0.4917
 9568TIP3   OH250118   6.535   6.691  17.058  0.7696  0.2877 -0.6453
 9568TIP3    H150119   6.534   6.629  17.131 -1.3976  0.0805 -0.7834
 9568TIP3    H250120   6.526   6.636  16.980 -2.8643  0.6765 -0.6986
 9569TIP3   OH250121   2.571   5.376   5.112  0.0184  0.4855 -0.2820
 9569TIP3    H150122   2.649   5.376   5.057  0.1138  0.7560 -0.1473
 9569TIP3    H250123   2.501   5.343   5.055  0.4016 -0.5783 -0.1553
 9570TIP3   OH250124   3.315   5.522  14.242  0.1783 -0.0666  0.2989
 9570TIP3    H150125   3.261   5.589  14.281 -0.0435 -0.2932  0.3835
 9570TIP3    H250126   3.253   5.460  14.203  0.3506 -0.6264  0.8907
 9571TIP3   OH250127   2.044   1.927   5.871 -0.0090  0.4050 -0.1217
 9571TIP3    H150128   2.137   1.922   5.890 -0.6395 -0.5753  3.3638
 9571TIP3    H250129   2.011   1.839   5.887 -1.4137  0.3569 -2.6606
 9572TIP3   OH250130   0.280   4.593  13.110  0.4617  0.7204  0.6387
 9572TIP3    H150131   0.317   4.605  13.023  0.4005  0.9875  0.6465
 9572TIP3    H250132   0.244   4.679  13.132 -0.5527  0.3626  0.4478
 9573TIP3   OH250133   2.606   0.073  14.337 -0.5990  0.2378  0.3297
 9573TIP3    H150134   2.671   0.143  14.342 -0.5071  0.1221  0.7620
 9573TIP3    H250135   2.655  -0.003  14.307 -0.5871  0.2133  0.4128
 9574TIP3   OH250136   6.164   4.150   5.548 -0.1966  0.6874 -0.4329
 9574TIP3    H150137   6.234   4.200   5.590  0.1834 -0.6359  0.5971
 9574TIP3    H250138   6.085   4.200   5.567  0.2240  1.1520  0.1704
 9575TIP3   OH250139   6.586   3.292  13.827 -0.5760  0.2493  0.1645
 9575TIP3    H150140   6.627   3.209  13.800 -1.5484 -0.2579  0.2217
 9575TIP3    H250141   6.547   3.273  13.912 -1.2204  0.6323 -0.0393
 9576TIP3   OH250142   3.805   2.763  15.753 -0.0258 -0.3872 -0.7067
 9576TIP3    H150143   3.711   2.770  15.770  0.1894  0.6771  0.1093
 9576TIP3    H250144   3.811   2.705  15.677 -1.4100  0.3483 -1.4139
 9577TIP3   OH250145   3.917   1.150  12.266 -0.0730 -0.1715  0.5718
 9577TIP3    H150146   3.977   1.175  12.196 -1.4054 -0.4915 -0.7294
 9577TIP3    H250147   3.891   1.060  12.245 -2.7629  0.6951 -0.2704
 9578TIP3   OH250148   5.557   6.143  16.843 -0.0070 -0.0949  0.2454
 9578TIP3    H150149   5.544   6.202  16.768 -0.3679  0.5624  0.8217
 9578TIP3    H250150   5.521   6.059  16.813 -0.2352  0.1843 -0.2896
 9579TIP3   OH250151   3.492   2.579   1.482 -0.1104  0.3791  0.8931
 9579TIP3    H150152   3.413   2.542   1.444  0.3630  0.4338 -0.1933
 9579TIP3    H250153   3.562   2.521   1.452  1.0410  3.3604 -3.0661
 9580TIP3   OH250154   0.870   1.067  15.477 -0.8565 -0.5188 -0.2440
 9580TIP3    H150155   0.811   1.140  15.460 -2.5724 -2.1010 -1.6487
 9580TIP3    H250156   0.814   1.000  15.517  0.4789 -1.3256  0.3372
 9581TIP3   OH250157   4.602   6.489  11.685 -0.1906  0.5732  0.3399
 9581TIP3    H150158   4.630   6.467  11.596 -0.9162 -0.5463  0.3704
 9581TIP3    H250159   4.682   6.522  11.728  0.5191 -0.2797 -0.2888
 9582TIP3   OH250160   0.303   0.466  15.668 -0.5116 -0.2464  0.1776
 9582TIP3    H150161   0.343   0.392  15.621 -2.3470 -0.7108 -0.7452
 9582TIP3    H250162   0.211   0.465  15.641 -1.1542  0.8507  2.1095
 9583TIP3   OH250163   4.439   0.425  17.206  0.5070 -0.3131 -0.6462
 9583TIP3    H150164   4.440   0.415  17.111 -1.9309  0.2171 -0.7918
 9583TIP3    H250165   4.399   0.511  17.220  0.0134 -0.7619  0.8572
 9584TIP3   OH250166   2.170   4.247  14.617  0.0518  0.1607 -0.5193
 9584TIP3    H150167   2.097   4.294  14.576  1.2200  1.4125 -1.2441
 9584TIP3    H250168   2.189   4.296  14.696  0.1443 -0.1475 -0.3467
 9585TIP3   OH250169   2.661   6.315   2.899 -0.4475  0.0125  0.0323
 9585TIP3    H150170   2.587   6.271   2.857 -0.2836  1.9233 -2.4885
 9585TIP3    H250171   2.732   6.252   2.896 -1.3741 -1.0898  0.5585
 9586TIP3   OH250172   6.139   4.297   4.697  0.4112 -0.0649  0.3081
 9586TIP3    H150173   6.211   4.323   4.639  0.2980 -1.5305 -0.5547
 9586TIP3    H250174   6.170   4.217   4.740  0.0981  0.4558  1.5359
 9587TIP3   OH250175   3.236   1.658  16.886 -0.2265  0.3864  0.0848
 9587TIP3    H150176   3.203   1.578  16.927 -0.8085  0.1745 -0.7804
 9587TIP3    H250177   3.165   1.721  16.895  0.1463  0.7525  0.5625
 9588TIP3   OH250178   5.568   2.028  13.602  0.5087  0.0067 -0.1998
 9588TIP3    H150179   5.658   1.994  13.608  0.5210  0.2470  1.3680
 9588TIP3    H250180   5.578   2.123  13.606  0.2594  0.1080 -1.4925
 9589TIP3   OH250181   6.340   5.143  13.109  0.0064 -0.0204  0.2234
 9589TIP3    H150182   6.351   5.107  13.021  1.7324 -1.2896  0.8909
 9589TIP3    H250183   6.368   5.234  13.102 -0.6192  0.1141 -0.6803
 9590TIP3   OH250184   4.511   5.010  15.821  0.1364  0.2306 -0.6033
 9590TIP3    H150185   4.596   5.028  15.782  0.3949 -0.0311 -0.1713
 9590TIP3    H250186   4.457   4.978  15.748  0.3048  0.7188 -0.9425
 9591TIP3   OH250187   4.633   5.454   4.298 -0.3356 -0.0818  0.5645
 9591TIP3    H150188   4.607   5.419   4.213 -0.2296 -0.0103  0.5043
 9591TIP3    H250189   4.727   5.441   4.302 -0.5239 -1.3806  1.2506
 9592TIP3   OH250190   4.661   3.291   0.986  1.1281  0.3483 -0.3581
 9592TIP3    H150191   4.647   3.331   0.900 -0.7854  1.0440  0.2254
 9592TIP3    H250192   4.676   3.199   0.967  0.7054  0.4885 -1.4607
 9593TIP3   OH250193   0.691   4.854  15.672  0.4448 -0.2653 -0.4199
 9593TIP3    H150194   0.617   4.856  15.612  0.1364  1.2100 -0.0235
 9593TIP3    H250195   0.712   4.946  15.689  0.6091 -0.6220  1.6283
 9594TIP3   OH250196   3.733   1.190   3.919 -0.5275 -0.0296 -0.0674
 9594TIP3    H150197   3.708   1.259   3.857 -0.8564 -0.5852 -0.5627
 9594TIP3    H250198   3.692   1.216   4.001 -1.9410 -0.4258 -0.6286
 9595TIP3   OH250199   4.878   0.410  13.106  0.0967 -0.3306 -0.0898
 9595TIP3    H150200   4.795   0.379  13.071 -0.3221 -1.3471  1.6979
 9595TIP3    H250201   4.869   0.505  13.110  0.2309 -0.1354 -2.7618
 9596TIP3   OH250202   2.687   2.560  11.611 -0.0260  0.1637  0.3806
 9596TIP3    H150203   2.655   2.474  11.583 -2.4550  1.5675 -1.5363
 9596TIP3    H250204   2.747   2.541  11.684 -0.5398 -3.1042  0.0862
 9597TIP3   OH250205   3.662   5.618  15.839  0.1089 -0.1767 -0.0723
 9597TIP3    H150206   3.657   5.526  15.814 -1.7489 -0.3169  0.6524
 9597TIP3    H250207   3.666   5.617  15.935  0.7850  0.5048 -0.0760
 9598TIP3   OH250208   0.993   1.214  14.536  0.3173 -0.0358  0.2593
 9598TIP3    H150209   1.039   1.219  14.453 -0.5421 -0.0835 -0.2269
 9598TIP3    H250210   0.959   1.125  14.540 -3.1458  1.0416 -1.2934
 9599TIP3   OH250211   5.208   5.547  11.961  0.1130 -0.0804 -0.1296
 9599TIP3    H150212   5.247   5.617  11.907 -0.4059 -1.8178 -2.9842
 9599TIP3    H250213   5.116   5.571  11.969  0.1985  0.2015  0.0425
 9600TIP3   OH250214   6.300   0.148   4.159  0.4340  0.0925  0.3358
 9600TIP3    H150215   6.367   0.080   4.162  0.4751  0.0666 -0.6797
 9600TIP3    H250216   6.327   0.204   4.086 -0.0886  0.6715  0.5862
 9601TIP3   OH250217   0.524   5.033  16.094  0.1055 -0.0654 -0.0703
 9601TIP3    H150218   0.566   4.969  16.152 -0.2539  0.7454  1.1307
 9601TIP3    H250219   0.587   5.106  16.090 -1.0155  1.0732  1.5842
 9602TIP3   OH250220   4.387   3.988  13.116 -0.2088  0.0773 -0.7466
 9602TIP3    H150221   4.361   3.925  13.184 -1.3580  0.8336 -0.4573
 9602TIP3    H250222   4.309   3.998  13.062  0.1451  0.8284 -1.1291
 9603TIP3   OH250223   2.261   5.422  14.139 -0.8495  0.1549 -0.1105
 9603TIP3    H150224   2.229   5.404  14.227 -0.6602 -0.4343 -0.1628
 9603TIP3    H250225   2.257   5.338  14.094  2.6982 -0.4505  0.4765
 9604TIP3   OH250226   1.025   3.255  14.489 -0.1728 -0.0993 -0.3094
 9604TIP3    H150227   0.986   3.208  14.415  0.3598  0.6214 -1.0719
 9604TIP3    H250228   1.084   3.191  14.528 -3.2186 -1.7964  1.9241
 9605TIP3   OH250229   6.320   4.768  15.690 -0.5992  0.3920 -0.2443
 9605TIP3    H150230   6.268   4.739  15.615 -0.9355  0.1645  0.0730
 9605TIP3    H250231   6.399   4.716  15.687 -1.0291 -0.2942  0.1009
 9606TIP3   OH250232   5.628   4.754  11.305  0.1088  0.0368  0.1616
 9606TIP3    H150233   5.585   4.692  11.247 -0.1536  0.2834  0.0905
 9606TIP3    H250234   5.721   4.742  11.288  0.0075  0.8870 -1.1422
 9607TIP3   OH250235   4.305   0.941  17.261  0.0460 -0.1919  0.3898
 9607TIP3    H150236   4.234   0.956  17.324  0.4983 -1.2937  1.2026
 9607TIP3    H250237   4.278   0.864  17.212  0.4657 -0.3545  0.4051
 9608TIP3   OH250238   2.371   6.267  11.181 -0.2439  0.2425  0.9375
 9608TIP3    H150239   2.429   6.297  11.111  2.4112 -1.9507  2.0311
 9608TIP3    H250240   2.307   6.211  11.136 -0.5951  1.4066 -0.0799
 9609TIP3   OH250241   2.087   6.035  12.904  1.0379 -0.2538  0.1604
 9609TIP3    H150242   2.157   5.976  12.933  1.5783 -0.7532 -1.9713
 9609TIP3    H250243   2.133   6.103  12.855  0.1265  0.1299 -0.1737
 9610TIP3   OH250244   2.822   0.470   3.315 -0.2191  0.4249 -0.0743
 9610TIP3    H150245   2.763   0.396   3.302  1.3418 -0.8149 -0.3749
 9610TIP3    H250246   2.859   0.488   3.229 -0.4034  1.4236  0.0390
 9611TIP3   OH250247   0.201   1.513   0.978  0.2739  0.4914  0.0436
 9611TIP3    H150248   0.296   1.513   0.973  0.2892  0.6733  0.2869
 9611TIP3    H250249   0.173   1.565   0.903  0.3522  0.1425 -0.2280
 9612TIP3   OH250250   1.768   1.515   3.990  0.1410  0.1640 -0.1042
 9612TIP3    H150251   1.697   1.526   3.925 -0.1932  0.1767  0.2587
 9612TIP3    H250252   1.726   1.534   4.074  0.9926  1.9817 -0.0348
 9613TIP3   OH250253   1.376   5.428   4.150 -0.3288 -0.9250  0.3401
 9613TIP3    H150254   1.376   5.509   4.099  0.0326 -1.1505 -0.0265
 9613TIP3    H250255   1.326   5.449   4.229 -1.6644 -0.8165 -0.5079
 9614TIP3   OH250256   6.470   2.761  10.692  0.5698 -0.5630  0.4857
 9614TIP3    H150257   6.405   2.831  10.694  1.6547  0.6215 -1.9108
 9614TIP3    H250258   6.516   2.769  10.776 -1.6005 -0.7395  1.7529
 9615TIP3   OH250259   0.788   4.056  11.351  0.0018  0.2478 -0.2086
 9615TIP3    H150260   0.801   4.003  11.272 -0.6614 -1.9507  1.0586
 9615TIP3    H250261   0.719   4.118  11.328 -0.4026 -0.5677 -1.2815
 9616TIP3   OH250262   2.467   5.854   1.881  0.2763 -0.0865  0.2251
 9616TIP3    H150263   2.517   5.883   1.958  0.0321 -0.2868  0.4600
 9616TIP3    H250264   2.436   5.935   1.841 -1.1129 -0.0235  1.3494
 9617TIP3   OH250265   3.318   2.639  15.632  0.7554  0.4139 -0.9780
 9617TIP3    H150266   3.245   2.677  15.583 -1.7756  1.1588  2.8960
 9617TIP3    H250267   3.378   2.712  15.645  2.7204 -0.3084 -4.5921
 9618TIP3   OH250268   3.639   3.406  15.642 -0.5461  0.1167 -0.3972
 9618TIP3    H150269   3.632   3.438  15.552  1.4155 -0.3596 -0.7517
 9618TIP3    H250270   3.549   3.383  15.666 -0.9620 -1.0121 -2.7154
 9619TIP3   OH250271   4.647   3.938  16.171 -0.3226  0.0097 -0.4441
 9619TIP3    H150272   4.570   3.882  16.180 -0.6191  0.4465 -0.2821
 9619TIP3    H250273   4.718   3.877  16.148  0.1149 -0.9976  3.0202
 9620TIP3   OH250274   4.644   4.886  16.278  0.4958  0.3556  0.2585
 9620TIP3    H150275   4.715   4.864  16.218  1.1137  0.4318  0.9401
 9620TIP3    H250276   4.568   4.902  16.222 -0.1074 -3.6677 -0.3806
 9621TIP3   OH250277   2.407   1.428  12.268  0.0072  0.1714  0.3148
 9621TIP3    H150278   2.450   1.480  12.336  1.7743 -0.6460 -0.1416
 9621TIP3    H250279   2.477   1.379  12.227 -1.2779 -0.6508 -0.9779
 9622TIP3   OH250280   4.327   0.558  11.614  0.1551  0.4645  0.1913
 9622TIP3    H150281   4.321   0.470  11.649 -0.3266  0.1214 -0.7236
 9622TIP3    H250282   4.340   0.546  11.519 -0.2396  1.3684  0.0103
 9623TIP3   OH250283   4.117   0.259   3.140  0.4738  0.3792  0.4455
 9623TIP3    H150284   4.145   0.350   3.143  0.9798  0.2031  2.3007
 9623TIP3    H250285   4.196   0.208   3.159 -0.4360 -0.2436  3.0277
 9624TIP3   OH250286   0.080   2.663  15.107  0.2092 -0.3970  0.3694
 9624TIP3    H150287   0.036   2.598  15.051 -1.1931  0.3653  0.5298
 9624TIP3    H250288   0.102   2.734  15.047  2.9965 -1.5083 -0.0884
 9625TIP3   OH250289   1.801   3.726   3.069  0.1061  0.1040 -0.4741
 9625TIP3    H150290   1.890   3.755   3.052 -0.8259  2.3396 -1.9725
 9625TIP3    H250291   1.787   3.655   3.005  0.5131  0.3782 -0.8733
 9626TIP3   OH250292   1.850   2.691   1.937  0.4387  0.1911  0.0015
 9626TIP3    H150293   1.805   2.656   2.014 -0.7604  2.7189  0.5501
 9626TIP3    H250294   1.884   2.613   1.892 -2.2966 -1.6881  0.9163
 9627TIP3   OH250295   0.806   5.707  11.012  0.5805  0.5306  0.1404
 9627TIP3    H150296   0.766   5.659  11.084  2.0933 -2.4367 -0.8375
 9627TIP3    H250297   0.743   5.698  10.940  0.3875  0.9766  0.2489
 9628TIP3   OH250298   1.430   6.727  12.903 -0.0722 -0.3118  0.0322
 9628TIP3    H150299   1.350   6.676  12.890  0.8410 -1.9194  0.4988
 9628TIP3    H250300   1.477   6.682  12.973  0.8577  1.0943  0.3658
 9629TIP3   OH250301   4.883   1.161  11.293  0.4907 -0.3390 -0.3443
 9629TIP3    H150302   4.904   1.254  11.303  0.7488 -0.1470 -2.2300
 9629TIP3    H250303   4.967   1.116  11.300  0.3387 -0.4774  0.7860
 9630TIP3   OH250304   5.426   4.852   0.303  0.2234  0.2394 -0.3559
 9630TIP3    H150305   5.459   4.777   0.253 -0.4160 -1.0098  1.0161
 9630TIP3    H250306   5.372   4.813   0.372  0.0367  1.9691  0.5324
 9631TIP3   OH250307   2.542   2.458   0.051 -0.2246 -0.7799 -0.6627
 9631TIP3    H150308   2.480   2.529   0.034 -1.7059 -1.6980  0.6370
 9631TIP3    H250309   2.595   2.489   0.124  1.6051  0.4117 -2.3967
 9632TIP3   OH250310   3.038   1.747   3.790  0.2517  0.0131 -0.3352
 9632TIP3    H150311   2.985   1.723   3.866 -0.1521  1.1394 -0.2420
 9632TIP3    H250312   3.013   1.837   3.771 -0.3292 -0.5305 -2.3889
 9633TIP3   OH250313   3.975   2.424  10.505 -0.6125 -0.6520 -0.2089
 9633TIP3    H150314   3.903   2.484  10.522 -0.6802 -0.7480 -0.1560
 9633TIP3    H250315   3.951   2.344  10.552 -1.7901 -1.6537 -2.3668
 9634TIP3   OH250316   1.837   6.503  16.201  0.0395 -0.0439  0.1286
 9634TIP3    H150317   1.773   6.454  16.150  0.1847 -0.1107  0.0068
 9634TIP3    H250318   1.806   6.497  16.291 -1.3212  1.7638 -0.1698
 9635TIP3   OH250319   2.375   3.226   2.807  0.1073  0.0770  0.4617
 9635TIP3    H150320   2.360   3.296   2.870 -0.9942 -0.2873  0.6295
 9635TIP3    H250321   2.329   3.151   2.844  0.6085 -0.5176 -0.1047
 9636TIP3   OH250322   2.824   3.695  15.473  0.2509 -0.1274 -0.2560
 9636TIP3    H150323   2.772   3.667  15.398 -1.6940  0.7992  0.6640
 9636TIP3    H250324   2.876   3.618  15.496  0.7807 -0.4843 -2.4072
 9637TIP3   OH250325   5.526   5.283  15.845  0.2128 -0.7333 -0.3431
 9637TIP3    H150326   5.471   5.208  15.821  0.6317 -0.2656 -3.1236
 9637TIP3    H250327   5.614   5.258  15.816  0.3109  0.8745 -1.5889
 9638TIP3   OH250328   2.237   2.310  14.710 -0.6605  0.1949 -0.1546
 9638TIP3    H150329   2.231   2.227  14.758  0.8068 -0.9283 -1.8366
 9638TIP3    H250330   2.178   2.299  14.636 -1.3271  1.1348  0.2116
 9639TIP3   OH250331   4.510   0.303  11.510  0.2702  0.1870  0.2697
 9639TIP3    H150332   4.459   0.296  11.590  0.3970 -1.4752  0.2442
 9639TIP3    H250333   4.445   0.308  11.440  0.1174 -1.1685  0.2917
 9640TIP3   OH250334   1.434   3.601  12.817  0.7357  0.2839 -0.1840
 9640TIP3    H150335   1.487   3.537  12.771  1.6141  1.3763 -0.7502
 9640TIP3    H250336   1.490   3.630  12.890 -0.1203 -0.4568  0.7869
 9641TIP3   OH250337   6.610   4.957   0.993 -0.0422 -0.1506  0.2370
 9641TIP3    H150338   6.670   4.886   0.968 -0.1461 -0.0300 -0.3614
 9641TIP3    H250339   6.652   4.998   1.069  0.6271 -0.0744 -0.1694
 9642TIP3   OH250340   1.205   0.046   3.879 -0.0052 -0.0037  0.2025
 9642TIP3    H150341   1.296   0.070   3.865  0.2888 -0.7036  0.8957
 9642TIP3    H250342   1.208  -0.038   3.925 -0.9475  0.9311  2.0881
 9643TIP3   OH250343   0.739   4.216  11.823 -0.3535  0.6633  0.1051
 9643TIP3    H150344   0.682   4.278  11.867  1.7371  1.6653  1.5704
 9643TIP3    H250345   0.714   4.131  11.859 -2.7186  0.6553 -1.3507
 9644TIP3   OH250346   6.223   1.323  15.170 -0.2728 -0.3701 -0.1444
 9644TIP3    H150347   6.277   1.377  15.113 -1.6173 -0.9750 -2.0778
 9644TIP3    H250348   6.157   1.285  15.113 -1.4740 -1.3337  1.7596
 9645TIP3   OH250349   3.799   6.646   5.505  0.1777 -0.7771 -0.5422
 9645TIP3    H150350   3.885   6.664   5.466  0.4505 -1.0675 -0.0803
 9645TIP3    H250351   3.778   6.725   5.554 -0.3686 -0.2355 -1.6263
 9646TIP3   OH250352   4.498   2.347   6.187 -0.3610 -0.5202  0.2855
 9646TIP3    H150353   4.456   2.283   6.245  0.2263 -0.0658  1.2343
 9646TIP3    H250354   4.428   2.407   6.163 -1.2691 -2.2544 -1.7534
 9647TIP3   OH250355   2.769   3.280  14.196 -0.1595 -0.2062 -0.1130
 9647TIP3    H150356   2.735   3.190  14.196 -0.2817 -0.1725 -1.2345
 9647TIP3    H250357   2.691   3.335  14.182  0.1288 -0.0332 -1.1003
 9648TIP3   OH250358   2.835   0.185  13.400 -0.2683 -0.0843 -0.1546
 9648TIP3    H150359   2.832   0.223  13.312 -0.4491 -2.6160 -1.3285
 9648TIP3    H250360   2.928   0.186  13.423  0.0024 -0.9403 -1.1329
 9649TIP3   OH250361   4.854   1.146   2.678 -0.0147 -0.5814 -0.0165
 9649TIP3    H150362   4.878   1.233   2.648  0.6651 -1.1971 -1.3474
 9649TIP3    H250363   4.920   1.124   2.744 -0.3321 -0.0049  0.4978
 9650TIP3   OH250364   4.852   5.684  10.720 -0.2248 -0.2445  0.6603
 9650TIP3    H150365   4.945   5.707  10.725  0.0679 -0.9377 -1.0465
 9650TIP3    H250366   4.850   5.599  10.675 -1.6387 -0.7159  1.5287
 9651TIP3   OH250367   3.865   3.922   5.583 -0.0718 -0.7947 -0.5593
 9651TIP3    H150368   3.957   3.895   5.576 -0.0471 -0.8043 -0.2050
 9651TIP3    H250369   3.850   3.976   5.505  1.0249  1.5359  0.7312
 9652TIP3   OH250370   1.491   1.300   3.695 -0.0504  0.0656  0.8464
 9652TIP3    H150371   1.480   1.214   3.736  2.3456 -0.9143 -0.3472
 9652TIP3    H250372   1.583   1.322   3.710 -0.1204  1.5108 -0.5735
 9653TIP3   OH250373   1.002   5.584  16.218  0.4132  0.4524  0.1449
 9653TIP3    H150374   1.016   5.673  16.187  2.5832  0.2369  0.3323
 9653TIP3    H250375   1.037   5.528  16.149 -0.9793 -0.2993 -0.0015
 9654TIP3   OH250376   5.875   1.126  12.604  0.1756  0.1036 -0.5495
 9654TIP3    H150377   5.797   1.101  12.555  0.4904  0.1468 -1.0778
 9654TIP3    H250378   5.844   1.192  12.666 -0.4274 -0.6893  0.0309
 9655TIP3   OH250379   4.237   1.606  14.952 -0.6010  0.3525  0.0827
 9655TIP3    H150380   4.282   1.628  15.034 -0.6808  1.1056 -0.0632
 9655TIP3    H250381   4.272   1.520  14.928 -0.8185 -0.0290  1.0702
 9656TIP3   OH250382   2.753   2.185  16.032 -0.0421 -0.6718 -0.2438
 9656TIP3    H150383   2.703   2.178  16.113  1.9716 -0.1526  1.1487
 9656TIP3    H250384   2.819   2.115  16.039  2.5304  1.6423  0.4472
 9657TIP3   OH250385   2.757   3.302   5.574 -0.0563  0.4871  0.3960
 9657TIP3    H150386   2.736   3.237   5.507 -2.3056 -1.8028  3.0306
 9657TIP3    H250387   2.824   3.260   5.628 -1.1674  0.4882  1.8467
 9658TIP3   OH250388   3.249   5.148  13.668 -0.0001  0.8441  0.4647
 9658TIP3    H150389   3.209   5.061  13.670  1.1616  0.2892  0.4683
 9658TIP3    H250390   3.270   5.163  13.576  1.6130  0.2271  0.6873
 9659TIP3   OH250391   5.736   0.555  12.529 -0.3651 -0.0083 -0.3298
 9659TIP3    H150392   5.744   0.616  12.456 -0.8539 -0.9738 -1.2225
 9659TIP3    H250393   5.824   0.549  12.565 -0.3254  1.2677 -0.1723
 9660TIP3   OH250394   0.586   0.118  14.293  0.2904  0.3293  0.0988
 9660TIP3    H150395   0.582   0.042  14.350 -0.7809  0.1079 -0.2589
 9660TIP3    H250396   0.495   0.143  14.278  0.6071  1.6107  0.1077
 9661TIP3   OH250397   6.133   1.574  16.386 -0.1127  0.0509 -0.0691
 9661TIP3    H150398   6.131   1.563  16.291 -0.5814  0.9508 -0.1674
 9661TIP3    H250399   6.081   1.652  16.403 -0.5149 -0.4183  0.9805
 9662TIP3   OH250400   3.651   1.931  12.715  0.3644  0.0254 -0.4694
 9662TIP3    H150401   3.720   1.980  12.671  0.9881 -0.8727 -0.5113
 9662TIP3    H250402   3.641   1.851  12.663 -0.4010 -0.0567 -0.2123
 9663TIP3   OH250403   2.415   3.693  15.379  0.4830 -0.4733 -0.4605
 9663TIP3    H150404   2.478   3.762  15.360 -0.1794  0.3185  0.1213
 9663TIP3    H250405   2.382   3.665  15.293  0.0567  0.6222 -0.6688
 9664TIP3   OH250406   2.256   4.239  16.321  0.6620  0.3974  0.3591
 9664TIP3    H150407   2.233   4.285  16.402  0.6583 -0.7075  1.0138
 9664TIP3    H250408   2.352   4.238  16.322  0.7407  2.3667 -0.8350
 9665TIP3   OH250409   5.419   5.326  14.574 -0.1195 -0.2652 -0.3253
 9665TIP3    H150410   5.391   5.411  14.605  0.2887 -0.0000 -0.6608
 9665TIP3    H250411   5.502   5.343  14.528 -0.8974 -0.5552 -1.9226
 9666TIP3   OH250412   4.877   0.176   0.602 -0.2261 -0.0895  0.2004
 9666TIP3    H150413   4.953   0.119   0.616 -0.6451 -0.8632 -0.5782
 9666TIP3    H250414   4.909   0.244   0.542 -0.1453 -0.4262 -0.1439
 9667TIP3   OH250415   2.367   3.561   2.482  0.1630  0.2065  0.3973
 9667TIP3    H150416   2.401   3.477   2.514  3.4759 -0.3627 -3.6449
 9667TIP3    H250417   2.395   3.625   2.548  0.1499 -1.5138  2.1528
 9668TIP3   OH250418   1.890   0.402  15.611  0.2685 -0.4161  0.2851
 9668TIP3    H150419   1.941   0.344  15.668  1.2996  0.2794  0.0983
 9668TIP3    H250420   1.918   0.490  15.636  0.6352 -0.0958 -1.1823
 9669TIP3   OH250421   1.217   5.067   2.227 -0.1169 -0.2333  0.3359
 9669TIP3    H150422   1.305   5.086   2.259 -0.1476  0.5537 -0.0255
 9669TIP3    H250423   1.184   5.151   2.196 -1.2039 -0.4178  0.9578
 9670TIP3   OH250424   1.225   5.957  15.080  0.1431  0.0232 -0.3249
 9670TIP3    H150425   1.275   6.039  15.089 -0.1974  0.1750  0.2287
 9670TIP3    H250426   1.141   5.976  15.122 -0.2076 -0.3843 -0.8324
 9671TIP3   OH250427   2.783   3.193  11.936 -0.0541  0.0890  0.3061
 9671TIP3    H150428   2.696   3.157  11.950 -1.0550  1.4849 -1.8925
 9671TIP3    H250429   2.798   3.251  12.010 -1.2196  0.2171  0.4488
 9672TIP3   OH250430   0.084   2.748   3.725  0.7323 -0.0665  0.6233
 9672TIP3    H150431   0.043   2.672   3.683  1.1624 -1.4137  2.5043
 9672TIP3    H250432   0.098   2.720   3.815  1.9236  1.8874  1.0916
 9673TIP3   OH250433   3.872   5.814  11.776 -0.3196  0.1609 -0.5519
 9673TIP3    H150434   3.954   5.863  11.771 -1.0093  1.3306 -0.8846
 9673TIP3    H250435   3.895   5.725  11.751  1.1578  0.0677  0.9711
 9674TIP3   OH250436   3.388   6.555   0.462 -0.3933  0.4913  0.6985
 9674TIP3    H150437   3.406   6.644   0.491  0.4780  0.1516  1.2602
 9674TIP3    H250438   3.394   6.502   0.542 -0.9508 -0.0631  0.3807
 9675TIP3   OH250439   5.395   1.538   1.453 -0.0161  0.0015  0.1370
 9675TIP3    H150440   5.391   1.478   1.527  1.7511 -0.9317 -0.4614
 9675TIP3    H250441   5.335   1.501   1.388  0.7856 -0.9536 -0.0821
 9676TIP3   OH250442   6.679   4.396   4.228  0.1156 -0.0560  0.1993
 9676TIP3    H150443   6.711   4.334   4.294  3.2175 -0.4591 -1.4956
 9676TIP3    H250444   6.602   4.353   4.190  0.0810 -1.1994  1.4662
 9677TIP3   OH250445   5.389   4.828   3.642  0.2926 -0.2524  0.4463
 9677TIP3    H150446   5.465   4.836   3.584  0.1049  0.2366  0.2626
 9677TIP3    H250447   5.327   4.893   3.609  0.1504 -0.0219  1.1510
 9678TIP3   OH250448   6.472   6.162  12.662  0.6710  0.3835 -0.0706
 9678TIP3    H150449   6.545   6.111  12.628  0.9612 -0.3534  1.5506
 9678TIP3    H250450   6.507   6.203  12.742 -0.0762  1.7499 -0.4047
 9679TIP3   OH250451   2.037   6.077   4.995  0.3821  0.4110  0.0288
 9679TIP3    H150452   1.945   6.090   4.973  0.2065  0.7584  0.9116
 9679TIP3    H250453   2.049   6.122   5.079  1.0989 -0.5101  0.4533
 9680TIP3   OH250454   0.163   0.789  15.572 -0.0570 -0.0334  0.4382
 9680TIP3    H150455   0.244   0.798  15.523  0.5226  0.7651  1.4981
 9680TIP3    H250456   0.123   0.709  15.538  0.2353  0.5655 -1.4122
 9681TIP3   OH250457   5.012   0.799  13.309  0.6470 -0.1148  0.1865
 9681TIP3    H150458   4.984   0.842  13.390  1.5651 -1.9827  1.5720
 9681TIP3    H250459   5.092   0.845  13.284 -0.7355  1.8534 -0.9179
 9682TIP3   OH250460   4.753   0.923  13.129 -0.3136 -0.1836  0.1464
 9682TIP3    H150461   4.790   0.980  13.197  1.8968 -0.8219 -0.4392
 9682TIP3    H250462   4.798   0.840  13.139 -2.1508 -1.2884 -0.2102
 9683TIP3   OH250463   5.173   5.225  13.604 -0.3014  0.3677  0.3314
 9683TIP3    H150464   5.205   5.136  13.616  0.7466  0.5854 -0.6559
 9683TIP3    H250465   5.176   5.264  13.691  0.4442 -0.1690  0.5552
 9684TIP3   OH250466   5.955   5.925  14.388  0.6210 -0.1954  0.2928
 9684TIP3    H150467   5.942   5.891  14.477  1.5369  1.3938  1.0763
 9684TIP3    H250468   6.047   5.952  14.386  0.9497 -1.2640 -1.5495
 9685TIP3   OH250469   2.523   5.185   0.608 -0.6441 -0.1022 -0.5683
 9685TIP3    H150470   2.522   5.281   0.606  2.7018  0.0436 -0.2518
 9685TIP3    H250471   2.443   5.161   0.654 -0.1156  2.7035  2.0918
 9686TIP3   OH250472   5.235   0.376  12.805 -0.1457  0.1523  0.0897
 9686TIP3    H150473   5.304   0.326  12.762 -0.9809 -1.0774  0.1233
 9686TIP3    H250474   5.205   0.319  12.876 -0.1348  1.3268  1.0493
 9687TIP3   OH250475   2.856   1.796   0.828 -0.4491 -0.2839  0.1433
 9687TIP3    H150476   2.875   1.842   0.746 -0.2778 -1.9077 -0.7749
 9687TIP3    H250477   2.763   1.811   0.844  0.0988  2.4898  1.2886
 9688TIP3   OH250478   5.727   0.539  17.171 -0.1620 -0.4017  0.6129
 9688TIP3    H150479   5.632   0.541  17.181 -0.2248  0.8036  0.0052
 9688TIP3    H250480   5.745   0.457  17.125 -0.9689 -0.3465  0.1761
 9689TIP3   OH250481   3.638   6.118   0.375 -0.0171  0.1093  0.1456
 9689TIP3    H150482   3.672   6.203   0.347  0.1944  0.3300  1.0396
 9689TIP3    H250483   3.695   6.053   0.333 -0.2751  0.3944 -0.6674
 9690TIP3   OH250484   2.153   0.454  14.385 -0.6473  0.1193 -0.4622
 9690TIP3    H150485   2.060   0.475  14.392 -0.6369 -0.2794  2.4292
 9690TIP3    H250486   2.180   0.439  14.476  2.1284 -0.2899 -1.2729
 9691TIP3   OH250487   1.803   1.129  14.611  0.2573 -0.0298 -0.2367
 9691TIP3    H150488   1.894   1.106  14.632 -0.1472 -0.4860  1.0997
 9691TIP3    H250489   1.759   1.046  14.597 -0.0318  0.1771 -0.5696
 9692TIP3   OH250490   2.727   6.624  16.328 -0.4191 -0.1667 -0.3321
 9692TIP3    H150491   2.813   6.648  16.294  0.1577  0.1553  1.3095
 9692TIP3    H250492   2.666   6.669  16.269  0.5423  0.6591 -0.7447
 9693TIP3   OH250493   5.445   5.897   1.433  0.1871 -0.2066 -0.5457
 9693TIP3    H150494   5.400   5.824   1.475 -0.3560  0.7494  0.5866
 9693TIP3    H250495   5.519   5.917   1.490 -0.7404  1.3104  0.1784
 9694TIP3   OH250496   0.732   0.607   3.899  0.4748 -0.3904 -0.0409
 9694TIP3    H150497   0.743   0.652   3.983  1.0927  0.4840 -0.5735
 9694TIP3    H250498   0.814   0.561   3.886  0.8520  0.4443 -0.7135
 9695TIP3   OH250499   4.368   4.292   4.779 -0.3142 -0.3379 -0.7451
 9695TIP3    H150500   4.375   4.220   4.717 -0.7274 -0.1728 -0.9877
 9695TIP3    H250501   4.277   4.321   4.771 -0.3948 -0.3675 -0.0106
 9696TIP3   OH250502   2.966   1.749   5.601  1.0154  0.1810  0.0388
 9696TIP3    H150503   3.029   1.787   5.662 -1.1611  1.5386  1.6191
 9696TIP3    H250504   2.924   1.825   5.560 -0.0962 -0.6334 -0.3850
 9697TIP3   OH250505   2.748   2.881   2.796 -0.6948 -0.1981 -0.0483
 9697TIP3    H150506   2.700   2.798   2.796 -0.3234 -0.4166  0.2766
 9697TIP3    H250507   2.751   2.907   2.704  0.7049 -1.4361 -0.3880
 9698TIP3   OH250508   1.913   2.089  11.404 -0.2822 -0.0262 -0.4757
 9698TIP3    H150509   1.823   2.081  11.373 -0.7162  1.1349  0.4267
 9698TIP3    H250510   1.960   2.018  11.359 -1.7411 -0.9931 -0.5471
 9699TIP3   OH250511   1.956   4.100  12.512 -1.0050 -0.2313  0.2389
 9699TIP3    H150512   1.940   4.090  12.418 -0.5157  1.4355 -0.0467
 9699TIP3    H250513   1.875   4.072  12.554 -2.0302  1.0819 -0.8017
 9700TIP3   OH250514   0.965   2.093  11.298 -0.3947 -0.0712 -0.0980
 9700TIP3    H150515   0.899   2.130  11.357 -0.8943  0.8520 -1.1922
 9700TIP3    H250516   1.008   2.025  11.350 -0.1537  1.3429  1.6510
 9701TIP3   OH250517   1.490   1.451   3.178 -0.3704 -0.3429  0.5936
 9701TIP3    H150518   1.476   1.535   3.133  1.0773  0.3496  1.3667
 9701TIP3    H250519   1.403   1.413   3.185 -0.9852  0.8250 -0.3044
 9702TIP3   OH250520   2.663   0.012  11.536  0.0670  0.4206 -0.3846
 9702TIP3    H150521   2.589  -0.041  11.507  1.0893 -0.3795 -1.6458
 9702TIP3    H250522   2.639   0.039  11.625 -1.4850 -0.2609 -0.5565
 9703TIP3   OH250523   2.466   3.737   0.899 -0.1682 -0.1545 -0.2046
 9703TIP3    H150524   2.436   3.724   0.988 -1.4514 -0.2359 -0.6318
 9703TIP3    H250525   2.562   3.741   0.906 -0.2718  0.1402  1.1908
 9704TIP3   OH250526   4.874   2.126   5.818  0.0698  0.5436 -0.0426
 9704TIP3    H150527   4.965   2.105   5.800 -0.2067  0.8829 -2.0988
 9704TIP3    H250528   4.876   2.175   5.900  1.9060  1.6661 -0.6918
 9705TIP3   OH250529   0.210   2.841   0.285  0.5875 -0.9854 -0.4608
 9705TIP3    H150530   0.299   2.874   0.273  0.2670 -0.1366 -0.6029
 9705TIP3    H250531   0.180   2.883   0.366 -0.4584  0.5441 -1.5697
 9706TIP3   OH250532   6.001   1.631  11.374 -0.0007  0.2274  0.2913
 9706TIP3    H150533   5.926   1.649  11.318  1.4487 -0.5520 -2.0342
 9706TIP3    H250534   5.987   1.541  11.405  1.3997 -1.1953 -2.7833
 9707TIP3   OH250535   4.670   0.602  13.736 -0.1730 -0.6355  0.2224
 9707TIP3    H150536   4.727   0.526  13.747  0.3598 -0.1679  0.7424
 9707TIP3    H250537   4.707   0.669  13.793 -0.5059  0.0934 -0.3957
 9708TIP3   OH250538   3.226   6.456   5.488  0.0405  0.5264  0.7108
 9708TIP3    H150539   3.160   6.419   5.547  1.4412 -0.1653  1.9097
 9708TIP3    H250540   3.261   6.380   5.442  1.1834  0.6381  1.3534
 9709TIP3   OH250541   6.114   6.629   4.325  0.5286  0.4611  0.0112
 9709TIP3    H150542   6.081   6.539   4.315  0.8966  0.2027  1.0104
 9709TIP3    H250543   6.071   6.678   4.255 -0.7155 -0.2132  0.2769
 9710TIP3   OH250544   3.666   1.556  13.575  0.0290  0.0144  0.6409
 9710TIP3    H150545   3.596   1.532  13.513  0.8644 -0.1644 -0.2647
 9710TIP3    H250546   3.719   1.619  13.527  0.3089  0.3998  1.4486
 9711TIP3   OH250547   2.020   5.751  14.825  0.1620  0.2214 -0.0073
 9711TIP3    H150548   2.075   5.696  14.769 -0.0224 -1.3831  1.2949
 9711TIP3    H250549   1.986   5.819  14.767  2.3882  0.4494 -1.1624
 9712TIP3   OH250550   2.456   0.848  16.659  0.3236 -0.9722 -0.2963
 9712TIP3    H150551   2.509   0.891  16.591  4.0639 -2.8442  1.1149
 9712TIP3    H250552   2.399   0.789  16.611 -0.9303  1.4003 -1.9482
 9713TIP3   OH250553   2.398   6.615  11.894 -0.2348 -0.2874  0.2703
 9713TIP3    H150554   2.347   6.541  11.860 -0.1329 -0.5646  0.7139
 9713TIP3    H250555   2.478   6.574  11.928  0.0853  0.0950 -0.0199
 9714TIP3   OH250556   2.522   3.593  15.864  0.6013  0.6374 -0.0027
 9714TIP3    H150557   2.568   3.628  15.940 -0.7089  3.4126 -0.3399
 9714TIP3    H250558   2.543   3.654  15.793 -1.2787  0.3720 -0.8609
 9715TIP3   OH250559   5.746   0.626  15.068 -0.1947  0.0102 -0.0010
 9715TIP3    H150560   5.783   0.584  15.146  2.0578 -0.7535 -1.3644
 9715TIP3    H250561   5.728   0.553  15.008 -1.5936  0.6110 -0.3489
 9716TIP3   OH250562   2.668   4.995   4.827 -0.1510 -0.1424 -0.1008
 9716TIP3    H150563   2.635   5.008   4.916  0.2270 -0.4299  0.0839
 9716TIP3    H250564   2.594   5.016   4.770  0.2314  2.1935  0.1774
 9717TIP3   OH250565   3.593   6.144   0.647 -0.2770  0.1570  1.1160
 9717TIP3    H150566   3.670   6.108   0.692 -1.0386 -0.9917  1.5415
 9717TIP3    H250567   3.617   6.146   0.555  0.4939  0.4305  1.3160
 9718TIP3   OH250568   2.881   4.910  15.634  0.3124 -0.3670  0.1388
 9718TIP3    H150569   2.930   4.906  15.552 -0.7387  0.6314 -0.5828
 9718TIP3    H250570   2.795   4.943  15.608 -0.5655 -1.5580  1.4380
 9719TIP3   OH250571   6.055   2.199  12.829  0.6262  0.2751 -0.0609
 9719TIP3    H150572   6.104   2.196  12.911  0.1482 -0.6885  0.1984
 9719TIP3    H250573   5.971   2.236  12.852  0.6613  0.4455 -0.2058
 9720TIP3   OH250574   5.401   3.097   4.995 -0.3257  0.2564  0.5457
 9720TIP3    H150575   5.313   3.063   5.009  0.4425 -2.7909 -1.1387
 9720TIP3    H250576   5.459   3.038   5.044  0.9739 -0.0517 -1.2319
 9721TIP3   OH250577   0.681   4.643   2.526 -0.2089  0.4103  0.7826
 9721TIP3    H150578   0.621   4.570   2.511  1.5581 -1.1550  0.9490
 9721TIP3    H250579   0.631   4.705   2.579 -1.1977 -1.5223  2.2103
 9722TIP3   OH250580   0.082   0.548   3.707  0.1249 -0.1179 -0.1273
 9722TIP3    H150581   0.069   0.570   3.614  3.0914 -1.6505 -1.0183
 9722TIP3    H250582   0.135   0.620   3.741  0.7141 -0.5450 -0.1478
 9723TIP3   OH250583   0.697   0.920  16.672  0.1409 -0.4235 -0.1800
 9723TIP3    H150584   0.620   0.902  16.725  0.8338 -0.8550  0.6980
 9723TIP3    H250585   0.760   0.852  16.695  0.5732 -0.4472 -1.3332
 9724TIP3   OH250586   3.970   6.376   1.568 -0.3874 -0.2627 -0.0174
 9724TIP3    H150587   3.946   6.467   1.553  1.6282  0.4272  0.6604
 9724TIP3    H250588   3.992   6.372   1.661  1.7885 -0.8491 -0.5159
 9725TIP3   OH250589   6.544   4.103   1.968  0.0193 -0.1661  0.5061
 9725TIP3    H150590   6.535   4.030   1.907  0.6675 -0.8270  1.1903
 9725TIP3    H250591   6.564   4.062   2.052 -0.7341  0.7413  1.1463
 9726TIP3   OH250592   3.249   5.525   6.113 -0.3503  0.4465 -0.7791
 9726TIP3    H150593   3.238   5.617   6.091 -0.3673  0.4110 -0.9204
 9726TIP3    H250594   3.344   5.513   6.122 -0.4293  1.0254  1.6263
 9727TIP3   OH250595   1.678   5.636  12.013 -0.2135  0.0114 -0.7165
 9727TIP3    H150596   1.618   5.704  11.982  0.2142  0.4711 -0.5500
 9727TIP3    H250597   1.658   5.560  11.959 -1.4381 -0.0587 -0.1802
 9728TIP3   OH250598   1.214   2.784  14.856  0.3916 -0.1280 -0.1420
 9728TIP3    H150599   1.232   2.738  14.774 -0.4453  0.3916 -0.6332
 9728TIP3    H250600   1.220   2.716  14.923  0.1915 -0.7430 -0.7309
 9729TIP3   OH250601   2.507   1.185   0.699 -0.4229 -0.0140  0.0559
 9729TIP3    H150602   2.523   1.090   0.702 -2.4872 -0.5032 -1.3910
 9729TIP3    H250603   2.436   1.199   0.762  0.7211  0.8313  1.2000
 9730TIP3   OH250604   1.546   2.526   6.139  0.3619  0.0532 -0.4791
 9730TIP3    H150605   1.527   2.445   6.186 -0.0897 -0.4755 -1.5326
 9730TIP3    H250606   1.488   2.591   6.179  1.3050  0.0691  0.9146
 9731TIP3   OH250607   5.292   4.141  11.328 -0.1612 -0.0068 -0.2198
 9731TIP3    H150608   5.243   4.137  11.246  0.2378 -2.1782 -0.4062
 9731TIP3    H250609   5.230   4.178  11.391 -0.9478  0.3057 -1.1577
 9732TIP3   OH250610   3.928   6.595   0.207 -0.2598 -0.1781 -0.1053
 9732TIP3    H150611   3.996   6.545   0.163  0.9975  0.3258  1.1590
 9732TIP3    H250612   3.906   6.543   0.284 -1.1227 -0.2057 -0.3632
 9733TIP3   OH250613   3.092   0.289   3.280  0.1864  0.3032 -0.4997
 9733TIP3    H150614   2.998   0.291   3.260 -0.0272 -0.6868  0.2800
 9733TIP3    H250615   3.131   0.240   3.208 -0.0957 -0.3999 -0.1855
 9734TIP3   OH250616   1.015   2.941  12.297  0.2380  0.5042  0.4182
 9734TIP3    H150617   0.923   2.962  12.280 -0.0093 -0.2880  0.7059
 9734TIP3    H250618   1.057   3.025  12.314 -0.1922  0.9928 -0.8272
 9735TIP3   OH250619   5.499   0.103   3.797 -0.2145  0.2445  0.3234
 9735TIP3    H150620   5.593   0.088   3.805 -0.0913  1.2588  0.8234
 9735TIP3    H250621   5.476   0.059   3.715  0.6822 -0.0596  0.2176
 9736TIP3   OH250622   5.007   3.827   0.534 -0.2284 -0.1141  0.0966
 9736TIP3    H150623   5.095   3.857   0.512  0.8522 -1.0607  2.7789
 9736TIP3    H250624   4.992   3.752   0.476  0.5386  0.2977 -0.6564
 9737TIP3   OH250625   4.086   6.732  15.360  0.5703  0.3404  0.1324
 9737TIP3    H150626   4.111   6.794  15.292 -0.7392  0.8088  0.0486
 9737TIP3    H250627   3.991   6.742  15.368  0.2388 -1.9761 -0.2012
 9738TIP3   OH250628   5.712   5.538  11.939 -0.4038 -0.3417 -0.3759
 9738TIP3    H150629   5.752   5.625  11.937 -3.2966  1.1009 -1.6294
 9738TIP3    H250630   5.691   5.519  11.848  0.1657 -2.4169 -0.1317
 9739TIP3   OH250631   2.443   2.372  16.220 -0.1061 -0.3509  0.3900
 9739TIP3    H150632   2.394   2.361  16.139  1.0111 -1.2718 -0.1849
 9739TIP3    H250633   2.484   2.286  16.236  0.8882  0.2316  1.1190
 9740TIP3   OH250634   4.904   0.704   4.580  0.6602  0.1848  0.8550
 9740TIP3    H150635   4.820   0.728   4.540  0.2573 -1.0320  0.9390
 9740TIP3    H250636   4.881   0.680   4.670  0.6907 -2.5288  0.2007
 9741TIP3   OH250637   3.106   4.929  13.001  0.0787  0.0328  0.0883
 9741TIP3    H150638   3.197   4.938  13.031  0.6071  3.3854 -2.0065
 9741TIP3    H250639   3.065   5.012  13.024 -2.0533 -0.8185 -0.4325
 9742TIP3   OH250640   3.449   0.485   4.122  0.1908  0.9014  0.1742
 9742TIP3    H150641   3.473   0.577   4.111  2.1094  0.3675 -0.5668
 9742TIP3    H250642   3.506   0.438   4.060 -0.6544 -0.7990  0.6230
 9743TIP3   OH250643   3.015   3.166  16.735  0.1755 -0.1404  0.1293
 9743TIP3    H150644   2.925   3.161  16.701  0.2815 -1.8115  0.0198
 9743TIP3    H250645   3.014   3.109  16.812  0.9873  0.3779  0.5336
 9744TIP3   OH250646   1.513   0.364  15.077  0.1319 -0.3382  0.5120
 9744TIP3    H150647   1.514   0.440  15.135  0.5301 -0.3341  0.5017
 9744TIP3    H250648   1.558   0.296  15.125  1.8199  0.1139 -0.3733
 9745TIP3   OH250649   4.063   2.527   4.136  0.1479  0.5560 -0.0973
 9745TIP3    H150650   4.057   2.505   4.043  0.2992  0.4739 -0.0893
 9745TIP3    H250651   4.055   2.622   4.139 -2.3614  0.3871  0.0360
 9746TIP3   OH250652   6.061   4.214   3.603 -0.6933  0.0654  0.3577
 9746TIP3    H150653   6.099   4.139   3.649  0.7180  0.7898  0.4298
 9746TIP3    H250654   5.968   4.192   3.594 -0.1361 -2.2226 -0.6353
 9747TIP3   OH250655   3.963   3.226   2.135 -0.1847  0.3861  0.1922
 9747TIP3    H150656   4.018   3.167   2.186  1.5060  1.3511 -0.4269
 9747TIP3    H250657   3.928   3.288   2.199 -0.4500 -0.1631  0.5799
 9748TIP3   OH250658   4.833   3.349   4.398  0.4957 -0.0401  0.0313
 9748TIP3    H150659   4.743   3.318   4.412  0.7206 -0.5856  0.3280
 9748TIP3    H250660   4.829   3.444   4.411 -0.0988 -0.0212 -0.2824
 9749TIP3   OH250661   2.182   5.864   0.626 -0.0618  0.5792  0.0408
 9749TIP3    H150662   2.269   5.873   0.589 -1.3617  4.0614 -2.7567
 9749TIP3    H250663   2.192   5.887   0.718  2.1532 -0.8190  0.2125
 9750TIP3   OH250664   3.395   2.909   5.539  0.4325 -0.5972  0.6041
 9750TIP3    H150665   3.417   2.827   5.495 -0.7665 -1.4532  1.5482
 9750TIP3    H250666   3.423   2.896   5.630  0.4714  0.1458  0.7025
 9751TIP3   OH250667   0.540   3.535   1.977 -0.2980 -0.2674  0.0901
 9751TIP3    H150668   0.488   3.587   1.916 -1.3369 -1.1282  0.2081
 9751TIP3    H250669   0.631   3.551   1.951 -0.6192  1.1620 -0.2072
 9752TIP3   OH250670   3.024   5.169   0.248  0.7239  0.2438 -0.3606
 9752TIP3    H150671   2.943   5.130   0.282  1.1492 -0.4203 -0.0868
 9752TIP3    H250672   3.054   5.106   0.182  1.1357  0.3681 -0.2934
 9753TIP3   OH250673   6.399   2.082  17.228 -0.1296  0.2673 -0.0446
 9753TIP3    H150674   6.427   1.991  17.237  0.7034  0.6004  0.8801
 9753TIP3    H250675   6.308   2.077  17.198  0.0436 -0.8617 -0.3972
 9754TIP3   OH250676   6.330   0.916   5.504  0.4588  0.4489 -0.0805
 9754TIP3    H150677   6.395   0.912   5.434  1.6043  1.8548  0.8321
 9754TIP3    H250678   6.358   0.991   5.558  0.2164 -1.1667  2.4556
 9755TIP3   OH250679   5.371   2.675  14.455 -0.2140  0.3749 -0.7897
 9755TIP3    H150680   5.382   2.641  14.366 -1.4640  0.0780 -0.8529
 9755TIP3    H250681   5.280   2.655  14.477 -0.6296  2.4935 -0.3245
 9756TIP3   OH250682   5.551   6.145   5.657  0.0311  0.0538  0.0185
 9756TIP3    H150683   5.530   6.196   5.735 -1.3270  0.5656 -0.6581
 9756TIP3    H250684   5.522   6.056   5.678  1.3498 -0.2273  0.7621
 9757TIP3   OH250685   3.930   6.678  14.236 -0.2294 -0.5671 -0.0748
 9757TIP3    H150686   4.012   6.630  14.224 -0.5518 -1.2006  0.2455
 9757TIP3    H250687   3.914   6.720  14.151  0.3833 -0.4999 -0.1613
 9758TIP3   OH250688   1.190   5.064  15.117 -0.0654 -0.0849  0.0871
 9758TIP3    H150689   1.174   5.067  15.211  0.2448 -1.2070  0.1901
 9758TIP3    H250690   1.167   5.152  15.086 -1.2471 -0.0430  1.0312
 9759TIP3   OH250691   2.352   0.311   5.821 -0.1551 -0.0715 -0.2904
 9759TIP3    H150692   2.392   0.232   5.784 -2.2373 -1.6612  0.6450
 9759TIP3    H250693   2.329   0.287   5.910 -3.5936  0.4555 -0.8766
 9760TIP3   OH250694   3.452   5.912   5.462  0.6250 -0.5938 -0.1234
 9760TIP3    H150695   3.372   5.878   5.502  0.6666  1.1304  1.5683
 9760TIP3    H250696   3.429   5.923   5.370 -1.9863  2.0998  0.6914
 9761TIP3   OH250697   3.451   2.213  14.082  0.2212  0.2368 -0.5446
 9761TIP3    H150698   3.369   2.187  14.124 -0.9420  1.1604 -2.1177
 9761TIP3    H250699   3.519   2.188  14.144 -1.3777  1.4737  1.8403
 9762TIP3   OH250700   5.548   2.282  12.178 -0.3398  0.7819 -0.3102
 9762TIP3    H150701   5.556   2.377  12.169  1.6423  0.6337 -0.5541
 9762TIP3    H250702   5.621   2.247  12.127 -1.0130 -0.8774 -0.1868
 9763TIP3   OH250703   2.052   1.910  16.211 -0.2705  0.4705 -0.0984
 9763TIP3    H150704   1.960   1.885  16.213 -0.7220  2.0872  1.5358
 9763TIP3    H250705   2.086   1.881  16.296  1.3696 -2.1561 -1.5242
 9764TIP3   OH250706   1.693   3.096  16.407 -0.0244 -0.0816  0.2615
 9764TIP3    H150707   1.655   3.027  16.353 -1.1650  1.1562 -0.5636
 9764TIP3    H250708   1.755   3.140  16.349  1.4820 -1.0079  1.0913
 9765TIP3   OH250709   1.075   3.149   6.678 -0.6501  0.1965 -0.5134
 9765TIP3    H150710   1.128   3.227   6.692 -0.5677  0.0479  0.0601
 9765TIP3    H250711   0.990   3.182   6.650 -0.3069  0.4451 -1.2806
 9766TIP3   OH250712   1.693   5.055  16.288  0.7001  0.6571 -0.0188
 9766TIP3    H150713   1.695   5.143  16.328 -0.4814  0.7487 -0.1318
 9766TIP3    H250714   1.679   5.071  16.195 -2.8131  0.3243  0.3432
 9767TIP3   OH250715   0.474   3.251   2.007  0.3038  0.5864  0.0578
 9767TIP3    H150716   0.482   3.343   2.030  0.4130  0.4376  0.6524
 9767TIP3    H250717   0.433   3.250   1.921  0.3717  1.1896  0.0184
 9768TIP3   OH250718   1.170   4.976   3.403 -0.4376 -0.1693 -0.4908
 9768TIP3    H150719   1.167   4.994   3.309  0.1692  2.3668 -0.0992
 9768TIP3    H250720   1.262   4.986   3.427 -0.8586  1.1470  0.6802
 9769TIP3   OH250721   5.571   1.867  14.173  0.3107  0.8687  0.3402
 9769TIP3    H150722   5.573   1.919  14.092  1.3706  1.7592  0.9036
 9769TIP3    H250723   5.547   1.931  14.240  0.6256  0.4037  0.8959
 9770TIP3   OH250724   1.502   4.154  11.248 -0.0739  0.2394 -0.1727
 9770TIP3    H150725   1.462   4.240  11.240  0.1847  0.3518 -0.2359
 9770TIP3    H250726   1.587   4.170  11.289  0.5443  0.1609 -1.3904
 9771TIP3   OH250727   2.421   5.832   0.489  0.2428 -0.5632 -0.3403
 9771TIP3    H150728   2.481   5.788   0.429 -0.4463 -1.8578 -0.1133
 9771TIP3    H250729   2.478   5.872   0.555  0.9123 -0.6110 -0.8808
 9772TIP3   OH250730   0.475   5.084   0.690 -0.4381  0.0443  0.5063
 9772TIP3    H150731   0.553   5.118   0.647  0.2343 -0.5637  1.2122
 9772TIP3    H250732   0.471   4.992   0.662 -0.4096 -0.1568  1.1544
 9773TIP3   OH250733   4.782   2.995   4.029 -0.5853 -0.3011 -0.4836
 9773TIP3    H150734   4.846   2.958   3.968  0.7588  1.4041 -0.1863
 9773TIP3    H250735   4.826   2.993   4.114 -1.1316  0.3785 -0.1705
 9774TIP3   OH250736   2.451   5.937   0.956  0.3579 -0.9620 -0.3518
 9774TIP3    H150737   2.458   5.923   1.050  0.5884  0.1729 -0.1805
 9774TIP3    H250738   2.532   5.984   0.933 -0.3046 -0.0318 -0.8586
 9775TIP3   OH250739   1.191   2.293  15.893  0.6402 -0.6448  0.1085
 9775TIP3    H150740   1.105   2.333  15.878  0.3114 -1.2381  0.3672
 9775TIP3    H250741   1.188   2.264  15.985  1.7420  0.8221  0.6442
 9776TIP3   OH250742   1.061   3.725  16.969 -0.1616 -0.6612  0.0803
 9776TIP3    H150743   1.030   3.704  16.881  2.2249  1.0980 -1.2808
 9776TIP3    H250744   1.022   3.810  16.989  1.3139  0.1590 -0.4070
 9777TIP3   OH250745   0.249   1.227  12.489  0.5809 -0.2814 -0.2114
 9777TIP3    H150746   0.173   1.283  12.504 -0.8626 -1.7736 -1.4967
 9777TIP3    H250747   0.276   1.199  12.576 -2.0755 -1.8350  0.2233
 9778TIP3   OH250748   5.025   3.866  14.336  0.3242  0.0533  0.0205
 9778TIP3    H150749   5.022   3.842  14.243  0.6377  1.1008 -0.2809
 9778TIP3    H250750   5.005   3.785  14.383  0.4459 -0.5575 -0.9539
 9779TIP3   OH250751   0.407   0.862  11.156 -0.3407  0.3731 -0.1181
 9779TIP3    H150752   0.415   0.929  11.087 -1.1684  0.4399 -0.1587
 9779TIP3    H250753   0.418   0.911  11.238  1.2419  0.2020 -0.1956
 9780TIP3   OH250754   5.758   3.675  16.862 -0.4658 -0.5163 -0.2124
 9780TIP3    H150755   5.683   3.724  16.895 -0.4240 -0.7499  0.2357
 9780TIP3    H250756   5.784   3.619  16.935  1.1273  0.6876  0.2128
 9781TIP3   OH250757   2.165   4.366  12.282 -0.4614  0.0026 -0.7591
 9781TIP3    H150758   2.238   4.308  12.259 -0.5221  0.5328 -2.3994
 9781TIP3    H250759   2.113   4.315  12.344 -0.4201 -1.6371 -2.0131
 9782TIP3   OH250760   2.713   1.732  15.135  0.0067 -0.0108  0.3392
 9782TIP3    H150761   2.709   1.788  15.212  1.4000  1.6881 -0.7426
 9782TIP3    H250762   2.800   1.692  15.137 -0.2310 -0.5597  0.0431
 9783TIP3   OH250763   5.576   3.535  12.412 -0.3653 -0.1436  0.0187
 9783TIP3    H150764   5.488   3.530  12.448 -0.1851 -2.0424  0.2656
 9783TIP3    H250765   5.569   3.495  12.325  0.0116  0.8677 -0.5002
 9784TIP3   OH250766   6.238   6.658   5.123 -0.0231 -0.3059  0.3819
 9784TIP3    H150767   6.305   6.697   5.068  0.5758 -2.1863 -0.2932
 9784TIP3    H250768   6.155   6.688   5.084  0.3660  1.6374  0.9414
 9785TIP3   OH250769   3.824   0.440   5.914  0.3275 -0.1538 -0.5485
 9785TIP3    H150770   3.794   0.461   6.002  0.6817 -0.6672 -0.2984
 9785TIP3    H250771   3.771   0.365   5.887  1.8688 -1.6022  0.2227
 9786TIP3   OH250772   2.096   5.972   5.596  0.5323 -0.4576 -0.2392
 9786TIP3    H150773   2.120   5.883   5.622  0.3848 -0.4669 -0.1326
 9786TIP3    H250774   2.137   6.028   5.662  0.0018 -0.4913  0.1334
 9787TIP3   OH250775   2.757   0.558   3.568 -0.4114 -0.2499 -0.3138
 9787TIP3    H150776   2.719   0.643   3.542 -0.6655 -0.3297 -0.2103
 9787TIP3    H250777   2.784   0.518   3.485  1.0962  0.5723 -0.2473
 9788TIP3   OH250778   4.565   4.105  16.947 -0.3126  0.1229  0.0312
 9788TIP3    H150779   4.497   4.158  16.988 -1.3079 -0.2685 -1.0678
 9788TIP3    H250780   4.519   4.055  16.880  0.7859 -1.3414  0.3305
 9789TIP3   OH250781   0.839   6.311   2.576  0.2280  0.0275 -0.3327
 9789TIP3    H150782   0.859   6.395   2.534 -0.4689  0.6232  0.4869
 9789TIP3    H250783   0.905   6.302   2.644  1.3386 -0.9234 -1.5005
 9790TIP3   OH250784   4.408   1.586   2.948 -0.5785 -0.7553  0.0144
 9790TIP3    H150785   4.354   1.555   2.875 -0.4423  0.1134 -0.4641
 9790TIP3    H250786   4.345   1.623   3.010 -0.6843 -1.3967  0.3052
 9791TIP3   OH250787   2.174   6.234  12.671  0.8173 -0.2107 -0.3018
 9791TIP3    H150788   2.257   6.215  12.714  0.5970 -0.8636 -0.1620
 9791TIP3    H250789   2.198   6.280  12.591  1.4158 -1.8092 -1.0789
 9792TIP3   OH250790   5.269   2.402   5.476 -0.2564 -0.0499 -0.1241
 9792TIP3    H150791   5.217   2.361   5.544  1.5181 -1.9917  0.1882
 9792TIP3    H250792   5.356   2.362   5.485  1.0688  2.3716 -1.1529
 9793TIP3   OH250793   4.506   2.945  13.536  0.4239  0.4413 -0.0373
 9793TIP3    H150794   4.497   2.978  13.447  0.8821 -0.5889 -0.4838
 9793TIP3    H250795   4.582   2.991  13.571  1.1223 -0.1998 -0.6871
 9794TIP3   OH250796   0.460   6.257   3.934 -0.0945  0.6264 -0.1314
 9794TIP3    H150797   0.539   6.310   3.926 -0.9256  1.7344 -1.3806
 9794TIP3    H250798   0.394   6.317   3.967 -1.0581  0.3971 -1.5634
 9795TIP3   OH250799   6.339   5.446   2.667 -0.1618  0.1616 -0.3423
 9795TIP3    H150800   6.417   5.432   2.721 -0.9502  0.2044  0.8459
 9795TIP3    H250801   6.287   5.367   2.678 -2.0623  1.5843  1.9988
 9796TIP3   OH250802   3.734   4.106  16.806  0.2758  0.6913  0.9529
 9796TIP3    H150803   3.705   4.164  16.876 -0.4530 -1.0425  2.1685
 9796TIP3    H250804   3.806   4.056  16.845 -0.2946 -0.4591  0.5810
 9797TIP3   OH250805   4.374   1.895   0.606  0.2231 -0.2054  0.4903
 9797TIP3    H150806   4.437   1.854   0.547  0.7970  1.2152  0.0693
 9797TIP3    H250807   4.289   1.870   0.571  0.5600 -0.8626  0.1302
 9798TIP3   OH250808   5.376   2.661   5.025 -0.3125  0.1711  0.4250
 9798TIP3    H150809   5.462   2.649   4.983 -0.5059  2.4436 -0.7548
 9798TIP3    H250810   5.341   2.572   5.033  0.5534 -0.5592 -2.6046
 9799TIP3   OH250811   6.653   5.186  11.441  0.3387  0.1479  0.4013
 9799TIP3    H150812   6.606   5.130  11.379 -0.4358 -0.5079  1.5259
 9799TIP3    H250813   6.649   5.273  11.403  2.1475 -0.6138 -1.7302
 9800TIP3   OH250814   3.752   2.768  16.801 -0.1276  0.2255 -0.2580
 9800TIP3    H150815   3.682   2.715  16.840 -0.7890  1.9790  1.0289
 9800TIP3    H250816   3.833   2.734  16.840 -0.2069 -1.6740 -1.5933
 9801TIP3   OH250817   4.261   1.128  11.154 -0.0399 -0.2102  0.2996
 9801TIP3    H150818   4.331   1.180  11.193  0.9258 -2.2208  1.4435
 9801TIP3    H250819   4.303   1.043  11.136 -1.5718 -0.6825 -1.2857
 9802TIP3   OH250820   0.149   6.583   4.650 -0.8206 -0.5686  0.0473
 9802TIP3    H150821   0.104   6.667   4.656 -0.9981 -0.7230  1.1421
 9802TIP3    H250822   0.126   6.537   4.731  0.1566 -1.2251 -0.0194
 9803TIP3   OH250823   2.167   5.794  11.848 -0.5225 -0.2945 -0.1757
 9803TIP3    H150824   2.082   5.760  11.875 -0.1487 -1.2600 -0.1714
 9803TIP3    H250825   2.217   5.801  11.929 -0.3450 -0.4846 -0.2658
 9804TIP3   OH250826   0.365   3.769  12.770  0.0409  0.0542 -0.1945
 9804TIP3    H150827   0.436   3.810  12.819 -1.0951  0.5107  1.1483
 9804TIP3    H250828   0.285   3.807  12.808 -0.9276  0.9882 -2.8759
 9805TIP3   OH250829   6.125   1.834  11.029 -0.0341 -0.2774  0.1843
 9805TIP3    H150830   6.128   1.815  11.122 -2.5686 -1.7237  0.0823
 9805TIP3    H250831   6.201   1.789  10.992 -0.0173 -1.2406  1.3385
 9806TIP3   OH250832   2.862   2.006  14.612  0.0943  0.0458 -0.2587
 9806TIP3    H150833   2.787   1.967  14.566 -0.6759 -0.3799  1.2903
 9806TIP3    H250834   2.873   1.951  14.690 -0.5785  2.4847  1.6657
 9807TIP3   OH250835   5.354   6.012  13.072  0.8296  0.0981 -0.0475
 9807TIP3    H150836   5.340   5.919  13.052  0.7884  0.1980 -0.4894
 9807TIP3    H250837   5.442   6.031  13.038  0.1097  0.6920 -1.7145
 9808TIP3   OH250838   1.804   3.977   2.304  0.7066 -0.7202 -0.6359
 9808TIP3    H150839   1.750   3.933   2.369 -0.8295  1.2348 -0.5147
 9808TIP3    H250840   1.891   3.982   2.344  0.2275 -1.1486  0.4891
 9809TIP3   OH250841   2.977   1.126   2.292  0.0593 -0.3610  0.1324
 9809TIP3    H150842   2.882   1.131   2.278  0.1874  2.2740 -0.1439
 9809TIP3    H250843   2.991   1.168   2.376  1.0078 -0.8572  0.2331
 9810TIP3   OH250844   2.218   4.141   1.253  0.0222  0.3246  0.5101
 9810TIP3    H150845   2.246   4.222   1.296 -1.1371  0.5508  0.8806
 9810TIP3    H250846   2.297   4.088   1.248  0.5346  0.9645  1.4335
 9811TIP3   OH250847   1.783   1.452  13.498  0.1888 -0.6442 -0.2156
 9811TIP3    H150848   1.790   1.484  13.408 -0.4296  0.7768  0.2049
 9811TIP3    H250849   1.706   1.394  13.496  1.3338 -2.2069 -0.9944
 9812TIP3   OH250850   6.067   3.798  16.243  0.1347 -0.0458 -0.0073
 9812TIP3    H150851   6.079   3.713  16.285 -0.9079  0.1559  0.7399
 9812TIP3    H250852   6.144   3.808  16.187  0.9546 -0.8677  0.9290
 9813TIP3   OH250853   6.365   2.782   4.848  0.1081  0.0803  0.1845
 9813TIP3    H150854   6.370   2.878   4.844 -0.6948  0.4160  3.7587
 9813TIP3    H250855   6.340   2.756   4.760 -3.6912  3.5417 -0.0712
 9814TIP3   OH250856   4.989   1.529  16.655 -0.1974  0.2587  0.1228
 9814TIP3    H150857   4.998   1.610  16.604 -0.0675 -0.1483 -0.5102
 9814TIP3    H250858   4.955   1.558  16.740 -0.6020  0.9244 -0.2572
 9815TIP3   OH250859   4.365   4.547   4.312  0.2728  0.0136 -0.0695
 9815TIP3    H150860   4.308   4.618   4.342 -0.2932 -0.5507  0.2098
 9815TIP3    H250861   4.443   4.591   4.279  0.6712  0.7152  1.6699
 9816TIP3   OH250862   3.257   4.407  13.894 -0.3312 -0.4756 -0.5765
 9816TIP3    H150863   3.236   4.497  13.870 -0.8681 -0.1141  1.1113
 9816TIP3    H250864   3.187   4.355  13.854  0.7099 -0.3519 -2.7029
 9817TIP3   OH250865   5.488   0.004   3.530  0.2352  0.5716  0.3637
 9817TIP3    H150866   5.432   0.053   3.469  0.5805 -0.9905 -1.3166
 9817TIP3    H250867   5.562  -0.024   3.476  0.8205 -0.4365  1.6385
 9818TIP3   OH250868   3.648   1.285  14.155 -0.2934  0.0957  0.0133
 9818TIP3    H150869   3.693   1.341  14.218  0.1962 -0.1743 -0.0951
 9818TIP3    H250870   3.713   1.269  14.087 -0.7182  0.1240 -0.4046
 9819TIP3   OH250871   3.607   2.850  17.138  0.7650 -0.1149 -0.0079
 9819TIP3    H150872   3.670   2.915  17.107  0.9314  0.5823  1.6889
 9819TIP3    H250873   3.552   2.897  17.201  0.4940 -1.4404  0.7940
 9820TIP3   OH250874   3.509   5.224   1.265 -0.8349  0.0838 -0.1981
 9820TIP3    H150875   3.466   5.139   1.256 -1.5421  0.3338  0.6140
 9820TIP3    H250876   3.456   5.270   1.331  0.1296  0.7654  0.1207
 9821TIP3   OH250877   6.697   2.987  15.229 -0.5985 -0.2967 -0.4146
 9821TIP3    H150878   6.768   3.044  15.198  1.5815 -2.8615 -0.5218
 9821TIP3    H250879   6.679   3.017  15.318  0.8463  0.2334 -0.2725
 9822TIP3   OH250880   2.205   3.972  11.854 -0.4708  0.2554  0.1251
 9822TIP3    H150881   2.235   3.890  11.894  2.9632  1.1185 -0.3652
 9822TIP3    H250882   2.166   3.945  11.771  1.3367 -0.9176 -0.4244
 9823TIP3   OH250883   5.950   5.575  11.224 -0.1618  0.7526  0.3854
 9823TIP3    H150884   6.017   5.642  11.208  1.6436 -1.3602 -1.8174
 9823TIP3    H250885   5.904   5.567  11.140 -0.4628 -0.5957  0.6585
 9824TIP3   OH250886   6.217   3.969   0.605 -0.2815  0.0452  0.6006
 9824TIP3    H150887   6.274   4.000   0.534 -0.8266 -0.3278 -0.0163
 9824TIP3    H250888   6.133   4.011   0.587 -0.6609 -0.7317  0.5177
 9825TIP3   OH250889   2.965   3.763  16.362  0.3014 -0.6101 -0.5521
 9825TIP3    H150890   3.022   3.720  16.426 -0.3111 -0.9222 -0.2017
 9825TIP3    H250891   2.877   3.753  16.398  0.1122  0.7442 -0.5858
 9826TIP3   OH250892   6.721   6.032  12.906 -0.4602 -0.0617 -0.2034
 9826TIP3    H150893   6.695   6.001  12.819 -0.8803 -0.3152  0.0125
 9826TIP3    H250894   6.761   6.117  12.889  2.6736 -1.5572 -1.0635
 9827TIP3   OH250895   2.628   4.265   5.701  0.2031 -0.0157  0.3420
 9827TIP3    H150896   2.715   4.232   5.723  1.3489  1.3715 -1.8510
 9827TIP3    H250897   2.598   4.308   5.781  1.5745 -0.3566  1.0765
 9828TIP3   OH250898   1.112   4.322   2.105  0.7706 -0.7071 -0.1567
 9828TIP3    H150899   1.115   4.278   2.020 -1.2719  2.2281 -1.9196
 9828TIP3    H250900   1.173   4.395   2.096 -1.2631  1.1036 -0.1410
 9829TIP3   OH250901   0.591   2.749  13.011  0.0487  0.7326  0.1276
 9829TIP3    H150902   0.607   2.780  12.922 -1.2102 -0.1777 -0.4462
 9829TIP3    H250903   0.496   2.740  13.018  0.0041  1.9726  2.0042
 9830TIP3   OH250904   4.925   2.664   5.805  0.2896  0.1306 -0.7052
 9830TIP3    H150905   4.970   2.742   5.772  1.2684  0.3921  1.1600
 9830TIP3    H250906   4.835   2.694   5.820  1.1240  1.5920  2.0080
 9831TIP3   OH250907   4.560   1.939   1.109  0.3332 -0.5413 -0.2129
 9831TIP3    H150908   4.633   2.000   1.116  0.7834 -1.2568  2.8016
 9831TIP3    H250909   4.571   1.897   1.024  3.0300 -0.1245 -0.1560
 9832TIP3   OH250910   4.789   5.634   3.096  0.0804 -0.2648  0.2267
 9832TIP3    H150911   4.819   5.711   3.046 -2.0753  0.1075 -0.6462
 9832TIP3    H250912   4.816   5.559   3.043  1.9269 -0.1456  0.9260
 9833TIP3   OH250913   4.661   4.006   6.120  0.0628  0.0189 -0.4388
 9833TIP3    H150914   4.678   3.913   6.106 -1.2999 -0.0950 -1.6159
 9833TIP3    H250915   4.744   4.042   6.150  0.9685 -1.3470 -1.2135
 9834TIP3   OH250916   2.047   4.166   0.129 -0.4853  0.2031  0.2464
 9834TIP3    H150917   2.041   4.095   0.065  0.2233  0.6042 -0.2790
 9834TIP3    H250918   1.959   4.173   0.165 -0.6453 -0.7210  0.0656
 9835TIP3   OH250919   3.981   3.735   5.018  0.3062 -0.2939 -0.4828
 9835TIP3    H150920   3.908   3.703   4.964 -2.0028  1.6359  1.2563
 9835TIP3    H250921   4.019   3.806   4.966 -2.6994  2.4094  0.6959
 9836TIP3   OH250922   1.826   4.767  11.750 -0.0874 -0.2139 -0.0312
 9836TIP3    H150923   1.732   4.770  11.771 -0.1031  0.2138 -0.1562
 9836TIP3    H250924   1.855   4.683  11.784 -0.3824 -0.0704  0.5962
 9837TIP3   OH250925   5.277   5.055  14.897 -0.2628  0.3222  0.1582
 9837TIP3    H150926   5.361   5.095  14.875  0.1495 -0.2052  0.7414
 9837TIP3    H250927   5.213   5.103  14.844  0.5639 -0.2647 -1.4380
 9838TIP3   OH250928   0.848   2.715   3.585 -0.7495 -0.0463  0.0309
 9838TIP3    H150929   0.928   2.737   3.632 -0.0910  1.0498 -1.5004
 9838TIP3    H250930   0.866   2.629   3.546 -0.8525 -0.4198  0.7953
 9839TIP3   OH250931   1.356   2.806   0.661  0.5902  0.8624 -1.0726
 9839TIP3    H150932   1.427   2.769   0.712 -0.9070  0.2272  0.6562
 9839TIP3    H250933   1.322   2.732   0.610  0.4900  0.9234 -1.0950
 9840TIP3   OH250934   0.438   6.400   1.665  0.2367  0.4325  0.0171
 9840TIP3    H150935   0.368   6.386   1.601  0.7896  0.2173 -0.5461
 9840TIP3    H250936   0.437   6.495   1.681  1.2398  0.7752 -1.6674
 9841TIP3   OH250937   5.349   3.195  17.304  0.2214  0.7499  0.5185
 9841TIP3    H150938   5.432   3.198  17.258  0.3703 -0.2647  0.7020
 9841TIP3    H250939   5.353   3.268  17.366  1.6107 -0.1816  1.5665
 9842TIP3   OH250940   2.592   5.338   2.436  0.6024  0.0286  0.2978
 9842TIP3    H150941   2.618   5.421   2.395  1.9187 -1.4334 -2.0560
 9842TIP3    H250942   2.565   5.363   2.524  1.7592  2.8422 -0.0166
 9843TIP3   OH250943   5.379   2.002  12.496 -0.0497 -0.0218  0.0748
 9843TIP3    H150944   5.466   2.007  12.455 -1.1852  0.3868 -2.4478
 9843TIP3    H250945   5.343   2.090  12.487 -0.7798 -0.1981  1.0591
 9844TIP3   OH250946   6.328   5.543   4.697  0.1809 -0.1385 -0.3863
 9844TIP3    H150947   6.371   5.620   4.735  0.4377 -0.9584  1.0899
 9844TIP3    H250948   6.397   5.501   4.645  0.0322  0.6186 -1.2190
 9845TIP3   OH250949   3.144   1.792  16.628 -0.3035  0.1578 -0.0680
 9845TIP3    H150950   3.081   1.762  16.694  0.1151 -0.0295  0.2507
 9845TIP3    H250951   3.191   1.713  16.602  1.1427  0.5777  1.1240
 9846TIP3   OH250952   1.059   5.794   4.657  0.6017  0.2251 -0.0496
 9846TIP3    H150953   1.017   5.853   4.719 -1.5406  0.7846 -1.9089
 9846TIP3    H250954   1.043   5.706   4.692  0.6042  0.5689  0.8412
 9847TIP3   OH250955   5.336   2.810  11.889  0.1687 -0.0181 -0.0256
 9847TIP3    H150956   5.370   2.899  11.903  0.0745  0.3461 -1.7670
 9847TIP3    H250957   5.285   2.791  11.967  1.0939  1.0317  0.8677
 9848TIP3   OH250958   0.313   3.180  16.319 -0.0042  0.2349  0.2865
 9848TIP3    H150959   0.357   3.162  16.236  0.4769 -0.0975  0.6095
 9848TIP3    H250960   0.345   3.112  16.379 -1.7194 -0.6489  0.2641
 9849TIP3   OH250961   1.457   2.375   5.722 -0.5363 -0.4524 -0.1381
 9849TIP3    H150962   1.395   2.390   5.793 -0.9698  0.0112 -0.6111
 9849TIP3    H250963   1.517   2.449   5.727 -0.4629 -0.5111 -0.1479
 9850TIP3   OH250964   6.408   0.666  10.818  0.2366  0.3738  0.2317
 9850TIP3    H150965   6.418   0.677  10.723  1.1727  2.0920  0.4875
 9850TIP3    H250966   6.403   0.571  10.831  3.3211 -0.1345 -1.2771
 9851TIP3   OH250967   2.204   2.556   4.218  0.2692  0.0689  0.4793
 9851TIP3    H150968   2.211   2.644   4.181 -0.9750  0.1133  0.3240
 9851TIP3    H250969   2.151   2.507   4.155 -0.6604 -0.2537  1.4953
 9852TIP3   OH250970   6.228   5.415   0.703  0.4803 -0.5117  0.4476
 9852TIP3    H150971   6.139   5.382   0.692  1.0304 -1.8733 -0.1486
 9852TIP3    H250972   6.237   5.429   0.798 -0.2324 -0.7550  0.5562
 9853TIP3   OH250973   1.508   6.304   5.645  0.1387  0.0578  0.2712
 9853TIP3    H150974   1.502   6.306   5.549  1.1255  0.7172  0.2133
 9853TIP3    H250975   1.481   6.391   5.672 -1.3768 -0.5105  0.6973
 9854TIP3   OH250976   6.102   4.401   3.283  0.2873  0.0485  0.8379
 9854TIP3    H150977   6.010   4.396   3.308 -0.1610  1.8781 -0.3082
 9854TIP3    H250978   6.126   4.493   3.295  0.9798  0.3571 -2.0329
 9855TIP3   OH250979   5.969   0.970   0.432 -0.2677 -0.3322 -0.4138
 9855TIP3    H150980   5.979   0.988   0.526  2.5556 -1.0556 -0.4823
 9855TIP3    H250981   5.877   0.946   0.422 -0.8732  0.7058  1.9884
 9856TIP3   OH250982   0.209   2.167   1.690 -0.0116  0.0594  0.5201
 9856TIP3    H150983   0.267   2.232   1.652 -0.8089  0.8974  0.6955
 9856TIP3    H250984   0.154   2.217   1.752  0.9432 -1.1656  2.4503
 9857TIP3   OH250985   6.625   3.091  15.860 -0.0076 -0.3965 -0.7073
 9857TIP3    H150986   6.694   3.033  15.892  1.2383  1.4336  0.1025
 9857TIP3    H250987   6.557   3.085  15.928 -0.6758 -2.1379 -1.4659
 9858TIP3   OH250988   2.563   5.233  14.026  0.4299  0.0528  0.5362
 9858TIP3    H150989   2.470   5.214  14.013  0.3880  0.6049 -0.0066
 9858TIP3    H250990   2.603   5.216  13.941  0.8901 -0.5016  0.8523
 9859TIP3   OH250991   2.281   1.326   6.354  0.4907  0.5814 -0.1568
 9859TIP3    H150992   2.359   1.368   6.391  0.3243  0.9223 -0.1850
 9859TIP3    H250993   2.225   1.309   6.430  0.9612 -0.4693 -0.0293
 9860TIP3   OH250994   3.524   2.867  11.018 -0.1865  1.0197  0.1458
 9860TIP3    H150995   3.616   2.843  11.008  0.6918  3.7282  0.9870
 9860TIP3    H250996   3.520   2.917  11.099 -3.1850 -2.2326  2.3619
 9861TIP3   OH250997   2.423   0.330   0.646  0.2564 -0.2707  0.6313
 9861TIP3    H150998   2.513   0.299   0.640  0.4482  0.5969 -1.6553
 9861TIP3    H250999   2.374   0.273   0.587 -0.3934  0.3438  0.5711
 9862TIP3   OH251000   5.965   5.036   1.170  0.1631 -0.2516 -0.5685
 9862TIP3    H151001   5.933   5.010   1.083  0.8354 -1.7757 -0.4035
 9862TIP3    H251002   5.958   4.956   1.222 -1.3515  0.9159  1.1540
 9863TIP3   OH251003   0.850   2.430   3.592 -0.1184  0.3153  0.1858
 9863TIP3    H151004   0.851   2.446   3.686 -0.4015  1.5323 -0.0033
 9863TIP3    H251005   0.778   2.369   3.578 -1.1575  1.4210  0.5780
 9864TIP3   OH251006   5.730   6.285  16.997  0.4136  0.0125  0.0545
 9864TIP3    H151007   5.673   6.296  17.074  2.9899 -0.5598  2.1985
 9864TIP3    H251008   5.684   6.221  16.943 -0.0896 -2.0712  2.7288
 9865TIP3   OH251009   5.786   0.485  13.396  0.0615 -1.1331  0.7744
 9865TIP3    H151010   5.870   0.485  13.443 -0.4516 -0.7284  1.7322
 9865TIP3    H251011   5.762   0.577  13.391  0.1905 -1.1557 -0.4773
 9866TIP3   OH251012   6.527   6.157  16.183  0.0498  0.0712 -0.3407
 9866TIP3    H151013   6.616   6.120  16.184  0.7502  1.6669  0.6818
 9866TIP3    H251014   6.531   6.227  16.118 -0.8517 -0.6295 -1.1934
 9867TIP3   OH251015   0.121   4.239   4.803  0.3371  0.3908 -0.9713
 9867TIP3    H151016   0.182   4.259   4.731 -0.7365 -0.6384 -2.2077
 9867TIP3    H251017   0.108   4.144   4.798 -1.1865  0.5532 -0.6032
 9868TIP3   OH251018   6.417   4.395  15.767  0.1280 -0.3009 -0.1281
 9868TIP3    H151019   6.347   4.367  15.707 -0.3644 -0.4510  0.5065
 9868TIP3    H251020   6.371   4.428  15.844  0.7730 -1.1577  0.6376
 9869TIP3   OH251021   3.012   0.106  13.961 -0.3645 -0.1949  0.0099
 9869TIP3    H151022   2.924   0.137  13.937 -1.2696 -3.1623 -0.8985
 9869TIP3    H251023   3.056   0.093  13.877  0.8646  0.8495  0.4482
 9870TIP3   OH251024   2.718   3.000  14.268  0.1044  0.2186 -0.3132
 9870TIP3    H151025   2.657   3.006  14.342  0.7573 -0.0269  0.2528
 9870TIP3    H251026   2.805   3.004  14.308  0.4846 -0.9541 -0.9628
 9871TIP3   OH251027   2.185   4.461  13.297  0.3832  0.3023  0.0822
 9871TIP3    H151028   2.099   4.493  13.273  0.4187  1.6948  1.6011
 9871TIP3    H251029   2.244   4.496  13.230 -0.1435 -0.2495 -0.6838
 9872TIP3   OH251030   0.164   4.083   5.075  0.3142  0.6652 -0.4131
 9872TIP3    H151031   0.182   4.109   5.166 -0.9923 -0.0860  0.0891
 9872TIP3    H251032   0.100   4.147   5.044  1.2326  1.3114 -1.0564
 9873TIP3   OH251033   5.324   0.191  15.203 -0.2978  0.3297 -0.1565
 9873TIP3    H151034   5.263   0.160  15.270 -0.2830  1.9020  0.6230
 9873TIP3    H251035   5.270   0.242  15.143 -0.0483  0.2106 -0.4877
 9874TIP3   OH251036   1.146   4.716   1.933 -0.4398 -0.2162  0.1159
 9874TIP3    H151037   1.194   4.675   1.861  0.4158 -1.0094  1.0973
 9874TIP3    H251038   1.062   4.671   1.934 -0.1551 -0.7643  0.0922
 9875TIP3   OH251039   4.240   4.983   0.035 -0.3672  0.0047 -0.1500
 9875TIP3    H151040   4.266   5.074   0.045  0.2428  0.0067 -1.5385
 9875TIP3    H251041   4.322   4.934   0.031 -0.6179 -0.3428 -1.5916
 9876TIP3   OH251042   5.605   1.353   0.862 -0.0994 -0.2008  0.6137
 9876TIP3    H151043   5.549   1.328   0.789 -0.5374  1.6015  0.2996
 9876TIP3    H251044   5.545   1.373   0.933  0.2060  0.4244  0.6995
 9877TIP3   OH251045   0.873   4.087  15.228 -0.4568 -0.1365  0.5641
 9877TIP3    H151046   0.880   4.122  15.317 -0.6834  1.0094  0.1384
 9877TIP3    H251047   0.786   4.113  15.199 -0.6971 -1.2039  0.2842
 9878TIP3   OH251048   1.735   2.588   0.017 -0.6399 -0.2360 -0.0408
 9878TIP3    H151049   1.761   2.673  -0.019  0.4056 -1.1709 -1.5849
 9878TIP3    H251050   1.769   2.589   0.107  1.5457  0.0505 -0.8144
 9879TIP3   OH251051   2.454   4.920   1.228 -0.1795  0.3148  0.0624
 9879TIP3    H151052   2.397   4.996   1.217 -1.3534 -0.4093  0.8568
 9879TIP3    H251053   2.438   4.890   1.317  0.6836 -0.5252 -0.0464
 9880TIP3   OH251054   1.024   4.516  11.796  0.2882  0.1870 -0.8091
 9880TIP3    H151055   1.107   4.564  11.797 -0.8941  2.3536  0.3015
 9880TIP3    H251056   0.960   4.578  11.831 -2.1004 -0.8919 -2.9244
 9881TIP3   OH251057   1.580   6.659  12.155  0.3431 -0.1719 -0.1137
 9881TIP3    H151058   1.544   6.570  12.157 -0.7672  0.2449 -0.7667
 9881TIP3    H251059   1.612   6.674  12.244 -3.3476  0.3063  1.2901
 9882TIP3   OH251060   6.726   4.947  11.755 -0.3092 -0.0526 -0.0101
 9882TIP3    H151061   6.656   5.010  11.739  0.0011  0.1802 -0.4781
 9882TIP3    H251062   6.777   4.986  11.827 -0.5871 -0.1660  0.2510
 9883TIP3   OH251063   1.034   2.123   3.910 -0.1868 -0.1487  0.1757
 9883TIP3    H151064   1.108   2.084   3.958 -1.2250 -0.6566  1.4191
 9883TIP3    H251065   0.976   2.155   3.979 -2.7515 -2.7304 -0.6085
 9884TIP3   OH251066   6.052   2.743  14.050 -0.7934 -0.3790  0.0108
 9884TIP3    H151067   6.089   2.727  14.137 -2.2357  0.0557  0.7515
 9884TIP3    H251068   5.963   2.707  14.055 -0.9543 -0.1924 -1.2327
 9885TIP3   OH251069   2.618   6.567  13.166 -0.3333  0.2895 -0.1081
 9885TIP3    H151070   2.595   6.590  13.076 -2.4170 -2.3719 -0.4125
 9885TIP3    H251071   2.547   6.602  13.219 -1.4028 -1.7130 -0.1107
 9886TIP3   OH251072   3.606   1.582  13.075  0.5421 -0.7576  0.7122
 9886TIP3    H151073   3.611   1.567  12.981  1.7517  2.2016  0.2181
 9886TIP3    H251074   3.681   1.535  13.111  1.5769  0.1921 -0.1582
 9887TIP3   OH251075   2.519   6.051  12.287  0.2819  0.1796  0.2480
 9887TIP3    H151076   2.514   6.067  12.192 -0.4044 -0.6160  0.1388
 9887TIP3    H251077   2.585   5.982  12.295 -0.0258 -0.1121  0.2964
 9888TIP3   OH251078   0.216   5.271   4.448  0.0919 -0.1038 -0.1683
 9888TIP3    H151079   0.217   5.214   4.371  2.3789 -0.0039 -0.2780
 9888TIP3    H251080   0.194   5.213   4.521 -0.0208 -0.6235 -0.6150
 9889TIP3   OH251081   6.215   6.291   2.108 -0.4173  0.1047 -0.5502
 9889TIP3    H151082   6.253   6.357   2.050  0.0547  0.9414  0.6693
 9889TIP3    H251083   6.264   6.211   2.090  1.2981  0.9240  0.2951
 9890TIP3   OH251084   2.299   5.537  11.810  0.9086  0.3111 -0.0427
 9890TIP3    H151085   2.225   5.494  11.852  1.3676 -0.6814 -0.2316
 9890TIP3    H251086   2.259   5.589  11.740  0.2438  1.1209  0.8969
 9891TIP3   OH251087   2.514   4.499  13.700  0.0764  0.5208 -0.7390
 9891TIP3    H151088   2.487   4.538  13.616 -1.1622 -1.5362 -1.3722
 9891TIP3    H251089   2.538   4.409  13.677 -2.3485 -0.7753  1.3786
 9892TIP3   OH251090   4.209   0.696   5.827  0.5509  0.0135 -0.2223
 9892TIP3    H151091   4.267   0.728   5.758  0.1219  1.7005  0.1526
 9892TIP3    H251092   4.256   0.713   5.908  0.2484 -0.2109  0.0057
 9893TIP3   OH251093   5.108   2.118   0.485 -0.0480 -0.6451  0.1999
 9893TIP3    H151094   5.047   2.185   0.515  1.2917  0.2722  0.9916
 9893TIP3    H251095   5.177   2.167   0.440  0.9180 -1.4974  0.7193
 9894TIP3   OH251096   1.649   6.046  13.366 -0.6031 -0.1675 -0.1448
 9894TIP3    H151097   1.641   6.135  13.333 -2.0561  1.1790  3.3646
 9894TIP3    H251098   1.709   6.003  13.306 -2.5196  2.0490 -4.0282
 9895TIP3   OH251099   5.586   3.183   3.039  0.1090  0.2388  0.2167
 9895TIP3    H151100   5.548   3.135   2.965  0.2438  1.4933 -0.6899
 9895TIP3    H251101   5.549   3.140   3.116  0.9604 -1.9423 -0.4972
 9896TIP3   OH251102   1.919   4.111   3.161 -0.7386  0.1499  0.3885
 9896TIP3    H151103   1.894   4.032   3.209  0.2395 -0.0099  0.6540
 9896TIP3    H251104   1.978   4.157   3.221 -0.6347  0.6614 -0.1026
 9897TIP3   OH251105   6.314   4.722  16.440 -0.6165 -0.4833  0.5514
 9897TIP3    H151106   6.392   4.726  16.385 -1.0794 -1.8514 -0.2277
 9897TIP3    H251107   6.309   4.809  16.480  0.5031  0.0844 -0.4866
 9898TIP3   OH251108   2.213   2.422   1.212  0.0446 -0.0281  0.2613
 9898TIP3    H151109   2.151   2.349   1.201  0.4549 -0.3431  0.0039
 9898TIP3    H251110   2.158   2.499   1.226 -0.4297 -0.1249 -0.9913
 9899TIP3   OH251111   3.906   6.527   3.180  0.1259  0.0158 -0.0696
 9899TIP3    H151112   3.988   6.564   3.213 -0.0803  2.3643 -1.8678
 9899TIP3    H251113   3.855   6.604   3.155 -2.3291 -1.4325  0.2794
 9900TIP3   OH251114   0.091   1.120  13.678 -0.5522 -0.0587  0.1547
 9900TIP3    H151115   0.015   1.140  13.734 -0.5159 -0.3289  0.3008
 9900TIP3    H251116   0.062   1.143  13.590 -0.7779 -0.0837  0.2207
 9901TIP3   OH251117   0.561   4.116   2.341  0.5594  0.8582 -0.3380
 9901TIP3    H151118   0.475   4.083   2.367  1.1929 -0.5256  0.0744
 9901TIP3    H251119   0.623   4.062   2.389  1.6751  1.8425 -0.6310
 9902TIP3   OH251120   4.360   6.584   1.234  0.6113 -0.0249 -0.3207
 9902TIP3    H151121   4.435   6.549   1.282 -0.3157  2.6170  3.5024
 9902TIP3    H251122   4.373   6.679   1.234 -2.6368  0.5606  0.5879
 9903TIP3   OH251123   4.897   2.489   1.135  0.7670 -0.3319 -0.0045
 9903TIP3    H151124   4.868   2.475   1.225  0.0634  2.2452  0.2451
 9903TIP3    H251125   4.953   2.567   1.140  0.9253 -0.2928 -1.7596
 9904TIP3   OH251126   1.753   3.176  12.586 -0.2047 -0.1231 -0.2200
 9904TIP3    H151127   1.783   3.085  12.589 -0.9816 -0.3842  0.1648
 9904TIP3    H251128   1.777   3.212  12.672  1.9597  0.6852 -1.1031
 9905TIP3   OH251129   5.900   1.012   1.144 -0.5712 -0.6504  0.1256
 9905TIP3    H151130   5.850   1.064   1.081  0.1085 -2.1163 -1.6991
 9905TIP3    H251131   5.833   0.963   1.192 -1.0154 -0.9962 -0.8239
 9906TIP3   OH251132   3.181   2.782  14.926  0.0284 -0.2001 -0.5295
 9906TIP3    H151133   3.098   2.740  14.949 -0.2505  0.3801 -0.4624
 9906TIP3    H251134   3.176   2.796  14.832  0.2954 -0.6835 -0.6193
 9907TIP3   OH251135   1.901   4.431  13.293  0.2615  0.2073  0.4197
 9907TIP3    H151136   1.850   4.406  13.216  0.5541 -0.5883  0.4720
 9907TIP3    H251137   1.838   4.474  13.351 -0.6184 -1.7087  0.9442
 9908TIP3   OH251138   2.845   6.421   6.201  0.1441 -0.0281 -0.3730
 9908TIP3    H151139   2.867   6.504   6.158  0.2749 -0.3817 -1.0167
 9908TIP3    H251140   2.915   6.406   6.264  0.7742 -0.2314 -1.1038
 9909TIP3   OH251141   1.314   0.499   2.465  0.2929 -0.6335 -0.6085
 9909TIP3    H151142   1.244   0.472   2.406  1.0756 -1.2465 -1.2894
 9909TIP3    H251143   1.297   0.452   2.547 -1.4397  1.0813  0.1061
 9910TIP3   OH251144   5.425   3.156  14.930  0.1507 -0.3659  0.8587
 9910TIP3    H151145   5.339   3.153  14.970  0.8239 -0.5472  2.3755
 9910TIP3    H251146   5.428   3.081  14.871 -0.6903 -0.3980  0.8574
 9911TIP3   OH251147   3.147   0.473   3.490  0.6357  1.2686 -0.3138
 9911TIP3    H151148   3.211   0.543   3.475 -1.8180  3.2417 -2.3451
 9911TIP3    H251149   3.112   0.454   3.403 -0.2172 -1.1102  0.4916
 9912TIP3   OH251150   6.125   2.646   3.480 -0.2961  0.2936 -0.3246
 9912TIP3    H151151   6.162   2.630   3.567  0.2674 -1.3016 -0.8252
 9912TIP3    H251152   6.163   2.579   3.424 -1.2564  0.7942 -1.6545
 9913TIP3   OH251153   2.315   2.760  12.574 -0.6135 -0.2647  0.1393
 9913TIP3    H151154   2.396   2.710  12.587  0.4892  1.1844 -0.8056
 9913TIP3    H251155   2.335   2.847  12.608 -2.0194 -0.0644  0.5025
 9914TIP3   OH251156   2.456   2.742   2.619  0.2861 -0.2731  0.1244
 9914TIP3    H151157   2.407   2.726   2.539 -1.7257  1.0520  1.0094
 9914TIP3    H251158   2.425   2.676   2.681  2.2218 -1.6386 -0.2646
 9915TIP3   OH251159   1.535   0.950  16.094  0.0159  0.0340 -0.1664
 9915TIP3    H151160   1.574   0.934  16.180  0.8422 -1.7973 -0.8440
 9915TIP3    H251161   1.440   0.946  16.110  0.1557 -1.5051  0.4907
 9916TIP3   OH251162   6.305   0.109  15.037 -0.0823 -0.2697 -0.4956
 9916TIP3    H151163   6.256   0.093  14.957 -0.2626  0.4553 -0.5318
 9916TIP3    H251164   6.238   0.122  15.105  0.0667 -1.3079 -0.1319
 9917TIP3   OH251165   2.005   4.659   4.314  0.2919  0.3160 -0.3789
 9917TIP3    H151166   2.050   4.651   4.229  0.1845 -1.4483 -0.2957
 9917TIP3    H251167   1.912   4.665   4.291  0.1689 -1.2792 -0.3678
 9918TIP3   OH251168   5.577   0.322   2.751  0.1840 -0.3251 -0.8956
 9918TIP3    H151169   5.500   0.283   2.793  0.9186  0.8866  1.8396
 9918TIP3    H251170   5.547   0.408   2.722  0.0960 -0.5014 -1.3263
 9919TIP3   OH251171   1.474   1.689  13.201  0.6258 -0.0025 -0.4739
 9919TIP3    H151172   1.450   1.780  13.220  0.8042 -0.0626  0.0665
 9919TIP3    H251173   1.421   1.665  13.125  0.1949  0.3875 -0.2982
 9920TIP3   OH251174   5.102   6.384  11.146 -0.1995 -0.0434 -0.5240
 9920TIP3    H151175   5.017   6.395  11.103 -0.6842  2.9212  0.9398
 9920TIP3    H251176   5.166   6.387  11.074 -1.2342 -1.8266 -1.5909
 9921TIP3   OH251177   0.824   6.655  16.119 -0.6758 -0.6228 -0.3728
 9921TIP3    H151178   0.832   6.649  16.024  2.0112  2.3677 -0.4959
 9921TIP3    H251179   0.730   6.671  16.134 -1.0902 -0.7634 -2.5156
 9922TIP3   OH251180   5.419   5.682  15.126 -0.1449  0.4672 -0.2716
 9922TIP3    H151181   5.393   5.600  15.085  0.9608 -0.3893  0.6577
 9922TIP3    H251182   5.337   5.724  15.151 -0.7131 -0.9085  0.2544
 9923TIP3   OH251183   1.810   2.995  12.273 -0.9104  0.5265  0.3439
 9923TIP3    H151184   1.801   2.965  12.363 -1.8636  0.0144  0.0916
 9923TIP3    H251185   1.876   2.938  12.234 -2.2257 -0.8565  0.0571
 9924TIP3   OH251186   3.060   5.853  14.563 -0.0918 -0.3029 -0.2320
 9924TIP3    H151187   3.091   5.887  14.480  1.3044 -1.7443 -0.3446
 9924TIP3    H251188   3.017   5.770  14.541 -1.9426  0.4816  0.2247
 9925TIP3   OH251189   5.459   3.801   5.091  0.2355  0.1107 -0.1634
 9925TIP3    H151190   5.422   3.746   5.022 -2.3442 -0.5083  1.5806
 9925TIP3    H251191   5.520   3.745   5.138 -2.0860 -1.2907  1.3613
 9926TIP3   OH251192   4.947   5.821  12.952 -0.9127 -0.1360  0.0305
 9926TIP3    H151193   4.921   5.885  13.018 -2.2338 -1.4654  0.8817
 9926TIP3    H251194   5.035   5.795  12.977 -0.9619  0.2127  0.5928
 9927TIP3   OH251195   2.089   1.857  13.764  0.2004 -0.0348 -0.1855
 9927TIP3    H151196   2.068   1.910  13.841 -0.5818 -0.7009  0.0692
 9927TIP3    H251197   2.183   1.840  13.771  0.0891 -0.2874  0.7434
 9928TIP3   OH251198   3.653   6.408   0.345  0.3162 -0.1154 -0.0956
 9928TIP3    H151199   3.723   6.440   0.402 -0.7991  0.4595  1.0112
 9928TIP3    H251200   3.576   6.459   0.371 -0.5915 -0.9517 -1.0469
 9929TIP3   OH251201   3.228   2.440   0.148  0.2003  0.3357 -0.2230
 9929TIP3    H151202   3.183   2.375   0.095 -0.6250 -0.7166  1.7026
 9929TIP3    H251203   3.295   2.390   0.196  1.5895  1.4227 -0.9355
 9930TIP3   OH251204   1.495   0.817  13.479  0.2114  0.5204  0.7021
 9930TIP3    H151205   1.537   0.889  13.527 -0.2905 -0.0893  2.0938
 9930TIP3    H251206   1.555   0.799  13.407 -0.8061  3.9998 -1.2689
 9931TIP3   OH251207   3.052   6.731  12.511  0.0011  0.2499 -0.7523
 9931TIP3    H151208   3.031   6.651  12.559 -0.3476 -0.0832 -1.4472
 9931TIP3    H251209   3.148   6.737  12.517  0.1069 -0.6348 -1.3225
 9932TIP3   OH251210   0.631   3.025   3.915  0.8210 -0.0353  0.3917
 9932TIP3    H151211   0.688   3.102   3.904  2.5180 -1.0616  1.4685
 9932TIP3    H251212   0.612   2.996   3.826 -0.4381  1.9971 -0.0639
 9933TIP3   OH251213   2.620   2.975   0.515 -0.0936 -0.6485 -0.0550
 9933TIP3    H151214   2.584   3.043   0.458  2.1796 -0.2438 -1.0989
 9933TIP3    H251215   2.621   3.015   0.602  1.3137  0.7615 -0.6669
 9934TIP3   OH251216   0.529   4.874  14.106 -0.7123  0.3573 -0.2603
 9934TIP3    H151217   0.470   4.819  14.055  2.7142 -2.6183 -1.4846
 9934TIP3    H251218   0.560   4.816  14.177 -0.0138  2.0969  0.9165
 9935TIP3   OH251219   1.152   1.176   2.626  0.2836  0.5027 -0.1294
 9935TIP3    H151220   1.151   1.165   2.531 -0.2430 -0.2440 -0.0411
 9935TIP3    H251221   1.240   1.149   2.652  0.1496 -0.1251 -0.3153
 9936TIP3   OH251222   4.517   6.759  15.698  0.2239  0.6310 -0.3699
 9936TIP3    H151223   4.484   6.794  15.616 -2.2119 -0.1879  0.1715
 9936TIP3    H251224   4.520   6.834  15.758 -1.5483  0.5966 -0.2038
 9937TIP3   OH251225   2.812   2.386   0.548  0.0089 -0.4061 -0.3579
 9937TIP3    H151226   2.897   2.351   0.576 -0.5737 -0.9501  0.8054
 9937TIP3    H251227   2.822   2.402   0.454  1.2648 -0.8617 -0.3164
 9938TIP3   OH251228   1.905   3.746  14.777 -0.0473  0.3335 -0.0475
 9938TIP3    H151229   1.994   3.782  14.772  0.7922 -1.6849 -0.8786
 9938TIP3    H251230   1.880   3.757  14.869  1.0410  0.9749  0.1900
 9939TIP3   OH251231   6.192   5.182  16.293  0.0753  0.4464 -0.1936
 9939TIP3    H151232   6.206   5.124  16.219 -1.5293  0.6176 -0.6672
 9939TIP3    H251233   6.280   5.201  16.326  0.7563 -0.3442 -1.4844
 9940TIP3   OH251234   2.694   0.342   1.082  0.1591 -0.6558 -0.3153
 9940TIP3    H151235   2.677   0.370   0.992 -0.0113 -1.5389 -0.5625
 9940TIP3    H251236   2.772   0.286   1.075  0.4092 -0.3755  0.1542
 9941TIP3   OH251237   0.185   5.321  11.556  0.2204  0.1135 -0.8331
 9941TIP3    H151238   0.254   5.377  11.519  0.9542  0.6912  1.2868
 9941TIP3    H251239   0.103   5.361  11.527  0.7483  0.8256 -1.3856
 9942TIP3   OH251240   2.830   4.147   2.187 -0.1362  0.7533  0.2324
 9942TIP3    H151241   2.788   4.095   2.119  0.1213  1.3228 -0.3725
 9942TIP3    H251242   2.761   4.164   2.251 -0.9422  1.9864 -0.9235
 9943TIP3   OH251243   6.128   4.972   5.395 -0.5239  0.3531  0.2856
 9943TIP3    H151244   6.126   5.055   5.442  1.4224  1.2485 -1.0614
 9943TIP3    H251245   6.097   4.907   5.458  2.2637  1.4193  2.9831
 9944TIP3   OH251246   5.001   2.822  16.771  0.1201  0.1334  0.0267
 9944TIP3    H151247   4.959   2.840  16.855  1.2454 -0.2496  0.7018
 9944TIP3    H251248   4.934   2.775  16.720 -0.5267  0.2384  0.7633
 9945TIP3   OH251249   2.827   5.670   4.524 -0.6385 -0.0868  0.1993
 9945TIP3    H151250   2.740   5.700   4.497 -0.5940 -0.7433 -0.7129
 9945TIP3    H251251   2.887   5.715   4.465 -0.4972 -1.1086 -0.4526
 9946TIP3   OH251252   6.175   0.035  11.865  0.3451 -0.6291  0.0143
 9946TIP3    H151253   6.163   0.121  11.825 -0.8834 -0.3333  0.9583
 9946TIP3    H251254   6.262   0.007  11.835  0.5323  0.6771 -0.7675
 9947TIP3   OH251255   5.763   5.549   5.437 -0.5390  0.0291  0.4680
 9947TIP3    H151256   5.760   5.633   5.482  2.0240  0.1067  0.5967
 9947TIP3    H251257   5.729   5.487   5.501  0.8797  0.4859  1.7158
 9948TIP3   OH251258   4.652   1.334   6.707  0.3118 -0.2001  0.3259
 9948TIP3    H151259   4.605   1.297   6.631  1.1557 -0.3160 -0.1513
 9948TIP3    H251260   4.654   1.428   6.691  1.9095 -0.3674 -0.6443
 9949TIP3   OH251261   4.116   5.880   4.313 -0.4251 -0.7322  0.0389
 9949TIP3    H151262   4.084   5.950   4.369 -2.3074 -0.8163 -0.8702
 9949TIP3    H251263   4.191   5.844   4.361  0.4130  1.6663  0.6520
 9950TIP3   OH251264   6.686   4.406  15.753  0.0035  0.1628 -1.0495
 9950TIP3    H151265   6.709   4.313  15.761 -2.3241 -0.3062  1.4069
 9950TIP3    H251266   6.591   4.409  15.764  0.0942  2.9280 -0.3046
 9951TIP3   OH251267   6.475   0.174   4.470 -0.0041  0.2851  0.2394
 9951TIP3    H151268   6.445   0.152   4.558  0.3137  2.3877  0.9319
 9951TIP3    H251269   6.403   0.222   4.431  0.9432  1.9673  0.4824
 9952TIP3   OH251270   1.176   6.111  16.653  0.2337  0.3958 -0.5504
 9952TIP3    H151271   1.145   6.107  16.563  0.6465  3.0758 -0.8970
 9952TIP3    H251272   1.098   6.098  16.707  0.0811 -1.8601 -1.2034
 9953TIP3   OH251273   5.585   5.640  15.921 -0.5158 -0.4819  0.5652
 9953TIP3    H151274   5.676   5.631  15.949 -0.2339 -0.3463 -0.2914
 9953TIP3    H251275   5.576   5.579  15.848 -0.5033  1.0438 -0.7751
 9954TIP3   OH251276   5.842   2.706   5.741 -0.5274  0.3342  0.4810
 9954TIP3    H151277   5.768   2.733   5.795 -0.9115  1.7974 -0.6829
 9954TIP3    H251278   5.916   2.756   5.775 -0.2400 -0.5360  1.1464
 9955TIP3   OH251279   6.122   0.585  17.029  0.2407  0.2585  0.4429
 9955TIP3    H151280   6.065   0.594  16.952 -0.6927 -1.5989  0.8430
 9955TIP3    H251281   6.199   0.540  16.995  0.1943  0.1886  0.4281
 9956TIP3   OH251282   1.015   3.732  12.212  0.1031 -0.1208  0.2880
 9956TIP3    H151283   1.072   3.769  12.279 -0.3201  0.9014  0.0974
 9956TIP3    H251284   1.059   3.753  12.129  0.8350 -1.7340  0.2315
 9957TIP3   OH251285   0.999   0.201  15.195 -0.5488 -0.4493 -0.3722
 9957TIP3    H151286   1.082   0.227  15.154 -0.4516 -0.0775  0.0510
 9957TIP3    H251287   1.022   0.187  15.287 -1.3273  1.5505  0.1682
 9958TIP3   OH251288   3.432   4.890  12.383 -0.4716  0.0398 -0.1271
 9958TIP3    H151289   3.526   4.899  12.370 -0.5532  1.8369  0.2990
 9958TIP3    H251290   3.402   4.844  12.305  0.7540 -0.5653 -0.2653
 9959TIP3   OH251291   3.983   0.249  14.498 -0.1911  0.0871  0.2603
 9959TIP3    H151292   4.075   0.223  14.489 -0.9819 -2.6056 -0.8005
 9959TIP3    H251293   3.947   0.239  14.410 -1.4824  1.3467  0.6134
 9960TIP3   OH251294   1.814   4.194   5.191  0.2497 -0.1055  0.3324
 9960TIP3    H151295   1.809   4.138   5.114  0.2088  0.4893 -0.1087
 9960TIP3    H251296   1.856   4.140   5.258  1.8323 -0.0877 -0.6074
 9961TIP3   OH251297   3.217   1.902  13.966  0.2414  0.3630  0.0559
 9961TIP3    H151298   3.227   1.997  13.957 -1.2103  0.4997 -0.2334
 9961TIP3    H251299   3.290   1.866  13.916  0.5930  1.3145 -0.1373
 9962TIP3   OH251300   2.724   0.340   6.818 -0.5756 -0.1125  0.6410
 9962TIP3    H151301   2.814   0.370   6.827 -0.4173 -0.4370  0.1772
 9962TIP3    H251302   2.693   0.379   6.736 -0.2051 -1.5827 -0.2307
 9963TIP3   OH251303   0.227   0.748   0.213  0.4974  0.1363  0.7566
 9963TIP3    H151304   0.204   0.773   0.124 -0.4007 -2.8856  0.0191
 9963TIP3    H251305   0.143   0.738   0.258  0.9282  1.3290  1.9179
 9964TIP3   OH251306   6.557   5.206   4.587 -0.0042 -0.2379 -0.5901
 9964TIP3    H151307   6.584   5.277   4.644 -0.5411 -1.2848  1.0425
 9964TIP3    H251308   6.461   5.208   4.589 -0.0541 -1.6536  0.4060
 9965TIP3   OH251309   0.577   1.926   2.492 -0.1005 -0.3004 -0.0923
 9965TIP3    H151310   0.540   1.838   2.489 -0.7910 -0.0643  1.0748
 9965TIP3    H251311   0.569   1.953   2.583  0.9545  0.6229 -0.2438
 9966TIP3   OH251312   6.746   0.592  15.445 -1.2228 -0.8780 -0.0254
 9966TIP3    H151313   6.806   0.600  15.370 -0.2892  1.1797  0.8489
 9966TIP3    H251314   6.660   0.606  15.407 -0.6369  1.8331 -0.5837
 9967TIP3   OH251315   3.936   6.432  11.701 -0.3538  0.1499 -0.2002
 9967TIP3    H151316   3.885   6.430  11.620  2.8092  1.5712 -2.4307
 9967TIP3    H251317   3.906   6.512  11.745 -0.3735  0.7707 -1.2802
 9968TIP3   OH251318   6.636   4.385   3.644  0.0122 -0.1025 -0.1107
 9968TIP3    H151319   6.709   4.433   3.683 -0.0328  0.5204 -0.7611
 9968TIP3    H251320   6.601   4.445   3.577 -0.6258 -0.6837 -0.3092
 9969TIP3   OH251321   6.169   3.573   3.498  0.0979  0.2551 -0.2608
 9969TIP3    H151322   6.170   3.554   3.404 -0.4589 -0.6469 -0.0982
 9969TIP3    H251323   6.159   3.668   3.504  1.6921  0.5215 -1.1199
 9970TIP3   OH251324   5.346   2.316   3.152 -0.0900  0.0144 -0.1857
 9970TIP3    H151325   5.324   2.407   3.172  0.2661 -0.1488  1.0937
 9970TIP3    H251326   5.279   2.265   3.196 -0.6284 -0.3422 -1.3958
 9971TIP3   OH251327   5.274   5.678   0.027 -0.0817  0.0784 -0.7600
 9971TIP3    H151328   5.273   5.618  -0.048 -1.1457 -0.6057 -0.2316
 9971TIP3    H251329   5.280   5.621   0.103 -1.9029  0.5586 -0.2056
 9972TIP3   OH251330   5.307   6.588   1.932 -0.2859  0.0822 -0.4660
 9972TIP3    H151331   5.383   6.541   1.897 -1.0590 -1.6921  0.1416
 9972TIP3    H251332   5.278   6.536   2.007 -2.2707  0.5339 -0.8526
 9973TIP3   OH251333   5.705   1.720   6.407  0.0081 -0.4993 -0.2687
 9973TIP3    H151334   5.758   1.724   6.327  0.7293 -0.5165  0.1962
 9973TIP3    H251335   5.750   1.778   6.468 -1.1641  0.4051 -0.2269
 9974TIP3   OH251336   3.467   2.908  14.855 -0.2230 -0.3090  0.7213
 9974TIP3    H151337   3.462   2.896  14.950 -2.3278 -3.6857  0.3319
 9974TIP3    H251338   3.377   2.900  14.825  0.3488  1.0253 -1.6109
 9975TIP3   OH251339   6.277   6.117   3.297  0.1725  0.2591 -0.3928
 9975TIP3    H151340   6.200   6.142   3.247 -1.1022 -0.5600  1.0950
 9975TIP3    H251341   6.290   6.190   3.358 -0.1725 -0.1363  0.1654
 9976TIP3   OH251342   1.730   4.823   3.401 -0.3572 -0.1658  0.1416
 9976TIP3    H151343   1.703   4.859   3.485 -2.4009 -1.1772 -0.0182
 9976TIP3    H251344   1.679   4.742   3.392 -1.5042  0.7342 -2.8028
 9977TIP3   OH251345   1.830   0.528   3.794  0.2931 -0.1162 -0.7338
 9977TIP3    H151346   1.917   0.565   3.807 -0.1761  0.8990 -0.4342
 9977TIP3    H251347   1.811   0.542   3.702  0.1757  0.2455 -0.6528
 9978TIP3   OH251348   6.232   3.369  11.793  0.7083  0.0617 -0.1970
 9978TIP3    H151349   6.278   3.302  11.742  0.8127 -0.0755  0.0744
 9978TIP3    H251350   6.297   3.400  11.856  0.0312 -1.2037  1.2005
 9979TIP3   OH251351   2.870   5.925   1.247  0.4299 -0.4808 -0.3012
 9979TIP3    H151352   2.950   5.915   1.195  0.2752 -2.6583 -0.1872
 9979TIP3    H251353   2.812   5.857   1.215 -0.5307 -0.4155  1.2000
 9980TIP3   OH251354   3.081   0.283   4.078 -0.4842  0.2009 -0.5190
 9980TIP3    H151355   3.162   0.270   4.030  0.3133  3.1689 -0.1356
 9980TIP3    H251356   3.017   0.307   4.010 -0.1787  1.1276 -0.4959
 9981TIP3   OH251357   0.802   4.552  14.479  0.0749  0.0016 -0.3442
 9981TIP3    H151358   0.739   4.529  14.547 -0.4148 -1.4448 -1.2560
 9981TIP3    H251359   0.888   4.531  14.518 -0.2814 -2.5514 -0.7274
 9982TIP3   OH251360   3.220   2.407  15.756 -0.1394 -0.5235 -0.4186
 9982TIP3    H151361   3.268   2.478  15.713 -0.0296  0.2741  0.9728
 9982TIP3    H251362   3.202   2.440  15.844 -0.9329 -1.8563 -0.0549
 9983TIP3   OH251363   3.839   1.896  11.981 -0.0344  0.2789  0.0615
 9983TIP3    H151364   3.767   1.863  11.928  0.0717 -1.3976  0.8972
 9983TIP3    H251365   3.909   1.831  11.972  0.3783  0.4901  1.3711
 9984TIP3   OH251366   6.085   4.934   5.879  0.2332  0.5293 -0.0473
 9984TIP3    H151367   6.078   4.841   5.899  0.9347  0.3932 -0.4056
 9984TIP3    H251368   6.170   4.960   5.914  0.1766  0.9693 -0.2247
 9985TIP3   OH251369   4.741   4.310   3.234 -0.4685  0.1702 -0.0735
 9985TIP3    H151370   4.827   4.278   3.206  0.2650  0.5039  1.6596
 9985TIP3    H251371   4.698   4.232   3.271 -0.8930  0.0263 -0.8458
 9986TIP3   OH251372   1.769   1.330  14.816  0.1914  0.1102 -0.5918
 9986TIP3    H151373   1.790   1.263  14.751  0.5012  1.2566 -1.7281
 9986TIP3    H251374   1.821   1.406  14.790 -0.8688  1.1035  0.0739
 9987TIP3   OH251375   5.791   6.585  15.541  0.5500 -0.4784 -0.4763
 9987TIP3    H151376   5.759   6.674  15.530  0.8378 -0.4196 -0.8268
 9987TIP3    H251377   5.723   6.530  15.501 -0.5702 -0.5604  1.3943
 9988TIP3   OH251378   5.568   1.571   2.741 -0.0445  0.0806  0.4104
 9988TIP3    H151379   5.487   1.532   2.708  0.1006 -1.1859  1.4444
 9988TIP3    H251380   5.588   1.642   2.680 -1.0578 -0.6353 -0.7932
 9989TIP3   OH251381   1.884   0.465   2.831  0.5730 -0.2750  0.3042
 9989TIP3    H151382   1.793   0.485   2.851  0.5243 -0.8708  0.6904
 9989TIP3    H251383   1.886   0.450   2.737  0.1802 -0.7471  0.3704
 9990TIP3   OH251384   5.747   2.333   5.247  0.2293  0.1474 -0.4252
 9990TIP3    H151385   5.780   2.413   5.207  2.4149 -0.2889  0.3373
 9990TIP3    H251386   5.795   2.263   5.204  0.3409 -0.5470  0.7665
 9991TIP3   OH251387   2.740   6.362   4.652  0.2369  0.1600  0.1778
 9991TIP3    H151388   2.748   6.276   4.610 -2.1616  1.1828 -2.7404
 9991TIP3    H251389   2.663   6.355   4.707 -0.0847  0.4795 -0.2264
 9992TIP3   OH251390   0.201   3.817   5.446  0.1310 -0.1515  0.4782
 9992TIP3    H151391   0.209   3.817   5.350  1.4251 -2.7482  0.5016
 9992TIP3    H251392   0.289   3.799   5.477 -0.7596 -2.2388  2.0181
 9993TIP3   OH251393   2.281   4.108  12.598  0.0197 -0.0146 -0.0420
 9993TIP3    H151394   2.225   4.045  12.643  0.2969  0.4492  0.9872
 9993TIP3    H251395   2.292   4.072  12.510  0.5484 -1.6413  0.6481
 9994TIP3   OH251396   2.911   0.655   1.738  0.2718  0.0664 -0.2322
 9994TIP3    H151397   2.885   0.615   1.821  1.6788 -0.9773 -0.2500
 9994TIP3    H251398   2.893   0.748   1.749  0.3965 -0.0624  1.2341
 9995TIP3   OH251399   4.373   2.261  14.295 -0.1381 -0.0028  0.1849
 9995TIP3    H151400   4.350   2.338  14.244 -2.6130 -1.1769 -0.6165
 9995TIP3    H251401   4.462   2.239  14.267 -0.3247  1.1146 -1.3819
 9996TIP3   OH251402   0.100   5.570   3.620  0.5644  0.2073 -0.1202
 9996TIP3    H151403   0.130   5.585   3.530  1.6698  2.6305  0.5512
 9996TIP3    H251404   0.125   5.650   3.666 -0.2716 -0.8411  2.2817
 9997TIP3   OH251405   1.798   4.199  16.031 -0.0465 -0.0069  0.1403
 9997TIP3    H151406   1.728   4.171  15.973  0.8069 -0.9151 -0.4739
 9997TIP3    H251407   1.779   4.291  16.049 -0.3105  0.3146 -1.6221
 9998TIP3   OH251408   1.314   5.859  16.753 -0.3111  0.6985 -0.0153
 9998TIP3    H151409   1.388   5.882  16.810 -1.5685  1.4339  1.4009
 9998TIP3    H251410   1.287   5.942  16.714 -0.5978  0.4946 -0.2526
 9999TIP3   OH251411   4.032   1.463  13.387  0.4355 -0.3776  0.3782
 9999TIP3    H151412   4.120   1.469  13.349 -0.1434  0.3654 -0.9211
 9999TIP3    H251413   4.029   1.533  13.452  0.4887  0.2236 -0.2638
10000TIP3   OH251414   1.063   1.188   4.983  0.2135 -0.7868 -0.0581
10000TIP3    H151415   1.005   1.126   5.026 -2.1682  0.9334 -0.5626
10000TIP3    H251416   1.015   1.271   4.985  2.7864  0.8331 -0.3136
10001TIP3   OH251417   4.921   1.574  10.982  0.5238  0.1476 -0.2236
10001TIP3    H151418   4.893   1.563  10.891  1.8135 -0.8237 -0.5323
10001TIP3    H251419   4.896   1.664  11.004 -1.5174 -0.2094 -0.8957
10002TIP3   OH251420   4.172   4.998  14.352 -0.1274 -0.0339  0.2434
10002TIP3    H151421   4.109   5.060  14.316  1.4811  2.4534  1.4087
10002TIP3    H251422   4.258   5.039  14.338  0.9959 -1.7459  1.5542
10003TIP3   OH251423   3.509   5.066   4.327 -0.4814 -0.5054  0.0072
10003TIP3    H151424   3.524   4.972   4.338  0.0066 -0.3010  1.2222
10003TIP3    H251425   3.424   5.082   4.369  0.1190 -0.1711  1.1242
10004TIP3   OH251426   5.815   4.559   1.128  0.1324  0.4885 -0.0525
10004TIP3    H151427   5.737   4.525   1.172  0.1364  1.1642  0.4915
10004TIP3    H251428   5.862   4.607   1.196  1.2350 -0.2352 -0.2785
10005TIP3   OH251429   3.018   5.913   3.037  0.1704  0.1879 -0.1521
10005TIP3    H151430   3.072   5.925   3.116 -0.1768 -1.1648  0.3241
10005TIP3    H251431   3.000   5.819   3.035 -2.5994  0.6166  0.0204
10006TIP3   OH251432   3.592   0.288   2.723 -0.0536 -0.2713 -0.0874
10006TIP3    H151433   3.632   0.299   2.809 -0.6494  0.6419  0.0830
10006TIP3    H251434   3.648   0.339   2.664 -1.5826  2.0279  0.3463
10007TIP3   OH251435   0.040   0.477  13.785 -0.2222 -0.3182  0.6183
10007TIP3    H151436   0.046   0.385  13.762  1.1860 -0.0391 -0.3054
10007TIP3    H251437  -0.052   0.491  13.807 -1.1669 -1.2598 -2.2856
10008TIP3   OH251438   0.361   1.452  16.702  0.1218 -0.1860  0.4600
10008TIP3    H151439   0.435   1.392  16.701  0.7785  0.6156 -0.1367
10008TIP3    H251440   0.311   1.431  16.623  2.0020  2.0023 -1.4634
10009TIP3   OH251441   3.127   5.825  14.176 -0.3162 -0.3673 -0.1607
10009TIP3    H151442   3.165   5.889  14.238 -2.6468  0.6418  0.3394
10009TIP3    H251443   3.063   5.876  14.126 -0.0537 -1.6839 -1.9238
10010TIP3   OH251444   5.072   1.368   0.781 -0.1834 -0.2125 -0.0304
10010TIP3    H151445   5.116   1.449   0.755 -0.1388 -0.6574 -1.4199
10010TIP3    H251446   5.086   1.309   0.707 -1.7872 -0.8844  0.1704
10011TIP3   OH251447   4.432   2.387   3.024 -0.4660 -0.3608  0.4089
10011TIP3    H151448   4.522   2.393   2.993 -0.3332  2.4613  1.0263
10011TIP3    H251449   4.383   2.351   2.950  1.2808 -3.4028  0.5600
10012TIP3   OH251450   0.484   5.419   0.572 -0.1269 -0.4067 -0.2045
10012TIP3    H151451   0.479   5.411   0.477 -2.4510 -0.1093 -0.1577
10012TIP3    H251452   0.463   5.332   0.604  1.2628 -0.6670  0.0768
10013TIP3   OH251453   2.291   0.647   2.159 -0.1923 -0.2935 -0.9917
10013TIP3    H151454   2.309   0.733   2.119  2.1075 -0.7017 -0.9560
10013TIP3    H251455   2.353   0.588   2.117  1.4801 -1.0114  2.2096
10014TIP3   OH251456   3.031   4.463   0.428  0.2120  0.1371 -0.1259
10014TIP3    H151457   3.121   4.434   0.415  0.3608  1.8104 -5.0267
10014TIP3    H251458   3.040   4.548   0.471  1.1142  0.6448 -1.2477
10015TIP3   OH251459   3.528   4.816   6.669  0.0224  0.3087  0.3350
10015TIP3    H151460   3.468   4.742   6.684  0.6988 -0.8322 -2.0706
10015TIP3    H251461   3.485   4.867   6.601 -0.2736  2.0474  1.7430
10016TIP3   OH251462   6.359   0.791   2.025 -0.3525  0.1111 -0.3501
10016TIP3    H151463   6.296   0.798   1.953 -0.3684 -1.0832 -0.4848
10016TIP3    H251464   6.308   0.754   2.097 -0.2254  0.8683  0.1358
10017TIP3   OH251465   1.617   6.165   2.385 -0.4378 -0.6473  0.1472
10017TIP3    H151466   1.565   6.245   2.395  0.1599 -0.1112 -0.8928
10017TIP3    H251467   1.682   6.169   2.454  2.3669  1.9824 -2.3738
10018TIP3   OH251468   6.579   3.938   0.623 -0.0719  0.1248 -0.0504
10018TIP3    H151469   6.512   3.938   0.554  0.8729  0.6647 -1.0044
10018TIP3    H251470   6.567   3.855   0.669  0.1154 -0.8730 -1.7284
10019TIP3   OH251471   4.408   5.026   0.280  0.2363 -0.5628  0.0602
10019TIP3    H151472   4.315   5.036   0.300  0.7256 -0.2961  2.5691
10019TIP3    H251473   4.442   5.115   0.274 -0.0664 -0.5470 -3.6145
10020TIP3   OH251474   5.320   1.806   1.586  0.1580  0.2806 -0.5765
10020TIP3    H151475   5.337   1.718   1.552 -1.6151 -0.6051  0.7001
10020TIP3    H251476   5.314   1.861   1.507  0.4486 -0.8825 -1.4438
10021TIP3   OH251477   5.497   3.697  12.793  0.2799 -0.2304 -0.7490
10021TIP3    H151478   5.568   3.739  12.842 -0.1585 -0.4722  0.1124
10021TIP3    H251479   5.492   3.747  12.711  0.8226  0.3865 -0.4177
10022TIP3   OH251480   4.997   0.802  14.424  0.1540 -0.0617 -0.4494
10022TIP3    H151481   4.992   0.742  14.349 -2.1794 -0.0989 -0.3520
10022TIP3    H251482   4.938   0.874  14.401 -0.7517 -0.1687  1.3972
10023TIP3   OH251483   5.515   5.472  11.393 -0.0544 -0.7213 -0.1166
10023TIP3    H151484   5.477   5.494  11.308  1.6072 -1.7664 -1.1928
10023TIP3    H251485   5.481   5.385  11.412 -1.9189  0.2283  1.2742
10024TIP3   OH251486   5.545   0.589   3.357  0.1928 -0.0540 -0.1380
10024TIP3    H151487   5.489   0.662   3.330  2.6246  2.0484  0.1253
10024TIP3    H251488   5.537   0.586   3.452 -1.8212 -1.8984 -0.2739
10025TIP3   OH251489   4.246   6.244   3.089  0.6907  0.3622  0.1305
10025TIP3    H151490   4.241   6.151   3.064  1.1653 -0.1394  1.8322
10025TIP3    H251491   4.231   6.291   3.006  0.7663 -1.2157 -0.8272
10026TIP3   OH251492   0.326   2.610   4.203  0.3276  0.3659 -0.4963
10026TIP3    H151493   0.372   2.527   4.186 -0.7322 -0.4421  0.4700
10026TIP3    H251494   0.264   2.589   4.272  0.6726  2.2143  0.4314
10027TIP3   OH251495   0.953   4.725   1.562 -0.7621 -0.5485 -0.6631
10027TIP3    H151496   0.864   4.752   1.584 -0.7795 -1.9065  1.2002
10027TIP3    H251497   1.008   4.767   1.627 -0.2739 -1.2964 -0.5822
10028TIP3   OH251498   1.840   1.799   3.348  0.1015  0.2447  0.0210
10028TIP3    H151499   1.884   1.805   3.433  1.2996 -0.7913 -0.4921
10028TIP3    H251500   1.887   1.862   3.293  1.3378 -1.1910 -0.6568
10029TIP3   OH251501   2.660   4.334   4.271 -0.9994  0.3823  0.0979
10029TIP3    H151502   2.657   4.423   4.236  1.2597  0.7556  0.6766
10029TIP3    H251503   2.651   4.278   4.194  2.2910  1.1909 -1.0394
10030TIP3   OH251504   1.468   0.175   2.278  0.0017 -0.0816  0.4612
10030TIP3    H151505   1.384   0.212   2.303 -0.2799 -0.5092  0.1521
10030TIP3    H251506   1.447   0.109   2.212  0.4880 -0.8539  1.0557
10031TIP3   OH251507   0.985   0.991   0.584  0.4705 -0.8284 -0.5860
10031TIP3    H151508   1.058   0.929   0.580 -0.0734 -1.4571 -0.8541
10031TIP3    H251509   0.952   0.982   0.674 -0.1628 -1.5910 -0.8779
10032TIP3   OH251510   4.214   0.071   1.866  0.0706  0.3722 -0.4432
10032TIP3    H151511   4.170   0.075   1.780  0.4582  2.3194 -0.5921
10032TIP3    H251512   4.147   0.036   1.925  0.3322 -2.8101 -1.7881
10033TIP3   OH251513   5.486   6.551   1.713 -0.2143 -0.1314  0.2698
10033TIP3    H151514   5.416   6.517   1.656  0.5587 -0.2466 -0.6304
10033TIP3    H251515   5.501   6.640   1.681 -0.4190  0.1339  0.9100
10034TIP3   OH251516   0.283   6.401  12.980  0.2470  0.3840 -0.3347
10034TIP3    H151517   0.268   6.480  12.927 -1.3197  0.2073 -0.1972
10034TIP3    H251518   0.325   6.340  12.920  1.0125  1.1403 -0.5852
10035TIP3   OH251519   6.600   5.483  11.700 -0.1216 -0.5600 -0.6216
10035TIP3    H151520   6.569   5.573  11.696  1.0686 -0.0923 -0.0267
10035TIP3    H251521   6.631   5.464  11.611 -0.7273 -0.5235 -0.8429
10036TIP3   OH251522   0.902   5.803   0.596  0.8254  0.1332 -0.1995
10036TIP3    H151523   0.882   5.718   0.557 -2.8803  0.9934 -0.4908
10036TIP3    H251524   0.874   5.795   0.687 -0.8606  1.3930 -0.5653
10037TIP3   OH251525   5.079   4.335  12.730 -0.3235 -0.3326  0.2240
10037TIP3    H151526   5.136   4.410  12.748 -2.1391  1.1399  0.2217
10037TIP3    H251527   5.073   4.332  12.634  0.9863 -1.5079  0.1562
10038TIP3   OH251528   0.626   3.868  15.399  0.0562 -0.3661 -0.0353
10038TIP3    H151529   0.684   3.857  15.324  2.0592  3.6094  0.6500
10038TIP3    H251530   0.554   3.922  15.366  0.6539  0.9290  0.7337
10039TIP3   OH251531   4.195   4.195   0.013  0.2630 -0.0728 -0.0958
10039TIP3    H151532   4.146   4.123  -0.026  1.7159 -0.7094 -0.8560
10039TIP3    H251533   4.285   4.162   0.018  0.5990  0.9769  1.3983
10040TIP3   OH251534   0.900   3.062   2.632  0.5790 -0.1272  1.0517
10040TIP3    H151535   0.840   3.065   2.557 -0.8869 -0.3492  2.1566
10040TIP3    H251536   0.928   2.971   2.636  0.2888 -0.2178  1.0496
10041TIP3   OH251537   6.397   2.292   2.139 -0.2924 -0.1762  0.0602
10041TIP3    H151538   6.380   2.379   2.174 -0.1574 -0.3501  0.5684
10041TIP3    H251539   6.480   2.265   2.179 -1.1356 -1.1997  1.2003
10042TIP3   OH251540   5.348   4.044  16.099 -0.5082 -0.2384 -0.1842
10042TIP3    H151541   5.358   4.035  16.004  2.1893 -0.5660  0.0532
10042TIP3    H251542   5.377   4.133  16.117  4.2912 -1.7307  0.7593
10043TIP3   OH251543   4.530   2.841  14.554 -0.1606 -0.5621 -0.7501
10043TIP3    H151544   4.598   2.872  14.494  0.7410 -0.0148  0.5036
10043TIP3    H251545   4.466   2.798  14.497  0.6739 -0.1157 -2.0892
10044TIP3   OH251546   2.355   6.109  14.757  0.0865 -0.5322  0.2956
10044TIP3    H151547   2.313   6.194  14.748 -0.5914 -0.7727  1.0096
10044TIP3    H251548   2.412   6.118  14.833 -0.2097 -0.7916  0.5547
10045TIP3   OH251549   5.376   0.562   3.958 -0.3071 -0.7321 -1.1273
10045TIP3    H151550   5.472   0.568   3.951 -0.4142  1.3819 -1.5587
10045TIP3    H251551   5.357   0.469   3.953  1.9252 -1.5329  1.9154
10046TIP3   OH251552   4.027   2.657  11.704 -0.1887  0.2648 -0.7665
10046TIP3    H151553   4.099   2.643  11.766  0.0117 -2.1230 -1.4462
10046TIP3    H251554   3.965   2.712  11.752  0.5005 -0.5013  1.1322
10047TIP3   OH251555   4.776   3.826  13.024 -0.0402 -0.1442 -0.1439
10047TIP3    H151556   4.823   3.751  13.062 -1.0834 -0.7929 -0.1039
10047TIP3    H251557   4.846   3.880  12.987  0.7105 -1.4240 -0.7008
10048TIP3   OH251558   3.310   2.239  16.672 -0.0763 -0.1409  0.0519
10048TIP3    H151559   3.250   2.172  16.639 -0.3606  0.4176 -0.5943
10048TIP3    H251560   3.286   2.248  16.764 -1.1021  0.1799 -0.2306
10049TIP3   OH251561   1.739   2.180   2.149  0.1605 -0.5092  0.2108
10049TIP3    H151562   1.813   2.241   2.147  0.2943 -0.6787 -0.9281
10049TIP3    H251563   1.780   2.093   2.153  0.0838 -0.6528 -1.4134
10050TIP3   OH251564   5.688   4.447   3.178  0.4708 -0.4102 -0.3306
10050TIP3    H151565   5.672   4.508   3.107  3.8812 -0.4870 -1.3307
10050TIP3    H251566   5.680   4.500   3.258  3.3491  1.5016 -1.1645
10051TIP3   OH251567   5.208   2.048  15.642  0.3757 -0.0016  0.1780
10051TIP3    H151568   5.283   2.103  15.620  0.7187  0.3066  1.9747
10051TIP3    H251569   5.239   1.959  15.625  1.2324  0.1088  1.0644
10052TIP3   OH251570   1.535   0.874   2.379  0.1746  0.1518 -0.3740
10052TIP3    H151571   1.468   0.886   2.313 -0.7012  0.7798  0.6018
10052TIP3    H251572   1.520   0.944   2.443  0.4474 -0.9286  0.9283
10053TIP3   OH251573   2.015   6.746  13.307 -0.6571 -0.4107  0.5633
10053TIP3    H151574   2.045   6.770  13.219  1.8481  1.8163  1.8645
10053TIP3    H251575   1.954   6.674  13.293 -1.3830  0.6863 -3.0835
10054TIP3   OH251576   2.361   2.509   2.753  0.5658 -0.1314  0.0587
10054TIP3    H151577   2.293   2.444   2.771  0.8571 -0.8302 -1.2753
10054TIP3    H251578   2.443   2.464   2.770  0.7535  0.1014 -0.2140
10055TIP3   OH251579   3.560   1.766  15.278 -0.4254  0.3354 -0.1759
10055TIP3    H151580   3.560   1.751  15.372  0.9575  1.3915  0.0221
10055TIP3    H251581   3.519   1.852  15.267  0.0285  0.5123 -0.4863
10056TIP3   OH251582   2.667   1.879  10.939  0.5942 -0.0677 -0.0140
10056TIP3    H151583   2.725   1.946  10.903 -0.6734  0.6072 -0.8842
10056TIP3    H251584   2.647   1.822  10.865  0.1974 -0.3271  0.2876
10057TIP3   OH251585   3.698   3.974   3.055 -0.1150 -0.5117 -0.0463
10057TIP3    H151586   3.725   3.941   2.969 -0.0249  0.1063 -0.2563
10057TIP3    H251587   3.645   3.903   3.092 -1.9906  0.0636 -1.4967
10058TIP3   OH251588   6.445   4.434   1.549 -0.3217  0.3837 -0.3497
10058TIP3    H151589   6.464   4.381   1.626  0.5061 -0.0860 -0.8694
10058TIP3    H251590   6.419   4.519   1.585  1.9740  0.8250  0.4361
10059TIP3   OH251591   2.730   5.091   2.433 -0.0759 -0.0572 -0.1334
10059TIP3    H151592   2.698   5.181   2.431 -0.1447  0.0004  1.6911
10059TIP3    H251593   2.795   5.087   2.363 -0.5817  1.1957 -0.7049
10060TIP3   OH251594   0.945   3.732  14.743  0.4786 -0.2745  0.2597
10060TIP3    H151595   1.035   3.763  14.732  0.5269 -0.8188 -1.0131
10060TIP3    H251596   0.948   3.640  14.717 -0.4097 -0.3681  0.4462
10061TIP3   OH251597   1.998   1.963   5.604 -0.4236 -0.2016 -0.4391
10061TIP3    H151598   2.006   1.914   5.686 -0.6232 -2.0052 -1.4459
10061TIP3    H251599   2.084   2.005   5.593 -0.7093  0.8661  1.1442
10062TIP3   OH251600   4.522   4.172   5.184 -0.1649  0.0534 -0.6974
10062TIP3    H151601   4.458   4.158   5.114 -0.7760 -0.8096  0.0129
10062TIP3    H251602   4.498   4.256   5.223 -1.9774 -1.0185  0.6630
10063TIP3   OH251603   3.870   6.292   3.030 -0.4221 -0.1189  0.1469
10063TIP3    H151604   3.788   6.262   3.069 -1.5979  1.4001 -1.0368
10063TIP3    H251605   3.888   6.376   3.073  0.1540 -0.1158 -0.0881
10064TIP3   OH251606   6.253   6.046  12.082 -0.0144  0.0899 -0.5315
10064TIP3    H151607   6.193   6.043  12.008  1.0666 -0.6264 -1.4177
10064TIP3    H251608   6.279   5.954  12.096  1.0166  0.3985 -0.3154
10065TIP3   OH251609   5.041   0.957  16.784  0.4065  0.0959  0.5774
10065TIP3    H151610   4.985   1.007  16.843  0.7892 -0.6214  1.5619
10065TIP3    H251611   5.127   0.955  16.827  0.7772 -0.1862 -0.1464
10066TIP3   OH251612   1.210   1.893   6.366  0.1529 -0.3450  0.6484
10066TIP3    H151613   1.192   1.869   6.457 -0.0487  0.2623  0.7652
10066TIP3    H251614   1.200   1.988   6.362  0.5298 -0.3179  0.0758
10067TIP3   OH251615   1.468   1.752  14.808  0.1119 -0.4372  0.0681
10067TIP3    H151616   1.503   1.664  14.796  2.0839  0.1921  0.8191
10067TIP3    H251617   1.542   1.803  14.841 -1.6474  0.8656  2.2857
10068TIP3   OH251618   6.743   6.277   5.065  0.1058 -0.0597 -0.6659
10068TIP3    H151619   6.663   6.329   5.070  0.7526  1.0066 -0.9545
10068TIP3    H251620   6.796   6.321   4.998  0.6062 -1.2193 -1.0690
10069TIP3   OH251621   3.443   2.243  12.798  0.7880 -0.0886  0.2982
10069TIP3    H151622   3.464   2.277  12.885  1.7945 -0.4906  0.2235
10069TIP3    H251623   3.507   2.284  12.740  0.8723 -0.7211 -0.0666
10070TIP3   OH251624   3.632   1.085  13.848  0.7190 -0.5724 -0.7712
10070TIP3    H151625   3.625   1.076  13.944  1.3550 -0.1689 -0.6833
10070TIP3    H251626   3.707   1.142  13.835  2.2268 -2.6129 -1.5989
10071TIP3   OH251627   0.072   3.814   4.840 -0.0049  0.0135 -0.1136
10071TIP3    H151628   0.053   3.835   4.932  0.3775 -0.1478  0.0027
10071TIP3    H251629   0.068   3.719   4.836  1.6346 -0.0960  0.1137
10072TIP3   OH251630   3.233   2.871  13.100 -0.4813  0.1101  0.0756
10072TIP3    H151631   3.295   2.883  13.172  2.0102 -0.8230 -1.7477
10072TIP3    H251632   3.250   2.944  13.041 -1.0625 -0.1904 -0.4753
10073TIP3   OH251633   4.117   1.036  14.021  0.4554 -0.0119  0.0359
10073TIP3    H151634   4.030   1.019  13.986  0.9205 -1.0764 -0.6447
10073TIP3    H251635   4.114   1.002  14.111 -0.1353  0.9182  0.3788
10074TIP3   OH251636   1.488   4.551  15.997 -0.0563  0.2318 -0.3412
10074TIP3    H151637   1.491   4.645  15.980 -0.2796  0.5761  1.2744
10074TIP3    H251638   1.395   4.531  16.008  0.0384  0.0084  0.1216
10075TIP3   OH251639   0.615   1.276   5.551  0.4567  0.1662  0.0523
10075TIP3    H151640   0.642   1.185   5.537  0.0152 -0.1161  0.9316
10075TIP3    H251641   0.558   1.272   5.628 -0.1888  1.0810 -0.3575
10076TIP3   OH251642   0.614   2.350   6.208  0.0881 -0.2283  0.2683
10076TIP3    H151643   0.526   2.313   6.216 -0.0988  0.3654  1.0706
10076TIP3    H251644   0.609   2.436   6.250  0.6525  0.5029 -1.0857
10077TIP3   OH251645   2.261   6.356  11.833 -0.1639 -0.0468  0.4310
10077TIP3    H151646   2.307   6.284  11.876  0.1855 -0.2425 -0.2532
10077TIP3    H251647   2.264   6.334  11.740  0.5290  1.1677  0.1411
10078TIP3   OH251648   1.613   1.932   0.048  0.2443  0.6218  0.3313
10078TIP3    H151649   1.681   1.910  -0.016 -0.9453  1.0298 -1.1309
10078TIP3    H251650   1.625   2.025   0.066  0.6954  0.4652  0.8588
10079TIP3   OH251651   5.528   5.239  12.327  0.4738 -0.4284 -0.1782
10079TIP3    H151652   5.611   5.286  12.318 -0.6281  1.7024  0.0050
10079TIP3    H251653   5.539   5.160  12.275  2.7491 -0.4149  0.1988
10080TIP3   OH251654   3.557   1.185   3.512  0.9822  0.7858 -0.2596
10080TIP3    H151655   3.583   1.239   3.437  1.6156  1.2565  0.2787
10080TIP3    H251656   3.546   1.097   3.476  1.5748  0.9450 -0.8520
10081TIP3   OH251657   0.959   6.406   2.230 -0.1233  0.1551  0.1691
10081TIP3    H151658   0.953   6.495   2.194  1.7286  0.7034  1.0547
10081TIP3    H251659   1.049   6.379   2.209 -0.5340 -1.3639  0.2790
10082TIP3   OH251660   0.260   3.607   0.500 -0.7158  0.1428  0.5032
10082TIP3    H151661   0.353   3.621   0.485 -0.5985 -1.3269 -0.4652
10082TIP3    H251662   0.227   3.691   0.530  1.0588  0.4829  1.6466
10083TIP3   OH251663   6.132   6.697  16.235  0.4339  0.4525  0.2124
10083TIP3    H151664   6.126   6.602  16.220 -1.6937  0.5889 -0.0940
10083TIP3    H251665   6.226   6.716  16.227  0.9941 -1.6902  0.8071
10084TIP3   OH251666   4.741   0.650   1.742  0.1796 -0.6467 -0.4993
10084TIP3    H151667   4.716   0.736   1.775 -3.1635 -1.6508 -0.0995
10084TIP3    H251668   4.823   0.630   1.788 -0.7158  0.9062  1.9772
10085TIP3   OH251669   4.659   5.809   2.265 -0.1422 -0.3475 -0.0058
10085TIP3    H151670   4.621   5.735   2.314 -0.2712 -0.3422 -0.0965
10085TIP3    H251671   4.590   5.835   2.204 -1.6113  2.3078  2.5393
10086TIP3   OH251672   4.222   6.419   0.388 -0.3938  0.4108 -0.0827
10086TIP3    H151673   4.212   6.335   0.345 -0.3665  1.2539 -1.8207
10086TIP3    H251674   4.316   6.437   0.386 -0.4960  0.9068 -0.5720
10087TIP3   OH251675   6.310   5.570   2.961 -0.0759 -0.3503  0.7380
10087TIP3    H151676   6.316   5.479   2.934 -0.0452  0.2502 -1.4334
10087TIP3    H251677   6.224   5.599   2.931  0.4071  0.6672  0.2632
10088TIP3   OH251678   0.894   2.174  11.972  0.3641  0.7170  0.8661
10088TIP3    H151679   0.963   2.152  12.034  2.7860  3.6344 -0.5181
10088TIP3    H251680   0.914   2.121  11.895  0.5928  0.9595  0.7557
10089TIP3   OH251681   5.956   0.183  11.028  0.0628 -0.2779  0.2835
10089TIP3    H151682   5.893   0.205  10.959  0.4215  0.3621  0.1514
10089TIP3    H251683   5.912   0.207  11.109 -0.3752 -1.0661  0.2819
10090TIP3   OH251684   1.106   5.426  15.993 -0.6314 -0.0187  0.5177
10090TIP3    H151685   1.121   5.473  15.912  0.2394 -1.6897 -0.3535
10090TIP3    H251686   1.190   5.382  16.011 -1.7569 -2.3884  0.4374
10091TIP3   OH251687   3.904   1.694  12.323 -0.6615 -0.3114 -0.1173
10091TIP3    H151688   3.833   1.635  12.298 -0.4983 -0.9849  0.9171
10091TIP3    H251689   3.969   1.683  12.253 -0.4778 -1.6575  0.2369
10092TIP3   OH251690   3.596   0.424  15.593  0.1561  0.0628  0.0863
10092TIP3    H151691   3.614   0.332  15.579  1.6359  0.1097  1.4038
10092TIP3    H251692   3.528   0.446  15.529  1.0279 -1.4971 -1.4374
10093TIP3   OH251693   3.009   6.395  13.173 -0.0158 -0.0940  0.2615
10093TIP3    H151694   3.046   6.478  13.204 -1.0716  0.7663 -0.6702
10093TIP3    H251695   2.974   6.353  13.251  1.7343 -0.3259  0.9647
10094TIP3   OH251696   0.934   3.736   6.301  0.8190  0.0168 -0.1460
10094TIP3    H151697   0.978   3.659   6.263  0.4671 -0.6787  0.8014
10094TIP3    H251698   0.983   3.754   6.381  2.2104  2.1224 -1.3575
10095TIP3   OH251699   4.553   4.598  11.643  0.4676  0.5090 -0.8972
10095TIP3    H151700   4.462   4.571  11.630 -0.0863  2.3554 -1.2255
10095TIP3    H251701   4.556   4.688  11.611  2.8768 -0.0846 -2.7070
10096TIP3   OH251702   0.733   2.536  14.741  0.0886  0.5148 -0.5754
10096TIP3    H151703   0.658   2.594  14.755 -0.5436 -0.3051 -0.4149
10096TIP3    H251704   0.802   2.572  14.795 -1.4027 -0.9124  2.5622
10097TIP3   OH251705   1.226   0.819   4.853  0.2832 -0.3088  0.0331
10097TIP3    H151706   1.197   0.728   4.854 -0.6715 -0.0254  1.5987
10097TIP3    H251707   1.149   0.869   4.880  0.4228  1.1120 -2.0039
10098TIP3   OH251708   2.245   6.092   5.775 -0.0168 -0.7537 -1.0233
10098TIP3    H151709   2.234   6.027   5.844 -1.2556 -0.8403 -1.2863
10098TIP3    H251710   2.339   6.110   5.774 -0.0646 -0.0713  1.2868
10099TIP3   OH251711   2.179   6.671  13.784 -0.7622 -0.0980 -0.4875
10099TIP3    H151712   2.181   6.589  13.735  0.4245 -0.3927  0.0242
10099TIP3    H251713   2.215   6.736  13.724  2.7471 -0.8441  0.5696
10100TIP3   OH251714   0.201   5.523   2.710 -0.3927 -0.2497  0.0584
10100TIP3    H151715   0.263   5.512   2.782 -1.5172 -0.2806  1.0403
10100TIP3    H251716   0.242   5.588   2.653 -0.6117  1.7149  2.0267
10101TIP3   OH251717   6.561   1.050   1.923  0.2063  0.2593 -0.2603
10101TIP3    H151718   6.500   1.027   1.854  1.6032  0.3693 -1.5756
10101TIP3    H251719   6.510   1.041   2.004 -1.0940 -1.1070 -1.1874
10102TIP3   OH251720   2.035   0.368   5.409 -0.3644 -0.7550 -0.5290
10102TIP3    H151721   2.111   0.426   5.407 -0.8825 -0.0421  0.1381
10102TIP3    H251722   2.054   0.305   5.479 -1.2350  0.6349  1.0188
10103TIP3   OH251723   3.146   2.947   3.871 -0.4660  0.4745  0.2062
10103TIP3    H151724   3.108   3.035   3.864  0.1790  0.7373 -0.1674
10103TIP3    H251725   3.072   2.889   3.888 -0.8174  1.1785  1.1744
10104TIP3   OH251726   0.546   0.560  15.353 -0.1376  0.0197 -0.0142
10104TIP3    H151727   0.506   0.474  15.339 -0.6669  0.2241  0.2026
10104TIP3    H251728   0.637   0.549  15.324 -0.1220 -0.6896  0.2794
10105TIP3   OH251729   2.881   6.224  15.704  0.1911  0.0501 -0.6129
10105TIP3    H151730   2.818   6.164  15.665 -0.1246  0.4682 -0.7514
10105TIP3    H251731   2.960   6.171  15.716 -0.0663 -0.3767 -0.7816
10106TIP3   OH251732   3.390   4.981   5.613  0.4436 -0.6190  0.1549
10106TIP3    H151733   3.324   5.039   5.651  0.4644 -0.7614  0.4151
10106TIP3    H251734   3.356   4.958   5.527 -1.9388 -4.0680  1.8004
10107TIP3   OH251735   2.485   2.804   0.749  0.4087  0.7058 -0.3371
10107TIP3    H151736   2.562   2.784   0.696  0.5886 -1.6298  0.6604
10107TIP3    H251737   2.505   2.887   0.792  2.0581  0.4971 -0.6437
10108TIP3   OH251738   6.751   1.969   5.437  0.2887  0.2470 -0.4559
10108TIP3    H151739   6.708   1.887   5.412  3.3547 -1.5693 -0.2940
10108TIP3    H251740   6.794   1.999   5.356  0.8797  0.5537 -0.0379
10109TIP3   OH251741   6.076   5.374  11.716  0.2288 -0.8218 -0.1129
10109TIP3    H151742   6.066   5.320  11.638 -0.3521 -1.2078  0.2227
10109TIP3    H251743   5.987   5.396  11.742  0.4591  1.6119 -1.1208
10110TIP3   OH251744   0.787   2.023   2.720  0.0338 -0.2659  0.0532
10110TIP3    H151745   0.719   2.022   2.653  1.2268  1.1689 -1.2560
10110TIP3    H251746   0.741   2.039   2.802 -1.5582 -2.8021 -0.2299
10111TIP3   OH251747   4.082   6.231   1.988 -0.0880  0.3932 -0.4894
10111TIP3    H151748   4.110   6.179   1.912 -0.8875 -0.3779 -0.2775
10111TIP3    H251749   4.155   6.290   2.005  0.0409  0.6982 -1.9640
10112TIP3   OH251750   1.922   2.027  13.132 -0.0548 -0.4534 -0.2039
10112TIP3    H151751   1.939   1.939  13.167 -1.3925 -0.8775 -0.5550
10112TIP3    H251752   1.971   2.030  13.050 -0.2487 -0.9917 -0.3452
10113TIP3   OH251753   1.904   1.287   3.900  0.1190 -0.6744 -0.4657
10113TIP3    H151754   1.860   1.297   3.815 -0.5953  0.5293  0.0122
10113TIP3    H251755   1.884   1.368   3.947  3.4049  0.2751 -0.4314
10114TIP3   OH251756   0.231   2.066   2.178  0.2735 -0.0152 -0.2873
10114TIP3    H151757   0.320   2.100   2.187  0.1265  0.3060 -0.0186
10114TIP3    H251758   0.198   2.059   2.268  0.0212 -0.1072 -0.3852
10115TIP3   OH251759   1.081   0.696   2.626  0.1648 -0.9639  0.1363
10115TIP3    H151760   1.058   0.638   2.698  0.9543 -3.0091 -1.1499
10115TIP3    H251761   1.000   0.745   2.608 -1.3311 -3.3502 -0.1720
10116TIP3   OH251762   6.698   1.815  10.960  0.6471 -0.2034  0.1896
10116TIP3    H151763   6.633   1.865  10.911  1.5715  0.3117 -0.5448
10116TIP3    H251764   6.780   1.830  10.913  1.2051 -1.2626  0.7945
10117TIP3   OH251765   1.061   0.013   3.266 -0.2459 -0.0953  0.3047
10117TIP3    H151766   1.108   0.096   3.262 -0.7727  0.2441  0.9395
10117TIP3    H251767   0.976   0.035   3.303 -0.3974 -0.9129  0.4715
10118TIP3   OH251768   2.961   5.638  11.745 -0.0578 -0.6167 -0.0699
10118TIP3    H151769   2.897   5.636  11.816 -1.8098  0.0505 -1.5419
10118TIP3    H251770   3.044   5.658  11.788 -1.1442  0.3557  1.7101
10119TIP3   OH251771   0.663   4.974  14.369 -0.0746  0.3530  0.6289
10119TIP3    H151772   0.728   4.926  14.420  1.6101 -0.1849 -1.8269
10119TIP3    H251773   0.603   4.906  14.337 -0.6070  0.5763  1.1202
10120TIP3   OH251774   5.673   0.266  11.457 -0.0843  0.7358  0.0051
10120TIP3    H151775   5.587   0.235  11.428 -0.4215  1.6871 -0.0480
10120TIP3    H251776   5.653   0.332  11.523  0.6533 -1.1143  2.1964
10121TIP3   OH251777   3.370   3.615  13.034 -0.2476 -0.0228  0.2436
10121TIP3    H151778   3.282   3.587  13.059 -0.0805  0.2091  1.1621
10121TIP3    H251779   3.407   3.650  13.115  0.5563  0.2286 -0.2206
10122TIP3   OH251780   0.836   5.299   1.610 -0.4418  0.3323  0.4181
10122TIP3    H151781   0.906   5.236   1.626 -1.2991 -0.4269  1.3481
10122TIP3    H251782   0.756   5.251   1.633 -1.5028  0.3944 -2.6174
10123TIP3   OH251783   3.858   5.224   4.499 -0.2498 -0.3932 -0.0839
10123TIP3    H151784   3.805   5.259   4.427 -0.5698 -1.9499 -0.6303
10123TIP3    H251785   3.842   5.285   4.571 -0.6070  0.7073 -1.0542
10124TIP3   OH251786   0.454   5.674  15.729  0.3207  0.4482  0.0278
10124TIP3    H151787   0.370   5.717  15.712 -0.3640 -1.0674 -0.5915
10124TIP3    H251788   0.515   5.746  15.743 -1.2958  1.6238  1.7010
10125TIP3   OH251789   3.184   0.839  12.019 -0.5897  0.2818 -0.4964
10125TIP3    H151790   3.225   0.781  12.083  0.6646  0.4052 -1.1625
10125TIP3    H251791   3.092   0.843  12.046 -0.1186  0.2331  1.2071
10126TIP3   OH251792   2.864   3.978  10.893  0.2300 -0.1543 -0.5846
10126TIP3    H151793   2.924   3.904  10.894  1.1376  0.3577 -3.8380
10126TIP3    H251794   2.779   3.940  10.917  1.1532 -1.6422  0.4962
10127TIP3   OH251795   1.223   3.419   0.604 -0.0921  0.0538  0.0444
10127TIP3    H151796   1.188   3.333   0.629 -1.8188  0.4134 -0.9698
10127TIP3    H251797   1.237   3.465   0.687 -2.1049 -0.1153  0.5265
10128TIP3   OH251798   4.147   3.091  15.696 -0.3297 -0.0572 -0.0978
10128TIP3    H151799   4.066   3.080  15.647 -0.6541  1.2738  0.1065
10128TIP3    H251800   4.127   3.055  15.783 -0.7590  0.4214  0.0055
10129TIP3   OH251801   4.513   6.634  13.779  0.3901  0.1050  0.1410
10129TIP3    H151802   4.458   6.558  13.760  0.3453  0.1119  0.2431
10129TIP3    H251803   4.601   6.597  13.789  0.1388 -0.1467  1.6824
10130TIP3   OH251804   5.801   6.657   2.885 -0.3248  0.1694  0.0513
10130TIP3    H151805   5.860   6.587   2.912 -0.3968 -0.2464 -0.8386
10130TIP3    H251806   5.834   6.685   2.800 -0.4439  1.0656  0.2787
10131TIP3   OH251807   5.745   6.157  16.510  0.3766  0.5248 -0.2069
10131TIP3    H151808   5.661   6.202  16.512 -0.8542 -1.6950  1.1592
10131TIP3    H251809   5.728   6.076  16.463  1.8069  0.1227 -0.0804
10132TIP3   OH251810   2.866   5.071   1.192  0.0521 -0.2200 -0.6349
10132TIP3    H151811   2.833   4.995   1.145  0.8607 -0.2460 -1.1701
10132TIP3    H251812   2.917   5.120   1.127 -1.2912  1.3364 -0.6058
10133TIP3   OH251813   4.732   4.793  14.114  1.0643 -0.2145 -0.1691
10133TIP3    H151814   4.738   4.850  14.191  0.9030 -0.0243 -0.2958
10133TIP3    H251815   4.822   4.766  14.097  1.3907  1.3644 -1.1298
10134TIP3   OH251816   0.385   4.565  13.486 -0.0793  0.0932  0.6941
10134TIP3    H151817   0.408   4.605  13.402 -0.1741  1.5513  1.3396
10134TIP3    H251818   0.333   4.632  13.531  0.2657 -0.5324  2.0636
10135TIP3   OH251819   2.325   5.206  13.436  0.0562  0.2710 -0.8303
10135TIP3    H151820   2.402   5.150  13.436 -0.7549 -0.8963  0.5592
10135TIP3    H251821   2.303   5.217  13.343  0.9802 -0.6474 -1.1734
10136TIP3   OH251822   2.472   4.157   6.623  0.4528  0.6852 -0.1142
10136TIP3    H151823   2.503   4.246   6.639 -0.8178  1.3409 -1.0627
10136TIP3    H251824   2.451   4.155   6.530 -0.0209 -0.4504 -0.0078
10137TIP3   OH251825   1.817   3.500  15.065  0.1686 -0.3697 -0.0935
10137TIP3    H151826   1.803   3.594  15.069  1.4902 -0.1002 -1.0563
10137TIP3    H251827   1.748   3.468  15.007 -1.5582 -0.3407  1.8123
10138TIP3   OH251828   0.876   4.947   5.966 -0.5235  0.1085  0.3877
10138TIP3    H151829   0.864   4.993   5.883  0.1874 -1.6159 -0.7213
10138TIP3    H251830   0.935   5.004   6.015  0.9969  0.0556 -1.2664
10139TIP3   OH251831   4.012   6.337   3.885 -0.0077 -0.1885  0.8026
10139TIP3    H151832   4.001   6.282   3.963 -1.2724 -1.4788 -0.2223
10139TIP3    H251833   3.936   6.316   3.831 -0.0477  1.9483 -0.0403
10140TIP3   OH251834   4.839   3.246   1.549  0.9165  0.1388  0.3354
10140TIP3    H151835   4.764   3.187   1.537  0.0058  0.9835  1.5836
10140TIP3    H251836   4.845   3.295   1.467 -0.1681  0.3459  0.3710
10141TIP3   OH251837   0.757   4.996   2.008 -0.4306  0.2287  0.5147
10141TIP3    H151838   0.689   4.955   2.062 -0.9161 -0.4217 -0.5338
10141TIP3    H251839   0.737   5.089   2.011  0.3831  0.3837  2.5382
10142TIP3   OH251840   0.806   5.764   2.338 -0.1880  0.0178  0.0359
10142TIP3    H151841   0.855   5.843   2.315  0.3795  0.1208  1.5280
10142TIP3    H251842   0.754   5.790   2.414 -0.0670 -1.0233  0.4824
10143TIP3   OH251843   5.965   2.972   0.406 -0.2232  0.5867 -0.1567
10143TIP3    H151844   6.033   2.994   0.469 -1.8728 -0.1512  1.9817
10143TIP3    H251845   5.883   2.996   0.449 -1.4735 -0.8320 -1.6261
10144TIP3   OH251846   2.835   2.843   3.356 -0.1432 -0.1263 -0.3215
10144TIP3    H151847   2.882   2.925   3.347 -1.4034  0.4735 -1.8149
10144TIP3    H251848   2.782   2.836   3.277 -0.9977 -1.7792  0.3336
10145TIP3   OH251849   1.666   1.889   5.854  0.7132 -0.2618 -0.2651
10145TIP3    H151850   1.606   1.835   5.905  1.8949 -0.3329  1.1516
10145TIP3    H251851   1.748   1.838   5.852  1.3696  0.7622 -0.2634
10146TIP3   OH251852   2.832   6.170   1.857  0.5213  0.0360 -0.4490
10146TIP3    H151853   2.791   6.085   1.842  0.1540  0.4045 -1.6421
10146TIP3    H251854   2.814   6.189   1.949 -0.9644 -0.3560 -0.6296
10147TIP3   OH251855   0.309   2.149  14.818  0.6667 -0.5798 -0.1434
10147TIP3    H151856   0.359   2.102  14.885 -0.3662 -0.2793  0.8663
10147TIP3    H251857   0.275   2.226  14.864  1.6253  0.7441 -1.5498
10148TIP3   OH251858   6.324   3.362   6.081  0.1762 -0.2861 -0.1703
10148TIP3    H151859   6.300   3.348   6.172  1.2981  0.7974  0.3280
10148TIP3    H251860   6.306   3.455   6.065  0.9416 -0.2221 -0.7394
10149TIP3   OH251861   2.100   4.466  16.767 -0.0733  0.0126 -0.4508
10149TIP3    H151862   2.075   4.396  16.826 -0.7863  0.3596 -0.3301
10149TIP3    H251863   2.021   4.519  16.757  0.8093  1.6018  0.5747
10150TIP3   OH251864   1.249   1.349   3.941  0.5531 -0.3055 -0.4389
10150TIP3    H151865   1.276   1.264   3.975  0.2067 -0.0084  0.6094
10150TIP3    H251866   1.291   1.355   3.855  0.2806 -1.6848 -0.6902
10151TIP3   OH251867   2.435   4.170  15.023 -0.2464  0.4074  0.2274
10151TIP3    H151868   2.409   4.170  14.931 -1.1849 -0.0256  0.4819
10151TIP3    H251869   2.452   4.262  15.043 -3.3758  1.0338  0.5225
10152TIP3   OH251870   2.423   5.888  15.297  0.0135 -0.3635  0.0556
10152TIP3    H151871   2.499   5.857  15.247  0.0233 -0.0817 -0.1080
10152TIP3    H251872   2.361   5.815  15.295  0.7675 -1.0689  1.2469
10153TIP3   OH251873   0.458   5.625   2.612 -0.4479 -0.1785  0.0780
10153TIP3    H151874   0.495   5.540   2.587  1.3390  0.3325  0.8011
10153TIP3    H251875   0.440   5.616   2.706  0.3722  0.4308  0.3052
10154TIP3   OH251876   0.968   0.494  11.607  0.8015 -0.2126 -0.4362
10154TIP3    H151877   0.878   0.518  11.584  0.7550  0.9768  0.8347
10154TIP3    H251878   1.005   0.574  11.644  2.0600 -0.9724  0.0007
10155TIP3   OH251879   1.019   1.359  17.287 -0.0009 -0.0652 -0.3490
10155TIP3    H151880   0.929   1.327  17.286  0.6637 -2.1479 -2.4868
10155TIP3    H251881   1.058   1.318  17.364 -0.2993 -1.0990 -0.7254
10156TIP3   OH251882   5.096   5.829   2.236 -0.0482 -0.5224 -0.7684
10156TIP3    H151883   5.135   5.746   2.210  0.4103 -0.8089  0.7231
10156TIP3    H251884   5.096   5.882   2.157 -0.6071 -2.0266 -1.8257
10157TIP3   OH251885   5.158   1.176   2.429  0.1812 -0.1946  0.3366
10157TIP3    H151886   5.166   1.166   2.523  0.5614 -0.6922  0.2562
10157TIP3    H251887   5.158   1.086   2.395  0.7759 -0.0053 -0.1868
10158TIP3   OH251888   6.459   3.731   6.121  0.0755  0.2671  0.1459
10158TIP3    H151889   6.394   3.667   6.090  0.4297  0.6270 -1.4171
10158TIP3    H251890   6.506   3.686   6.190  0.8311 -1.4715 -1.4371
10159TIP3   OH251891   0.548   4.904  11.079  0.4919 -0.2664  0.1077
10159TIP3    H151892   0.613   4.920  11.148 -1.9410  0.4739  2.4047
10159TIP3    H251893   0.548   4.809  11.068  0.9586 -0.4079  1.1554
10160TIP3   OH251894   1.272   4.578  14.959  0.2157  0.8539 -0.3303
10160TIP3    H151895   1.250   4.626  14.879 -2.5004 -1.8137 -1.3961
10160TIP3    H251896   1.266   4.643  15.029 -1.4823  2.4557 -1.8440
10161TIP3   OH251897   0.909   1.958   5.631 -0.1014  0.2816 -0.5074
10161TIP3    H151898   0.995   1.999   5.630 -0.5032  1.1432 -1.9401
10161TIP3    H251899   0.918   1.881   5.575  0.5500 -1.4975  1.8754
10162TIP3   OH251900   1.595   3.090   5.852 -0.1374 -0.0882  0.0789
10162TIP3    H151901   1.605   2.997   5.829  0.9130 -0.2729  1.1524
10162TIP3    H251902   1.580   3.089   5.946 -0.0066  0.8328  0.1106
10163TIP3   OH251903   2.438   4.468  12.441  0.3971  0.0559 -0.0962
10163TIP3    H151904   2.476   4.450  12.355 -1.7569  0.8553 -1.2973
10163TIP3    H251905   2.465   4.557  12.461  1.1170 -0.2221  0.1935
10164TIP3   OH251906   5.088   6.310  13.844 -0.2387  0.4502 -0.1208
10164TIP3    H151907   5.090   6.366  13.921  1.6440 -0.9924  0.9788
10164TIP3    H251908   5.035   6.235  13.871  1.2632 -0.5394  0.1871
10165TIP3   OH251909   2.506   0.491   4.797 -0.0317 -0.0200 -0.1295
10165TIP3    H151910   2.509   0.568   4.740  0.6030  0.4887  0.5570
10165TIP3    H251911   2.506   0.417   4.737  0.1731  0.5059 -0.8002
10166TIP3   OH251912   2.091   6.591   5.361  0.5466 -0.1998  0.2130
10166TIP3    H151913   2.175   6.609   5.402 -1.2928  2.6871  3.1715
10166TIP3    H251914   2.101   6.621   5.270  3.4209 -2.6240 -0.4034
10167TIP3   OH251915   6.063   0.297  16.091 -0.0923 -0.2378 -1.1723
10167TIP3    H151916   6.093   0.208  16.111 -0.7642 -0.1649  0.2908
10167TIP3    H251917   6.114   0.353  16.150 -0.5996  0.2177 -1.1573
10168TIP3   OH251918   2.053   4.128  15.975  0.7354 -0.5387 -0.1057
10168TIP3    H151919   1.966   4.168  15.971  1.0992  0.3221  0.4598
10168TIP3    H251920   2.037   4.038  16.003  0.1137 -0.0804  1.0429
10169TIP3   OH251921   6.184   3.089  12.520 -0.2259  0.2496 -0.5177
10169TIP3    H151922   6.182   3.174  12.562  2.0609  0.7134 -1.2066
10169TIP3    H251923   6.175   3.026  12.592  1.3639  1.0550  0.4328
10170TIP3   OH251924   3.197   2.126   2.880  0.4990 -0.2339  0.6955
10170TIP3    H151925   3.157   2.067   2.944 -1.0930  1.2026  1.1052
10170TIP3    H251926   3.148   2.109   2.799  1.3230 -0.7984  0.3041
10171TIP3   OH251927   3.982   3.803  16.022  0.1363 -0.4406 -0.0144
10171TIP3    H151928   3.919   3.830  16.089 -0.0364 -0.8920  0.0019
10171TIP3    H251929   4.035   3.882  16.007 -0.7986  0.1215 -0.4542
10172TIP3   OH251930   0.783   0.607  15.191  0.0244  0.3482  0.1451
10172TIP3    H151931   0.808   0.517  15.167  2.5223  1.4856 -1.9713
10172TIP3    H251932   0.753   0.647  15.109  0.0207  1.7906  0.8172
10173TIP3   OH251933   4.505   5.884  13.295  0.1490  0.7077  0.2353
10173TIP3    H151934   4.522   5.974  13.266  2.7910 -0.6194 -3.0851
10173TIP3    H251935   4.536   5.882  13.385  0.1004  3.0879  0.3841
10174TIP3   OH251936   0.469   2.337  17.260 -0.5602  0.4605  0.6941
10174TIP3    H151937   0.378   2.313  17.242  0.0674 -2.1011  0.5539
10174TIP3    H251938   0.512   2.254  17.280  2.0900  1.3819 -0.7361
10175TIP3   OH251939   0.747   0.781  12.313  0.1036 -0.1603  0.5710
10175TIP3    H151940   0.673   0.739  12.269  0.3539 -0.5653  0.5336
10175TIP3    H251941   0.729   0.875  12.306 -0.0633 -0.2340 -0.0452
10176TIP3   OH251942   5.004   4.524   0.594  0.1938 -0.5044  0.4759
10176TIP3    H151943   5.081   4.557   0.640  0.2133 -0.1241  0.1715
10176TIP3    H251944   5.031   4.437   0.562 -0.1923 -1.2758  2.1416
10177TIP3   OH251945   6.593   2.759  13.278  0.5150 -0.1361  0.7349
10177TIP3    H151946   6.585   2.851  13.253 -0.4187 -0.4882 -0.3743
10177TIP3    H251947   6.517   2.743  13.334 -0.0260 -0.5231 -0.0862
10178TIP3   OH251948   4.778   3.550  16.484 -0.0626 -0.1666 -0.4776
10178TIP3    H151949   4.705   3.608  16.462  0.4427  0.4992 -0.4515
10178TIP3    H251950   4.739   3.464  16.493 -0.9795  0.3088  0.2898
10179TIP3   OH251951   6.173   3.926  16.706 -0.0341  0.2326 -0.0267
10179TIP3    H151952   6.088   3.968  16.699  0.6469  1.5578 -0.6022
10179TIP3    H251953   6.154   3.832  16.702 -1.3360  0.5279 -1.7812
10180TIP3   OH251954   2.148   0.442  12.051 -0.2686  0.2272  0.2263
10180TIP3    H151955   2.068   0.397  12.079 -0.2903  0.1590  0.0592
10180TIP3    H251956   2.117   0.520  12.006 -0.2097  1.0871  1.6255
10181TIP3   OH251957   3.926   1.546  15.943  0.3153  0.3794 -0.5220
10181TIP3    H151958   3.987   1.497  15.999  0.2999 -0.4870 -1.2514
10181TIP3    H251959   3.851   1.488  15.933 -0.0625  0.8988 -0.7251
10182TIP3   OH251960   4.413   4.864   3.232 -0.3115  0.2546 -0.2573
10182TIP3    H151961   4.453   4.815   3.304  1.3249  1.4356 -0.3061
10182TIP3    H251962   4.483   4.871   3.166 -1.0450  1.1613 -0.9720
10183TIP3   OH251963   3.774   4.751   0.233  0.1451 -0.0684  0.5025
10183TIP3    H151964   3.843   4.811   0.260  0.0685 -0.2240  1.0609
10183TIP3    H251965   3.818   4.688   0.177  0.3008  0.2918  0.2161
10184TIP3   OH251966   6.081   3.075  13.653  0.2526  0.2035 -0.1751
10184TIP3    H151967   6.046   3.005  13.708  0.7328 -0.2451 -0.4290
10184TIP3    H251968   6.175   3.057  13.647  0.5979  1.5834  0.7619
10185TIP3   OH251969   0.470   0.413  16.874  0.1195  0.7159  0.3326
10185TIP3    H151970   0.446   0.322  16.891 -0.2242  0.6154 -0.5847
10185TIP3    H251971   0.474   0.454  16.960 -1.2493  0.1964  0.6820
10186TIP3   OH251972   4.070   5.329   2.488  0.1259 -0.7666  0.4485
10186TIP3    H151973   4.096   5.317   2.396  2.2557  0.7655  0.7655
10186TIP3    H251974   4.137   5.281   2.537  0.6754  0.7593  1.2446
10187TIP3   OH251975   5.387   0.418  13.857 -0.2949 -0.1098 -0.6550
10187TIP3    H151976   5.324   0.349  13.837 -0.8629 -0.0103  0.6883
10187TIP3    H251977   5.417   0.448  13.771  0.2855 -2.2837 -1.2833
10188TIP3   OH251978   0.857   3.097  13.763  0.3555 -0.2892 -0.2051
10188TIP3    H151979   0.878   3.133  13.677  0.7061 -1.4226 -0.6177
10188TIP3    H251980   0.866   3.002  13.752 -1.0095 -0.5531  0.6929
10189TIP3   OH251981   0.519   3.656   6.054  0.0630  0.2823 -0.4016
10189TIP3    H151982   0.540   3.698   6.137 -0.6101 -0.7854  0.3331
10189TIP3    H251983   0.494   3.728   5.996  0.2630  1.0081  0.3994
10190TIP3   OH251984   1.183   6.105  14.333 -0.1081 -0.1246 -0.3827
10190TIP3    H151985   1.247   6.117  14.263  0.1938 -0.9168 -0.2444
10190TIP3    H251986   1.152   6.016  14.323  0.7465 -0.6405  1.1568
10191TIP3   OH251987   3.264   2.084  11.115  0.1414  0.0661  0.0807
10191TIP3    H151988   3.204   2.113  11.047 -0.8700 -0.4418  0.7296
10191TIP3    H251989   3.224   2.005  11.151 -0.5621  1.5301  2.7973
10192TIP3   OH251990   3.432   2.524   4.433 -0.3779  0.3715  0.3935
10192TIP3    H151991   3.508   2.565   4.473  0.9049 -1.1023 -0.4325
10192TIP3    H251992   3.414   2.577   4.356  3.3739 -2.1837 -2.6311
10193TIP3   OH251993   5.663   5.407  15.038 -0.3374  0.7574 -0.4300
10193TIP3    H151994   5.754   5.383  15.021 -0.8163 -1.0094 -0.6903
10193TIP3    H251995   5.612   5.332  15.007 -1.8927  1.7229 -0.3194
10194TIP3   OH251996   6.081   0.301  16.963 -0.3222 -0.1810  0.5265
10194TIP3    H151997   6.158   0.249  16.945 -0.7014 -1.3164  2.0055
10194TIP3    H251998   6.107   0.360  17.033 -0.1994  0.9564 -0.4368
10195TIP3   OH251999   1.697   6.689  17.031  0.0894 -0.3915  0.3037
10195TIP3    H152000   1.729   6.770  17.071  0.0935  0.6072 -1.6290
10195TIP3    H252001   1.605   6.707  17.010 -0.1256 -1.1744  0.5026
10196TIP3   OH252002   5.058   0.259  15.309  0.5983 -0.0836 -0.2349
10196TIP3    H152003   5.004   0.257  15.388 -0.1635 -0.0624 -0.7367
10196TIP3    H252004   5.061   0.352  15.284  2.4482  0.1837  0.8182
10197TIP3   OH252005   3.769   2.030  15.917 -0.1667  0.1228 -0.7279
10197TIP3    H152006   3.789   1.939  15.941  2.1590  0.6723 -0.3001
10197TIP3    H252007   3.839   2.054  15.857 -1.1981  1.4064 -1.4528
10198TIP3   OH252008   0.445   3.808   2.231  0.1712 -0.0019 -0.2228
10198TIP3    H152009   0.377   3.742   2.246  0.0174 -0.1805 -1.5120
10198TIP3    H252010   0.398   3.882   2.193  0.3009  0.9874  1.4747
10199TIP3   OH252011   1.885   0.914   6.087 -0.1329 -0.8451 -0.2409
10199TIP3    H152012   1.921   0.843   6.139  1.1794  0.6618  1.0208
10199TIP3    H252013   1.957   0.976   6.076 -1.9161  1.7648  1.4029
10200TIP3   OH252014   6.028   1.815  16.470 -0.4934 -0.0519  0.0741
10200TIP3    H152015   6.106   1.863  16.441 -0.0137 -0.7722  0.1285
10200TIP3    H252016   5.987   1.873  16.533  0.5331 -0.0409  0.7659
10201TIP3   OH252017   0.477   4.642  11.191 -0.4936  0.5511 -0.8531
10201TIP3    H152018   0.478   4.585  11.267  1.3679  0.6873 -0.7323
10201TIP3    H252019   0.434   4.722  11.221  1.7431  1.2818  0.6414
10202TIP3   OH252020   0.124   4.755   0.152 -0.0652  0.4812 -0.4107
10202TIP3    H152021   0.215   4.767   0.176  0.2739 -0.0782 -1.3749
10202TIP3    H252022   0.097   4.840   0.117  1.0731 -0.2122 -3.2074
10203TIP3   OH252023   5.980   1.671  15.578  0.3472 -0.3326  0.7381
10203TIP3    H152024   6.034   1.747  15.557  0.7923 -0.6515  0.7158
10203TIP3    H252025   5.971   1.625  15.494 -0.4216  0.0065  0.6246
10204TIP3   OH252026   2.374   2.352  15.801  0.4515 -0.0507  0.2994
10204TIP3    H152027   2.400   2.439  15.770  1.0210  0.2807  1.6271
10204TIP3    H252028   2.445   2.294  15.773  1.4435  0.4150  1.7391
10205TIP3   OH252029   2.743   3.388   0.627  0.6138  0.4248  0.0370
10205TIP3    H152030   2.651   3.392   0.604  0.6034 -0.0328  0.0016
10205TIP3    H252031   2.785   3.345   0.553  0.5299 -1.3803  0.9853
10206TIP3   OH252032   6.463   4.386  15.298 -0.3177 -0.4387 -0.1230
10206TIP3    H152033   6.455   4.334  15.218 -1.6974 -0.7156  0.1820
10206TIP3    H252034   6.374   4.411  15.320  0.2291  1.3887  0.2016
10207TIP3   OH252035   2.109   5.278  12.960  0.2698  0.1688  0.1476
10207TIP3    H152036   2.041   5.339  12.933 -0.2235 -0.0330  0.9046
10207TIP3    H252037   2.135   5.233  12.879 -0.2661  0.4713 -0.1975
10208TIP3   OH252038   1.197   0.694   0.303  0.2180  0.0104 -0.0740
10208TIP3    H152039   1.204   0.671   0.210  1.6511  1.0328 -0.2505
10208TIP3    H252040   1.104   0.686   0.323  0.0320 -1.2824 -1.3121
10209TIP3   OH252041   1.597   1.379  12.695  0.6574  0.0721  0.0316
10209TIP3    H152042   1.526   1.366  12.632  0.5946 -0.6200  0.2364
10209TIP3    H252043   1.602   1.296  12.742  2.2468 -0.2602 -0.6511
10210TIP3   OH252044   2.963   4.371   1.524 -0.0532  0.7822  0.1271
10210TIP3    H152045   2.898   4.382   1.454 -0.3974  0.5208  0.4036
10210TIP3    H252046   2.983   4.461   1.552 -0.7519  0.8401  0.4571
10211TIP3   OH252047   0.616   5.207   3.861  0.4846  0.5802  0.0983
10211TIP3    H152048   0.630   5.296   3.829 -2.7446  1.1743 -0.0148
10211TIP3    H252049   0.552   5.216   3.932 -0.4614 -1.6763 -0.3644
10212TIP3   OH252050   4.610   6.292   0.514  0.7259  0.5807  0.4038
10212TIP3    H152051   4.604   6.327   0.603 -2.8344  1.7781 -0.1731
10212TIP3    H252052   4.651   6.362   0.463  0.0755  1.1083  0.5888
10213TIP3   OH252053   4.098   5.703   0.857  0.1224  0.3867 -0.4517
10213TIP3    H152054   4.151   5.743   0.927 -0.8027 -1.5225  1.4780
10213TIP3    H252055   4.119   5.610   0.863 -2.1008 -0.1731 -0.8242
10214TIP3   OH252056   2.466   3.473   0.817 -0.0643  0.5616 -0.0708
10214TIP3    H152057   2.439   3.481   0.725 -1.8984  1.5638  0.5114
10214TIP3    H252058   2.467   3.562   0.850  0.4746  0.2019  0.9327
10215TIP3   OH252059   0.587   4.704  14.310  0.6145 -0.7115 -0.4921
10215TIP3    H152060   0.651   4.644  14.349  0.3967  0.3943  1.7320
10215TIP3    H252061   0.507   4.652  14.300  0.8943 -1.2192 -0.1334
10216TIP3   OH252062   0.610   6.481  13.087  0.1871 -0.6528 -0.1730
10216TIP3    H152063   0.673   6.546  13.057  0.6773 -0.7929  0.5404
10216TIP3    H252064   0.531   6.531  13.107  0.5185 -0.2950  0.2523
10217TIP3   OH252065   3.171   2.547  16.663  0.1416  0.3859  0.4449
10217TIP3    H152066   3.165   2.452  16.651  0.6853  0.4735 -0.6407
10217TIP3    H252067   3.092   2.581  16.621  1.3720  0.5934 -1.8629
10218TIP3   OH252068   4.003   4.465   2.343 -0.1373  0.1456 -0.2036
10218TIP3    H152069   4.009   4.517   2.424 -1.5892 -0.7239  0.4906
10218TIP3    H252070   3.929   4.503   2.295 -1.5338 -1.5028  0.5334
10219TIP3   OH252071   4.666   4.648   5.093  0.0266 -0.2697  0.0936
10219TIP3    H152072   4.580   4.686   5.111 -0.2689 -0.8345 -0.1017
10219TIP3    H252073   4.655   4.555   5.112  0.4323 -0.4451 -0.5251
10220TIP3   OH252074   5.705   0.405   1.054 -0.5557  0.3403 -0.3001
10220TIP3    H152075   5.757   0.455   0.991 -0.0023  0.6891  0.4312
10220TIP3    H252076   5.768   0.349   1.099 -0.9441  0.1164 -0.0242
10221TIP3   OH252077   0.897   6.327  13.880  0.6502  0.3498  0.7044
10221TIP3    H152078   0.887   6.422  13.886  3.4639  0.6870  1.2898
10221TIP3    H252079   0.948   6.313  13.801 -0.2826 -0.7832  0.2629
10222TIP3   OH252080   6.166   4.583  14.374  0.0521  0.0370  0.3075
10222TIP3    H152081   6.196   4.621  14.457  0.0773  0.2391  0.2064
10222TIP3    H252082   6.132   4.497  14.398  0.2529  0.0098  0.4984
10223TIP3   OH252083   5.497   5.046   0.488 -0.2983 -0.3179 -0.1482
10223TIP3    H152084   5.590   5.061   0.469  0.0949 -2.7964 -0.4582
10223TIP3    H252085   5.474   4.967   0.440 -2.1445 -0.6940  1.2214
10224TIP3   OH252086   3.523   0.181   6.202 -0.7410 -0.3630  0.4436
10224TIP3    H152087   3.547   0.093   6.172 -0.8982  0.6017 -2.8240
10224TIP3    H252088   3.606   0.227   6.210 -0.8062 -0.0810 -0.4240
10225TIP3   OH252089   4.303   2.774   5.430 -0.5663 -0.6036 -0.5422
10225TIP3    H152090   4.386   2.761   5.475 -0.2915  0.3961 -0.7334
10225TIP3    H252091   4.256   2.692   5.442  0.2879 -1.0391 -0.0959
10226TIP3   OH252092   4.426   2.587  14.128  0.0368 -0.0295 -0.3942
10226TIP3    H152093   4.353   2.594  14.189 -0.1835 -0.5686 -0.5872
10226TIP3    H252094   4.394   2.624  14.046 -0.7817 -2.1739 -1.1155
10227TIP3   OH252095   4.297   3.005   4.896  0.3429  0.3590  0.2558
10227TIP3    H152096   4.355   2.948   4.947  0.8276  0.2302 -0.4331
10227TIP3    H252097   4.212   2.962   4.901  0.8002 -0.6982 -0.6491
10228TIP3   OH252098   3.503   0.953   2.704  0.1683 -0.1223 -0.3239
10228TIP3    H152099   3.570   1.020   2.718 -1.6040  1.8967 -0.9584
10228TIP3    H252100   3.536   0.876   2.750  1.5259  1.6707  1.9122
10229TIP3   OH252101   3.597   1.351   3.738 -0.2581 -0.0444  0.5196
10229TIP3    H152102   3.661   1.420   3.719 -0.0432  0.1073  1.6922
10229TIP3    H252103   3.589   1.302   3.656 -0.9481  1.7889 -0.5518
10230TIP3   OH252104   5.472   2.910   4.378 -0.2538  0.3266 -0.6455
10230TIP3    H152105   5.402   2.949   4.326 -1.1725  2.1296  1.7324
10230TIP3    H252106   5.439   2.823   4.402 -1.4784  0.9303 -0.0454
10231TIP3   OH252107   2.698   4.975   0.678  0.1939  0.3596 -1.0013
10231TIP3    H152108   2.668   5.062   0.706  0.5147  0.0768  0.2810
10231TIP3    H252109   2.790   4.986   0.657  0.4167  0.1838 -0.1362
10232TIP3   OH252110   3.293   4.408   0.447 -0.3202 -0.0301  0.6581
10232TIP3    H152111   3.364   4.456   0.489 -1.6575  1.4802  1.2901
10232TIP3    H252112   3.317   4.406   0.354 -0.6168  2.7503  0.4324
10233TIP3   OH252113   4.216   3.307   3.870 -0.5256 -0.0558 -0.1534
10233TIP3    H152114   4.286   3.293   3.806 -0.6760 -1.5176 -0.0471
10233TIP3    H252115   4.138   3.271   3.828 -1.2213  1.5253 -0.2532
10234TIP3   OH252116   1.748   1.984   0.990  0.3451  0.2582  0.1450
10234TIP3    H152117   1.708   2.071   0.985  0.7726  0.5108  0.9145
10234TIP3    H252118   1.682   1.930   1.033 -0.7992 -0.3685 -2.2115
10235TIP3   OH252119   5.210   1.602  13.514  0.2156 -0.3897  0.0027
10235TIP3    H152120   5.188   1.647  13.432  0.5620 -1.8108 -0.8964
10235TIP3    H252121   5.302   1.580  13.505 -0.2169 -2.3182 -0.1209
10236TIP3   OH252122   2.962   5.308   4.524  0.3769  0.0093  0.0520
10236TIP3    H152123   2.963   5.365   4.600  0.3215 -1.4745  1.2216
10236TIP3    H252124   2.933   5.223   4.558  0.4521 -0.7241 -1.6020
10237TIP3   OH252125   1.666   2.584  14.535 -0.2161  0.3761 -0.4830
10237TIP3    H152126   1.609   2.508  14.521  0.0242  0.5450 -2.8254
10237TIP3    H252127   1.638   2.647  14.469  2.2997  0.6819 -1.3576
10238TIP3   OH252128   1.103   5.978   0.970 -0.3774 -0.0657 -0.0362
10238TIP3    H152129   1.099   6.033   1.048  0.3841 -0.5465  0.3537
10238TIP3    H252130   1.188   5.934   0.976  0.3844  1.0140 -1.8861
10239TIP3   OH252131   5.991   5.407  15.123 -0.0765 -0.2090 -0.4871
10239TIP3    H152132   6.039   5.480  15.162  1.3618  0.2420 -2.8548
10239TIP3    H252133   6.028   5.329  15.165 -0.1855  0.3197  0.6207
10240TIP3   OH252134   3.168   3.682  15.950 -0.0966  0.7024 -0.0758
10240TIP3    H152135   3.090   3.711  15.997 -0.2803 -2.0896  1.6066
10240TIP3    H252136   3.137   3.611  15.894  1.2410 -0.7932  0.9887
10241TIP3   OH252137   2.988   0.216  16.394 -0.0355 -0.2141  0.2601
10241TIP3    H152138   2.897   0.191  16.377  0.4785 -1.9963 -0.1209
10241TIP3    H252139   3.014   0.163  16.469  0.9052 -0.2732 -0.0979
10242TIP3   OH252140   0.620   6.015   0.551 -0.1368 -0.4381  0.3293
10242TIP3    H152141   0.633   6.078   0.480 -0.6460  0.1510  0.7489
10242TIP3    H252142   0.651   6.061   0.630 -2.0802 -0.0454  0.9109
10243TIP3   OH252143   0.346   3.711   3.785 -0.5238  0.4116 -0.0449
10243TIP3    H152144   0.337   3.806   3.791 -0.2134  0.4907 -0.7849
10243TIP3    H252145   0.257   3.679   3.776 -0.5233  0.7722 -1.5680
10244TIP3   OH252146   4.391   0.600  11.344 -0.1194 -0.5004  0.4505
10244TIP3    H152147   4.358   0.684  11.376 -1.0157 -0.7779  0.2836
10244TIP3    H252148   4.427   0.620  11.257  0.5587 -0.1177  0.8070
10245TIP3   OH252149   1.204   1.636  13.059 -0.5110  0.0234 -0.1832
10245TIP3    H152150   1.144   1.697  13.015  0.9896  1.0237 -0.9237
10245TIP3    H252151   1.218   1.567  12.995 -0.6922 -0.0882 -0.1025
10246TIP3   OH252152   1.918   4.080  14.594 -0.2846 -0.3103 -0.3106
10246TIP3    H152153   1.840   4.025  14.597  1.5031 -3.0301 -0.4035
10246TIP3    H252154   1.957   4.070  14.681 -0.2507  1.4211 -0.0968
10247TIP3   OH252155   4.682   6.314  11.473 -0.0636  0.0015 -0.3782
10247TIP3    H152156   4.609   6.328  11.414  0.1925  1.3294 -0.4042
10247TIP3    H252157   4.695   6.219  11.474  0.1105 -0.0373 -2.6621
10248TIP3   OH252158   6.588   5.477  12.037  0.1398  0.0794  0.3562
10248TIP3    H152159   6.617   5.407  12.095  1.7080  2.3501  2.5123
10248TIP3    H252160   6.629   5.458  11.953  2.2936 -0.4843  1.4796
10249TIP3   OH252161   2.303   2.062  11.698  0.4088  0.5198 -0.0664
10249TIP3    H152162   2.309   2.030  11.788  1.6937  2.2695  0.5302
10249TIP3    H252163   2.372   2.016  11.651 -0.7199 -0.9288 -0.3864
10250TIP3   OH252164   0.890   2.188   0.041 -0.4029 -0.0371  0.1481
10250TIP3    H152165   0.901   2.278   0.010  0.6849 -0.9181 -2.2837
10250TIP3    H252166   0.972   2.168   0.086 -0.6287  0.1550  0.6530
10251TIP3   OH252167   5.361   2.404  15.058  0.1446  0.1502 -0.5291
10251TIP3    H152168   5.413   2.330  15.027 -0.8544 -0.3450 -1.0729
10251TIP3    H252169   5.392   2.420  15.147 -0.3600 -1.6241 -0.0010
10252TIP3   OH252170   3.392   4.804   2.051  0.3419  0.0923  0.0375
10252TIP3    H152171   3.483   4.810   2.023 -0.1502  0.2385 -1.6394
10252TIP3    H252172   3.346   4.866   1.994 -0.7641  0.2060  1.0321
10253TIP3   OH252173   1.905   5.698  11.883 -0.3643  0.0059  0.1459
10253TIP3    H152174   1.813   5.723  11.897  0.6193  3.1788  2.1140
10253TIP3    H252175   1.919   5.626  11.945 -1.4745 -0.4552 -0.1032
10254TIP3   OH252176   2.113   2.634  14.720  0.0427 -0.2141 -0.2197
10254TIP3    H152177   2.195   2.591  14.695 -0.0276 -0.7523  0.4403
10254TIP3    H252178   2.057   2.562  14.748 -1.1584 -0.0190 -1.9558
10255TIP3   OH252179   2.006   0.036  15.868  0.5577  0.0749  0.4422
10255TIP3    H152180   2.044   0.008  15.785 -1.1988 -0.8125 -0.1162
10255TIP3    H252181   2.044  -0.024  15.933  1.7486  0.6181  0.2693
10256TIP3   OH252182   1.611   3.423  15.700  0.0198 -0.1803 -0.0456
10256TIP3    H152183   1.529   3.374  15.705 -0.0624 -0.6095 -3.1406
10256TIP3    H252184   1.586   3.509  15.664  0.8835 -0.3849 -1.2266
10257TIP3   OH252185   3.570   3.955   1.752 -0.2560 -0.2463 -0.2603
10257TIP3    H152186   3.563   3.894   1.679 -2.0904 -0.0139 -0.3319
10257TIP3    H252187   3.533   4.037   1.718 -0.6181  0.0272  0.7547
10258TIP3   OH252188   3.801   4.231   0.645  0.2799  0.1960  0.1863
10258TIP3    H152189   3.757   4.250   0.562 -2.1998 -0.7462  1.1636
10258TIP3    H252190   3.816   4.136   0.642 -1.0859 -0.0937  1.2875
10259TIP3   OH252191   2.130   6.296   3.864 -0.0477  0.1279  0.0267
10259TIP3    H152192   2.173   6.379   3.887  0.1352  0.3216 -0.9741
10259TIP3    H252193   2.202   6.239   3.838 -0.2990  0.1432 -0.7287
10260TIP3   OH252194   6.651   5.660  14.126 -0.2845  0.2522  0.1960
10260TIP3    H152195   6.623   5.752  14.131  0.9918  0.8140 -1.5797
10260TIP3    H252196   6.593   5.621  14.061  1.0778  0.6640 -1.3410
10261TIP3   OH252197   2.042   0.404   5.134 -0.2832  0.8016 -0.1350
10261TIP3    H152198   2.103   0.340   5.098  1.4161  3.6717 -2.7640
10261TIP3    H252199   2.044   0.387   5.229  1.8697 -1.4774 -0.4705
10262TIP3   OH252200   5.879   1.476  13.466  0.1739  0.3603 -0.0233
10262TIP3    H152201   5.867   1.511  13.554 -0.1244  2.2909 -0.7665
10262TIP3    H252202   5.928   1.544  13.419 -0.1862 -0.3414 -1.5037
10263TIP3   OH252203   5.085   1.753  13.320 -0.3529  0.2462  0.1176
10263TIP3    H152204   5.038   1.778  13.400 -0.8825 -2.2556  0.6683
10263TIP3    H252205   5.023   1.700  13.270 -0.2434  2.2560 -2.3356
10264TIP3   OH252206   5.662   0.420  11.926  0.4419 -0.5426 -0.1997
10264TIP3    H152207   5.670   0.324  11.928  1.2324 -0.4746  0.0560
10264TIP3    H252208   5.735   0.452  11.978  0.5859  0.2260 -0.8511
10265TIP3   OH252209   0.090   2.426  11.382  0.4607 -0.0789  0.1131
10265TIP3    H152210   0.167   2.394  11.335 -0.2389 -2.7159  0.5497
10265TIP3    H252211   0.017   2.379  11.343 -0.7050  0.9960  0.9252
10266TIP3   OH252212   2.327   5.201  15.567 -0.0577 -0.0223 -0.0545
10266TIP3    H152213   2.263   5.265  15.538 -1.0268 -0.7677  0.3681
10266TIP3    H252214   2.338   5.142  15.492  1.6622  1.2196 -0.8386
10267TIP3   OH252215   0.245   0.285  12.883 -0.0991  0.4480  0.5343
10267TIP3    H152216   0.208   0.208  12.841 -0.0437  1.5265 -1.6809
10267TIP3    H252217   0.173   0.323  12.933 -0.5086 -0.2991  0.5154
10268TIP3   OH252218   5.768   4.590   5.601  0.3280 -0.0242 -0.2824
10268TIP3    H152219   5.740   4.615   5.689  1.1033  1.8139 -0.5213
10268TIP3    H252220   5.717   4.645   5.542  0.2930 -0.7720 -0.9803
10269TIP3   OH252221   0.845   2.316   3.914  0.0241 -0.1101 -0.2950
10269TIP3    H152222   0.789   2.257   3.864 -1.3030  1.6500 -1.0109
10269TIP3    H252223   0.845   2.279   4.003 -1.1539 -0.9323 -0.6103
10270TIP3   OH252224   2.701   1.741   4.677 -0.1699 -0.0732 -0.0590
10270TIP3    H152225   2.662   1.654   4.668  1.1067 -0.5877 -0.8693
10270TIP3    H252226   2.683   1.766   4.767  0.0076 -1.4655  0.3810
10271TIP3   OH252227   1.523   1.665  12.313 -0.0875 -0.2001  0.2216
10271TIP3    H152228   1.431   1.649  12.332 -0.0973 -0.1045  0.2601
10271TIP3    H252229   1.555   1.714  12.390 -0.7994  2.6514 -1.1516
10272TIP3   OH252230   2.193   3.168   6.294  0.4624  0.4371  0.0935
10272TIP3    H152231   2.172   3.195   6.384  0.2343  0.0731  0.1510
10272TIP3    H252232   2.238   3.085   6.304 -0.3528 -0.0513 -0.1694
10273TIP3   OH252233   2.768   3.218   3.835  0.7983  0.0028 -0.2043
10273TIP3    H152234   2.741   3.127   3.836  0.3342  0.1278  1.2038
10273TIP3    H252235   2.722   3.257   3.760  0.0599 -0.6496 -0.0973
10274TIP3   OH252236   2.079   5.418  11.916  0.0977  0.4625 -0.5626
10274TIP3    H152237   2.023   5.407  11.839  0.5841  0.1867 -0.8866
10274TIP3    H252238   2.020   5.408  11.991  0.1002 -2.3041 -0.8298
10275TIP3   OH252239   2.516   4.425  16.430  0.1148 -0.5988  0.2716
10275TIP3    H152240   2.535   4.444  16.522 -1.2925  0.5984  0.3577
10275TIP3    H252241   2.572   4.486  16.381  1.4580 -1.7869  0.2791
10276TIP3   OH252242   4.191   4.645  13.772 -0.3454 -0.1093 -0.0425
10276TIP3    H152243   4.218   4.679  13.857 -0.2624  1.3243 -0.6036
10276TIP3    H252244   4.187   4.550  13.784  0.2055  0.0189  1.3938
10277TIP3   OH252245   5.136   5.171   2.630  0.1049  0.3741  0.2891
10277TIP3    H152246   5.134   5.267   2.630  2.7412  0.4995 -0.5947
10277TIP3    H252247   5.118   5.147   2.721 -2.4767  1.5388  0.1967
10278TIP3   OH252248   0.386   5.650  11.717 -0.1807  0.1213  0.4704
10278TIP3    H152249   0.414   5.573  11.766  0.8158 -0.4032 -0.8583
10278TIP3    H252250   0.428   5.641  11.632 -0.4760  1.8766  0.0987
10279TIP3   OH252251   2.364   3.487   5.817 -0.3676 -0.3473  0.2111
10279TIP3    H152252   2.287   3.465   5.869 -0.8808 -1.1803 -0.8388
10279TIP3    H252253   2.431   3.425   5.846 -0.5906 -0.6758  0.0360
10280TIP3   OH252254   6.540   5.180   5.560 -0.6795 -0.2917 -0.0382
10280TIP3    H152255   6.555   5.158   5.652 -0.1982 -0.1096 -0.0693
10280TIP3    H252256   6.484   5.258   5.563 -0.9721 -0.5066  0.0949
10281TIP3   OH252257   2.025   4.838   5.372 -0.0773  0.0211  0.0355
10281TIP3    H152258   2.061   4.884   5.296  0.6748  2.0554  1.5190
10281TIP3    H252259   1.932   4.863   5.374 -0.1897 -0.3581 -0.4260
10282TIP3   OH252260   5.907   0.901  14.770  0.3528 -0.2334  0.7173
10282TIP3    H152261   5.850   0.892  14.846  0.9066  1.0706  1.3239
10282TIP3    H252262   5.909   0.995  14.753  2.5229 -0.2062  0.8978
10283TIP3   OH252263   1.651   0.391   5.963  0.0649 -0.0747 -0.4227
10283TIP3    H152264   1.641   0.486   5.964  2.9538  0.3692 -1.7804
10283TIP3    H252265   1.712   0.373   6.034 -0.4627 -0.9211 -0.1757
10284TIP3   OH252266   3.479   2.335  10.732 -0.2129  0.1650  0.3282
10284TIP3    H152267   3.389   2.317  10.706 -0.3190  0.1873  0.6776
10284TIP3    H252268   3.531   2.319  10.653 -0.0340 -3.5583  1.0252
10285TIP3   OH252269   3.981   1.703   4.015 -0.3660  0.1022 -0.4792
10285TIP3    H152270   4.014   1.648   4.086  0.6357 -2.0222 -2.4773
10285TIP3    H252271   3.906   1.655   3.980 -0.7502  1.0442 -0.9849
10286TIP3   OH252272   1.650   6.625  16.743 -0.1007 -0.2518 -0.1286
10286TIP3    H152273   1.733   6.650  16.784  0.1956  0.4490 -1.1381
10286TIP3    H252274   1.584   6.643  16.811  0.1945  2.5232 -0.4723
10287TIP3   OH252275   5.903   4.917  11.862 -0.3001 -0.0331  0.0684
10287TIP3    H152276   5.823   4.953  11.900 -0.6813  0.0310 -0.7604
10287TIP3    H252277   5.881   4.827  11.839 -0.4225  0.2323 -0.9343
10288TIP3   OH252278   4.812   4.651   1.485  0.3454  0.3612  0.0509
10288TIP3    H152279   4.798   4.575   1.542 -1.3345  0.1837 -0.5663
10288TIP3    H252280   4.816   4.615   1.397 -0.6775  0.9860 -0.2706
10289TIP3   OH252281   0.375   5.931  12.743 -0.6668  0.2094  0.1633
10289TIP3    H152282   0.449   5.884  12.783 -0.9983 -0.9334 -0.5205
10289TIP3    H252283   0.377   5.903  12.652 -0.2971  2.2979 -0.5114
10290TIP3   OH252284   5.673   3.471   2.304  0.0123 -0.0681 -0.1209
10290TIP3    H152285   5.620   3.519   2.240  1.4600  0.9573 -0.6132
10290TIP3    H252286   5.690   3.535   2.373 -1.3088 -1.0832  1.2240
10291TIP3   OH252287   0.100   3.234  11.621  0.7161  0.3441  0.2773
10291TIP3    H152288   0.062   3.252  11.535  1.5716  0.1105 -0.1654
10291TIP3    H252289   0.171   3.172  11.603  1.6203  1.1359  0.9824
10292TIP3   OH252290   0.923   2.839   0.759  0.4755 -0.2916  0.5768
10292TIP3    H152291   0.912   2.769   0.694 -1.2836  0.8894 -0.4897
10292TIP3    H252292   0.834   2.863   0.784  0.9158  2.5950 -0.2839
10293TIP3   OH252293   2.918   3.349   5.186  0.4700  0.0698  0.1113
10293TIP3    H152294   2.830   3.347   5.149 -0.1548 -0.8462  1.5437
10293TIP3    H252295   2.908   3.397   5.268  1.5318  0.8678 -0.2009
10294TIP3   OH252296   2.858   5.793   6.605  0.2393 -0.2949 -0.0330
10294TIP3    H152297   2.896   5.854   6.668  0.7359 -1.2763  0.6418
10294TIP3    H252298   2.934   5.757   6.558  0.0354 -1.1582  0.2929
10295TIP3   OH252299   6.451   0.626   4.960  0.2687 -0.1342 -0.2091
10295TIP3    H152300   6.535   0.646   4.918 -0.6012  1.2624 -1.3494
10295TIP3    H252301   6.386   0.673   4.909 -1.2214 -1.0380  0.7641
10296TIP3   OH252302   3.547   1.332   4.095 -0.5112 -0.6094  0.1219
10296TIP3    H152303   3.548   1.344   4.000  1.6132 -1.1181  0.0390
10296TIP3    H252304   3.570   1.418   4.130 -1.6637 -0.3205  0.2401
10297TIP3   OH252305   4.892   4.459   5.343 -0.1057 -0.0056  0.3523
10297TIP3    H152306   4.855   4.374   5.318  1.2263 -1.2456  2.2921
10297TIP3    H252307   4.863   4.472   5.434  1.4338  0.5418  0.8066
10298TIP3   OH252308   4.362   3.850  15.072  0.1808 -0.1814 -0.1634
10298TIP3    H152309   4.402   3.935  15.090 -0.5103 -0.0483  0.8183
10298TIP3    H252310   4.348   3.811  15.158 -1.8281 -0.1964 -0.4417
10299TIP3   OH252311   3.549   6.678   1.021 -0.2537 -0.4741  0.0550
10299TIP3    H152312   3.624   6.713   0.972  0.1721  1.6602  2.0545
10299TIP3    H252313   3.476   6.685   0.960  0.5944  0.2995 -0.9206
10300TIP3   OH252314   0.119   4.850  13.792  0.0277  0.3266  0.1096
10300TIP3    H152315   0.072   4.768  13.807 -0.3927 -0.0893 -2.9071
10300TIP3    H252316   0.051   4.917  13.791 -0.0272  0.2641 -0.4942
10301TIP3   OH252317   2.382   6.323   2.321 -0.4190 -0.3860  0.3651
10301TIP3    H152318   2.466   6.302   2.362 -1.0642 -0.0145  1.9678
10301TIP3    H252319   2.325   6.347   2.395 -1.4771  0.9202 -0.8175
10302TIP3   OH252320   0.034   0.328   3.010 -0.2084  0.4328  0.2938
10302TIP3    H152321   0.006   0.307   2.921  0.6911  1.5556 -0.2846
10302TIP3    H252322   0.120   0.287   3.018 -0.7198 -0.5241  1.0203
10303TIP3   OH252323   1.803   1.603   1.729  0.6814  0.2852 -0.0480
10303TIP3    H152324   1.766   1.628   1.645  1.3854  1.2768 -0.0806
10303TIP3    H252325   1.849   1.682   1.760  1.2111 -0.3433  0.8285
10304TIP3   OH252326   3.517   1.100   1.071  0.0793 -0.4422 -0.1633
10304TIP3    H152327   3.600   1.071   1.034  0.0848 -0.5248 -0.0858
10304TIP3    H252328   3.509   1.053   1.154 -0.3326 -0.8953 -0.4560
10305TIP3   OH252329   0.369   5.932   0.008 -0.8668 -0.1541  0.2706
10305TIP3    H152330   0.295   5.984   0.040  0.4134  2.6770 -1.0741
10305TIP3    H252331   0.446   5.980   0.036  0.3735 -0.7996 -1.8276
10306TIP3   OH252332   0.418   3.313  16.650 -0.8129  0.6109 -0.5221
10306TIP3    H152333   0.506   3.351  16.646 -0.8987  0.8475 -0.1951
10306TIP3    H252334   0.432   3.219  16.646 -0.5060  0.6266  0.0787
10307TIP3   OH252335   5.668   1.121  17.069 -0.3692  0.5303 -0.3276
10307TIP3    H152336   5.628   1.177  17.137 -1.9332 -0.0946 -0.6858
10307TIP3    H252337   5.666   1.176  16.990 -1.7294  0.0865 -0.6338
10308TIP3   OH252338   5.623   2.625   4.907  0.0120  0.5109 -0.4509
10308TIP3    H152339   5.691   2.633   4.974 -0.6568  0.6801  0.2159
10308TIP3    H252340   5.649   2.687   4.839  0.2400  0.9704  0.0472
10309TIP3   OH252341   6.318   1.097  11.107  0.4491 -0.1788 -0.0437
10309TIP3    H152342   6.385   1.120  11.172 -0.1655  1.2790  0.1144
10309TIP3    H252343   6.306   1.003  11.118  1.0680 -0.1334  1.2855
10310TIP3   OH252344   5.075   0.161  12.074  0.1563  0.0667 -0.6194
10310TIP3    H152345   5.170   0.155  12.084  0.1719 -2.0429 -1.4235
10310TIP3    H252346   5.040   0.104  12.143 -0.6072  1.7616  0.4417
10311TIP3   OH252347   3.210   2.214  15.346 -0.5681  0.5774 -0.3710
10311TIP3    H152348   3.206   2.233  15.440 -1.6831  1.2560 -0.5356
10311TIP3    H252349   3.137   2.154  15.331  2.0919 -3.0377 -0.1019
10312TIP3   OH252350   5.341   1.912   0.229 -0.4356  0.2479 -0.4151
10312TIP3    H152351   5.308   1.835   0.183  0.0446  0.5716 -1.3163
10312TIP3    H252352   5.369   1.972   0.160  0.2047  0.7926  0.2949
10313TIP3   OH252353   0.905   1.948  16.489 -0.0445 -0.4556 -0.1188
10313TIP3    H152354   0.967   1.877  16.509  0.6960  0.5444  1.3710
10313TIP3    H252355   0.907   2.003  16.567 -2.6862 -0.2612 -0.0953
10314TIP3   OH252356   3.487   3.113   2.071 -0.2551 -0.5590  0.2515
10314TIP3    H152357   3.573   3.081   2.099  0.3923  1.1783  0.3327
10314TIP3    H252358   3.498   3.207   2.061 -1.8932 -0.4396 -0.7427
10315TIP3   OH252359   1.415   3.613  17.155 -0.6070  0.1543 -0.1728
10315TIP3    H152360   1.349   3.595  17.088  1.2248  0.9069 -2.3267
10315TIP3    H252361   1.462   3.531  17.166  1.0264  0.7159 -2.1966
10316TIP3   OH252362   5.057   3.068  14.760 -0.0008  0.8147 -0.1175
10316TIP3    H152363   4.994   3.065  14.832 -0.6723  3.2848 -0.5199
10316TIP3    H252364   5.129   3.012  14.790 -0.9153  0.5661  1.8119
10317TIP3   OH252365   0.062   1.227  15.630  0.6159  0.1917  0.4175
10317TIP3    H152366   0.056   1.290  15.558  1.7940  0.5573  0.6182
10317TIP3    H252367   0.027   1.146  15.594 -1.1857  1.0005  0.2307
10318TIP3   OH252368   6.682   1.797  12.586 -0.2543 -0.5045 -0.4028
10318TIP3    H152369   6.595   1.835  12.602 -0.4053 -0.4586 -1.2697
10318TIP3    H252370   6.694   1.805  12.491  0.6797 -0.5543 -0.2924
10319TIP3   OH252371   5.065   0.635  12.541 -0.5175  0.4152 -0.8121
10319TIP3    H152372   5.077   0.586  12.460  1.4434 -0.4876 -0.0312
10319TIP3    H252373   5.003   0.583  12.592  1.5533 -1.4107  0.0136
10320TIP3   OH252374   2.876   1.742   1.823  0.1937 -0.6229 -0.0735
10320TIP3    H152375   2.851   1.665   1.873  1.2114 -1.0428 -0.1944
10320TIP3    H252376   2.793   1.775   1.786 -0.5003 -0.5861  1.4540
10321TIP3   OH252377   0.566   6.259  13.541 -0.3635 -0.4119 -0.2226
10321TIP3    H152378   0.649   6.212  13.548  0.0693 -0.0485 -2.3752
10321TIP3    H252379   0.552   6.269  13.447 -3.1700 -1.0072  0.0530
10322TIP3   OH252380   5.997   2.469  15.889 -0.0714  0.1691  0.8346
10322TIP3    H152381   5.905   2.484  15.868  0.4990  2.6078 -0.2919
10322TIP3    H252382   6.000   2.470  15.985 -1.1496  0.5592  0.8797
10323TIP3   OH252383   0.854   1.697  12.041 -0.2856  0.1535  0.4467
10323TIP3    H152384   0.840   1.791  12.053 -0.9932  0.2649 -1.0103
10323TIP3    H252385   0.767   1.662  12.023 -0.1071 -0.8862  1.5251
10324TIP3   OH252386   6.251   5.938   3.523 -0.2536 -0.0151 -0.6366
10324TIP3    H152387   6.165   5.920   3.563 -0.0161 -0.4886 -0.3294
10324TIP3    H252388   6.232   5.999   3.452 -0.8168  0.0699 -0.4191
10325TIP3   OH252389   2.667   1.813  12.309  0.6459 -0.2180 -0.2100
10325TIP3    H152390   2.720   1.755  12.255  0.0082 -0.9354 -0.0812
10325TIP3    H252391   2.724   1.888  12.326  2.1205 -1.5576  1.0720
10326TIP3   OH252392   1.334   3.261   4.713 -0.0471  0.5263  0.4605
10326TIP3    H152393   1.310   3.178   4.753  0.9058  0.3459  0.6771
10326TIP3    H252394   1.427   3.273   4.734 -0.2579  1.8323  0.7577
10327TIP3   OH252395   6.610   1.135  12.350 -0.1114 -0.1156  0.4368
10327TIP3    H152396   6.644   1.181  12.427  0.8295 -0.3729  0.1783
10327TIP3    H252397   6.584   1.049  12.383  0.5991 -0.3450  0.4078
10328TIP3   OH252398   0.801   5.650  13.079  0.2242  0.3089  0.5368
10328TIP3    H152399   0.727   5.707  13.099  0.6489  1.1688 -0.2137
10328TIP3    H252400   0.776   5.605  12.999  0.5876  0.7901  0.1385
10329TIP3   OH252401   5.878   1.634  10.668 -0.1736  0.1992  0.0456
10329TIP3    H152402   5.902   1.619  10.577  2.0427  2.2751  0.2228
10329TIP3    H252403   5.948   1.592  10.719 -0.9469 -0.2143  0.8041
10330TIP3   OH252404   2.066   5.962  14.003 -0.4020 -0.4827 -0.7698
10330TIP3    H152405   2.078   5.869  14.025 -0.8040 -0.6466 -1.2231
10330TIP3    H252406   2.106   5.972  13.917 -0.2651 -0.2137 -0.6728
10331TIP3   OH252407   6.179   0.683   3.538 -0.0989  0.4136 -0.1058
10331TIP3    H152408   6.244   0.656   3.474  0.2822  0.6219  0.1835
10331TIP3    H252409   6.162   0.775   3.517 -1.1218  0.0577 -0.8641
10332TIP3   OH252410   2.302   0.800   1.381 -0.3862 -0.1742  0.5438
10332TIP3    H152411   2.280   0.893   1.381  1.1507  0.2207  0.2306
10332TIP3    H252412   2.230   0.758   1.335 -0.6686  0.9838 -0.1111
10333TIP3   OH252413   2.678   2.230   3.680 -0.3471  0.5498  0.1741
10333TIP3    H152414   2.623   2.301   3.647 -0.1181  1.1150  0.9626
10333TIP3    H252415   2.625   2.186   3.746  0.7052  2.2835  2.3478
10334TIP3   OH252416   2.472   1.722   5.882 -0.2228 -0.9746 -0.3455
10334TIP3    H152417   2.427   1.707   5.966  0.7518  0.4223  0.4713
10334TIP3    H252418   2.565   1.725   5.905  0.5401 -4.7910 -2.1237
10335TIP3   OH252419   2.347   0.196  14.938 -0.4675 -0.5593 -0.2929
10335TIP3    H152420   2.425   0.141  14.943 -0.7950 -1.1164 -1.1521
10335TIP3    H252421   2.379   0.279  14.903 -0.2678 -0.8117 -0.7179
10336TIP3   OH252422   2.583   0.708  13.980 -0.1411  0.0008  0.0146
10336TIP3    H152423   2.601   0.621  13.946 -1.2370 -0.6890  1.0963
10336TIP3    H252424   2.587   0.766  13.903 -0.2571 -1.1314 -0.8667
10337TIP3   OH252425   3.104   4.892  13.544 -0.1306 -0.3646  0.2277
10337TIP3    H152426   3.071   4.817  13.494  0.6332  0.4329 -1.5898
10337TIP3    H252427   3.194   4.903  13.513 -0.0944  1.0330  0.7555
10338TIP3   OH252428   6.324   4.795  12.394 -0.6714  0.2927  0.1501
10338TIP3    H152429   6.316   4.810  12.299 -1.6566 -0.4767  0.1005
10338TIP3    H252430   6.238   4.817  12.429 -0.6288 -0.4251  0.7277
10339TIP3   OH252431   4.875   2.179   3.520  0.0415  0.1876 -0.0317
10339TIP3    H152432   4.933   2.218   3.586  0.4242  0.9782 -0.8107
10339TIP3    H252433   4.928   2.111   3.479 -0.7809 -1.5609  1.6500
10340TIP3   OH252434   3.800   5.234  12.114 -0.6568  0.1679  0.0554
10340TIP3    H152435   3.834   5.146  12.130  0.4020  0.8876  2.0610
10340TIP3    H252436   3.861   5.272  12.050 -1.1550 -0.5533 -0.8651
10341TIP3   OH252437   2.444   5.317   2.932  0.2929 -0.8161  0.0719
10341TIP3    H152438   2.416   5.389   2.989 -0.2572 -0.6000 -0.4582
10341TIP3    H252439   2.375   5.251   2.942 -0.9529  0.0834 -1.9299
10342TIP3   OH252440   1.111   0.292   4.223  0.5728 -0.1083  0.6698
10342TIP3    H152441   1.164   0.366   4.255  1.4805 -0.1977 -0.5423
10342TIP3    H252442   1.174   0.220   4.215  0.1726 -0.3535 -0.3530
10343TIP3   OH252443   1.407   0.421  11.487 -0.6453 -0.2309  0.2184
10343TIP3    H152444   1.449   0.368  11.555 -0.6452 -0.5317 -0.0140
10343TIP3    H252445   1.434   0.511  11.507 -1.1803 -0.2322  1.0039
10344TIP3   OH252446   2.820   6.269  16.335 -0.5338 -0.6242 -0.1257
10344TIP3    H152447   2.798   6.249  16.426  1.3102 -1.2343  0.2353
10344TIP3    H252448   2.793   6.192  16.286  1.0417 -1.5223  0.3611
10345TIP3   OH252449   1.388   1.548   4.431 -0.4614 -0.0740 -0.6443
10345TIP3    H152450   1.446   1.480   4.465  1.1633 -0.1074 -3.1811
10345TIP3    H252451   1.436   1.630   4.446 -0.8506  0.1575 -0.6484
10346TIP3   OH252452   5.528   6.368   2.062 -0.0248 -0.1775  0.0664
10346TIP3    H152453   5.613   6.352   2.104 -0.3252 -0.8428  0.4445
10346TIP3    H252454   5.470   6.393   2.134 -0.4857 -1.1022  0.0321
10347TIP3   OH252455   5.096   6.673  11.912 -0.1758 -0.5118  0.1739
10347TIP3    H152456   5.133   6.686  11.825  1.9535  2.6611  1.3750
10347TIP3    H252457   5.068   6.760  11.940  0.6461 -1.1007  3.2592
10348TIP3   OH252458   0.287   6.447   0.078 -0.2743 -0.0628 -0.1743
10348TIP3    H152459   0.353   6.424   0.143  0.0575  0.2326 -0.4063
10348TIP3    H252460   0.307   6.537   0.053  0.4780 -0.6243 -1.7326
10349TIP3   OH252461   5.573   1.699   1.282  0.3559  0.5991  0.0445
10349TIP3    H152462   5.645   1.640   1.305  0.9253  1.1175 -0.3797
10349TIP3    H252463   5.505   1.679   1.346  0.5078 -0.5631 -0.1254
10350TIP3   OH252464   6.306   3.354  12.344 -0.2240 -0.2131 -0.0414
10350TIP3    H152465   6.212   3.349  12.329 -0.4223  1.2083  0.5256
10350TIP3    H252466   6.337   3.421  12.282  0.5197 -1.0819 -0.6354
10351TIP3   OH252467   5.145   6.662  10.941 -0.6851  0.6985 -0.0792
10351TIP3    H152468   5.065   6.635  10.897  0.0280  1.3413 -1.8355
10351TIP3    H252469   5.194   6.581  10.954 -1.0406  0.4669 -0.1718
10352TIP3   OH252470   0.065   3.339   2.949 -0.3356 -0.0756  0.2523
10352TIP3    H152471   0.124   3.266   2.968  1.4151  0.9182 -1.1430
10352TIP3    H252472  -0.018   3.297   2.926  0.2901 -1.5779  0.6225
10353TIP3   OH252473   6.158   4.940  13.333 -0.4507  0.1081 -0.0325
10353TIP3    H152474   6.235   4.978  13.375 -1.6330  2.4021  0.2014
10353TIP3    H252475   6.100   4.918  13.405 -0.5112 -0.4836 -0.2579
10354TIP3   OH252476   5.852   0.199   3.406  0.2819  0.8736 -0.6017
10354TIP3    H152477   5.925   0.160   3.454 -0.9081 -1.5137 -0.5424
10354TIP3    H252478   5.816   0.264   3.465 -0.2977 -1.0323  1.2657
10355TIP3   OH252479   4.871   1.142  10.951  0.0172 -0.0301  0.0388
10355TIP3    H152480   4.877   1.175  10.861  0.9772  0.0078  0.1074
10355TIP3    H252481   4.809   1.200  10.994  1.1554  1.3033 -0.0304
10356TIP3   OH252482   2.104   6.147  15.753 -0.0330  0.2813  0.4300
10356TIP3    H152483   2.031   6.189  15.797  0.5523  1.6391  0.1633
10356TIP3    H252484   2.118   6.066  15.802 -0.7303  0.7448  1.4410
10357TIP3   OH252485   1.199   1.608  11.803 -0.3497 -0.0959 -0.1466
10357TIP3    H152486   1.183   1.601  11.709  0.8312 -0.9623 -0.3068
10357TIP3    H252487   1.281   1.657  11.810 -0.4152 -0.0626  0.4306
10358TIP3   OH252488   2.974   3.441  10.750 -0.3101  0.3070  0.0649
10358TIP3    H152489   2.955   3.406  10.837  1.2568 -1.5923 -0.2872
10358TIP3    H252490   2.991   3.364  10.696 -0.8708  1.4514 -1.8559
10359TIP3   OH252491   2.732   5.868  12.689  0.3918 -0.1530 -0.4038
10359TIP3    H152492   2.708   5.960  12.680  3.5856  0.9247  0.8794
10359TIP3    H252493   2.763   5.860  12.779 -2.8246 -3.3643  0.6571
10360TIP3   OH252494   0.546   6.128  14.858  0.4882  0.2361  0.0124
10360TIP3    H152495   0.478   6.065  14.884 -0.4615  0.8010 -1.0224
10360TIP3    H252496   0.497   6.204  14.827  1.6181  0.9202 -0.1389
10361TIP3   OH252497   0.444   0.637  15.062  0.4283  0.6466  0.1526
10361TIP3    H152498   0.460   0.570  15.129  0.3943  0.6631  0.1771
10361TIP3    H252499   0.530   0.655  15.025  0.6074  1.4091  0.9204
10362TIP3   OH252500   2.412   6.199  12.762  0.0605  0.1755 -0.5120
10362TIP3    H152501   2.475   6.160  12.702 -0.0562 -0.2215 -0.3779
10362TIP3    H252502   2.458   6.203  12.846 -0.1192 -0.2063 -0.3898
10363TIP3   OH252503   5.769   4.751  12.856 -0.2877  0.0365 -0.0140
10363TIP3    H152504   5.857   4.760  12.818 -0.0409  1.5402  0.8407
10363TIP3    H252505   5.736   4.841  12.862 -1.7167 -0.4718  0.0967
10364TIP3   OH252506   1.426   4.187  11.833  0.1869  0.9021  0.0412
10364TIP3    H152507   1.338   4.178  11.798 -0.3343  2.5167  0.8494
10364TIP3    H252508   1.481   4.133  11.776 -1.6174 -1.9808  0.8318
10365TIP3   OH252509   2.705   1.384   5.825 -0.4485  0.4428 -0.1143
10365TIP3    H152510   2.687   1.471   5.790  1.0121  0.6131 -0.4739
10365TIP3    H252511   2.655   1.381   5.907 -1.4982  1.1445 -0.7064
10366TIP3   OH252512   5.198   1.128   5.137  0.6377  0.6627 -0.3175
10366TIP3    H152513   5.200   1.200   5.074 -1.4136  0.1979 -1.0006
10366TIP3    H252514   5.184   1.171   5.222 -3.6763  1.1019 -1.0439
10367TIP3   OH252515   2.442   0.109  13.727 -0.4867 -0.2424  0.3376
10367TIP3    H152516   2.522   0.082  13.682 -1.0447 -0.1205 -0.7542
10367TIP3    H252517   2.467   0.117  13.819  0.1398 -2.7528  0.4453
10368TIP3   OH252518   4.277   3.395   1.859  0.2848 -0.4700  0.0234
10368TIP3    H152519   4.324   3.359   1.934  0.7952 -1.3431 -0.6894
10368TIP3    H252520   4.345   3.438   1.807 -0.0136 -0.1314 -0.0936
10369TIP3   OH252521   5.559   0.717   1.674 -0.1077 -0.4370 -0.0638
10369TIP3    H152522   5.560   0.740   1.767  0.7965  0.1210 -0.2000
10369TIP3    H252523   5.542   0.800   1.629  0.5308 -0.5004 -0.4392
10370TIP3   OH252524   5.132   2.637  15.149  0.5015 -0.1641  0.1358
10370TIP3    H152525   5.196   2.647  15.078  0.5882 -0.8895  0.1080
10370TIP3    H252526   5.175   2.677  15.225  0.2733  0.9145 -0.2896
10371TIP3   OH252527   1.394   0.567   4.674  0.7856  0.0972  0.5504
10371TIP3    H152528   1.468   0.618   4.642  0.8894 -0.1374  0.4078
10371TIP3    H252529   1.334   0.564   4.599  2.2526 -2.8415 -0.7100
10372TIP3   OH252530   5.904   2.800  14.621 -0.1605 -0.4272 -0.4359
10372TIP3    H152531   5.826   2.763  14.579 -2.1540  1.2291  1.5268
10372TIP3    H252532   5.945   2.725  14.666 -0.6334 -1.3171 -1.4530
10373TIP3   OH252533   1.473   1.673  16.850 -0.0331  0.1701 -0.1478
10373TIP3    H152534   1.528   1.620  16.792 -1.6030 -1.5463 -0.1456
10373TIP3    H252535   1.383   1.651  16.825 -0.7466  1.2861  1.2825
10374TIP3   OH252536   3.106   2.658  15.439 -1.0523 -0.1000 -0.3204
10374TIP3    H152537   3.052   2.587  15.403 -0.2367 -0.6716 -0.4457
10374TIP3    H252538   3.044   2.712  15.488 -1.6282 -1.1116  0.1020
10375TIP3   OH252539   4.823   2.901   1.948  0.4894 -0.6904 -1.0452
10375TIP3    H152540   4.916   2.889   1.967  0.4175  0.7637  0.4860
10375TIP3    H252541   4.780   2.827   1.991  0.8058 -0.2349  0.1209
10376TIP3   OH252542   4.083   5.945  14.058 -0.7493 -0.1979 -0.6311
10376TIP3    H152543   3.998   5.989  14.051  0.2134  1.9172  0.1664
10376TIP3    H252544   4.107   5.926  13.967 -1.4037  0.5301 -0.9714
10377TIP3   OH252545   4.998   1.526  11.808  0.2146  0.1706 -0.3811
10377TIP3    H152546   5.036   1.585  11.743  0.8599 -0.2780 -0.4205
10377TIP3    H252547   5.050   1.541  11.887  1.0292 -1.0375 -0.6646
10378TIP3   OH252548   3.650   0.450  11.830  0.2962  0.5291  0.8957
10378TIP3    H152549   3.592   0.459  11.754  0.3328 -0.8414  0.6732
10378TIP3    H252550   3.737   0.472  11.797  0.7700 -2.5088 -0.2196
10379TIP3   OH252551   1.933   3.063   5.518 -0.0728 -0.4142 -0.1071
10379TIP3    H152552   1.901   2.972   5.519 -0.5247 -0.2716  1.3116
10379TIP3    H252553   1.861   3.113   5.556  0.0059  0.6138 -1.2756
10380TIP3   OH252554   0.658   5.550  16.231  0.1912 -0.0239  0.5655
10380TIP3    H152555   0.610   5.613  16.177 -1.0141  0.1198  1.7532
10380TIP3    H252556   0.749   5.559  16.203 -0.4074 -0.0865 -1.5368
10381TIP3   OH252557   1.095   1.768  15.090 -0.0943  0.3557 -0.4468
10381TIP3    H152558   1.169   1.713  15.063 -0.4596  0.2645 -1.2866
10381TIP3    H252559   1.136   1.846  15.128  0.4308 -0.2444  0.2595
10382TIP3   OH252560   5.391   3.303   4.192 -0.5277 -0.1508  0.0608
10382TIP3    H152561   5.481   3.272   4.193 -1.1287 -2.0025  0.5738
10382TIP3    H252562   5.392   3.381   4.247  0.5561 -0.8365  1.0678
10383TIP3   OH252563   5.796   1.530  12.149 -0.2341  0.0954  0.0183
10383TIP3    H152564   5.762   1.495  12.231  0.8729 -0.3425  0.3174
10383TIP3    H252565   5.734   1.501  12.082 -0.9718  0.1840  0.6498
10384TIP3   OH252566   2.423   2.179   1.910 -0.1053 -0.0259 -0.3913
10384TIP3    H152567   2.461   2.262   1.882  0.0530 -0.3526 -1.1712
10384TIP3    H252568   2.477   2.151   1.984 -0.8946  1.1441  0.6825
10385TIP3   OH252569   1.387   2.439   3.665 -0.0035  0.1196 -0.2824
10385TIP3    H152570   1.435   2.425   3.583 -0.7327  0.7391 -0.8262
10385TIP3    H252571   1.335   2.359   3.676  0.7027 -0.3162  0.0204
10386TIP3   OH252572   3.457   6.008  12.994  0.2867 -0.0366  0.2108
10386TIP3    H152573   3.366   6.033  13.004  0.1039 -0.3460 -0.6705
10386TIP3    H252574   3.476   5.956  13.073 -0.0776  0.6288  0.7500
10387TIP3   OH252575   3.720   2.616   0.964 -0.5069 -0.1853  0.0013
10387TIP3    H152576   3.784   2.550   0.937 -1.4693 -0.4594 -1.7781
10387TIP3    H252577   3.731   2.687   0.900 -1.3483  0.1637  0.2308
10388TIP3   OH252578   3.072   3.486   1.236  0.1103  0.0278  0.2560
10388TIP3    H152579   3.159   3.475   1.199  1.5278 -1.6555  3.6363
10388TIP3    H252580   3.013   3.485   1.161  2.8432 -0.4759 -2.0388
10389TIP3   OH252581   4.283   6.158  12.787 -0.0704 -0.1227  0.3954
10389TIP3    H152582   4.247   6.215  12.720 -1.1467 -1.1669  0.0336
10389TIP3    H252583   4.369   6.131  12.754  0.3940  1.1601  0.5202
10390TIP3   OH252584   1.916   6.451  16.653 -0.1312 -0.4750 -0.5011
10390TIP3    H152585   1.905   6.527  16.710  0.2724 -0.7176 -0.0984
10390TIP3    H252586   1.891   6.377  16.708  1.2709 -0.8138 -0.2981
10391TIP3   OH252587   2.189   5.569   5.028  0.0121  0.4106 -0.3701
10391TIP3    H152588   2.144   5.552   5.110  0.5456 -0.6369 -0.2766
10391TIP3    H252589   2.177   5.663   5.013 -2.3863  0.1522 -0.4887
10392TIP3   OH252590   4.815   0.595   5.380  0.0313  0.4959 -0.2820
10392TIP3    H152591   4.751   0.619   5.313 -0.3547  1.7877  0.5102
10392TIP3    H252592   4.899   0.596   5.334 -0.1734  1.7948 -0.6919
10393TIP3   OH252593   6.576   0.634   4.572 -0.3311 -0.2824  0.0774
10393TIP3    H152594   6.489   0.673   4.582  0.4249  0.9979  2.2679
10393TIP3    H252595   6.598   0.648   4.480 -1.5353  1.4522  0.0055
10394TIP3   OH252596   1.189   4.594   6.279 -0.0877 -0.8160  0.1883
10394TIP3    H152597   1.138   4.513   6.272 -0.1377 -0.8685  1.0859
10394TIP3    H252598   1.232   4.588   6.364 -2.4135  1.4124  1.6500
10395TIP3   OH252599   4.774   1.834   4.166  0.3204 -0.4682  0.4949
10395TIP3    H152600   4.758   1.752   4.118  1.3984  0.5905 -1.8294
10395TIP3    H252601   4.861   1.862   4.137  0.9036  0.4495  2.8835
10396TIP3   OH252602   0.493   3.317  13.147 -0.0790  0.0038  0.2530
10396TIP3    H152603   0.584   3.340  13.127  0.3779  0.8587  2.9030
10396TIP3    H252604   0.479   3.234  13.100  2.0584 -0.1571 -0.2358
10397TIP3   OH252605   2.624   0.020   3.955  0.0352  0.2880  0.2417
10397TIP3    H152606   2.704  -0.020   3.988 -0.4224 -0.4095  0.5441
10397TIP3    H252607   2.561   0.010   4.027 -0.6284 -0.1558 -0.3858
10398TIP3   OH252608   0.843   4.681  15.099 -0.5649  0.4354  0.0513
10398TIP3    H152609   0.876   4.759  15.144 -0.5492 -0.5358  1.7878
10398TIP3    H252610   0.758   4.708  15.063 -0.9050  1.0490  1.2753
10399TIP3   OH252611   4.592   0.762  17.085  0.1210  0.3023 -0.1163
10399TIP3    H152612   4.500   0.736  17.073  0.3329 -1.0320  0.8816
10399TIP3    H252613   4.642   0.695  17.040  0.6363  0.0262  0.8272
10400TIP3   OH252614   2.948   3.057  16.084 -0.2819 -0.0191 -0.1141
10400TIP3    H152615   2.990   3.005  16.015  0.6648 -0.3700  0.7018
10400TIP3    H252616   2.907   3.129  16.038  1.4750  0.5076 -0.9505
10401TIP3   OH252617   1.588   2.222   0.992 -0.4367  0.5833 -0.1978
10401TIP3    H152618   1.510   2.203   0.938 -0.6926 -1.5352  0.8077
10401TIP3    H252619   1.554   2.231   1.081  0.5104 -1.6508  0.4725
10402TIP3   OH252620   3.204   4.141  15.937 -0.6823 -0.6643 -0.2557
10402TIP3    H152621   3.260   4.157  15.860 -0.9193  1.4526 -0.0486
10402TIP3    H252622   3.123   4.188  15.917 -1.4801 -1.7021  0.4896
10403TIP3   OH252623   0.365   6.518  13.431  0.2092  0.5529  0.6342
10403TIP3    H152624   0.369   6.578  13.357 -0.3237  0.9182  0.9011
10403TIP3    H252625   0.456   6.491  13.445  0.0986 -1.3649 -1.6491
10404TIP3   OH252626   1.652   6.413  10.979  0.0052 -0.6431  0.5744
10404TIP3    H152627   1.695   6.495  11.003  0.3848 -0.4750 -0.6251
10404TIP3    H252628   1.586   6.400  11.046 -2.0788  2.1795 -0.7474
10405TIP3   OH252629   1.001   1.299   5.369 -0.5915  0.1343 -0.5273
10405TIP3    H152630   0.965   1.219   5.408 -1.7818 -0.0909 -1.9836
10405TIP3    H252631   1.072   1.268   5.313 -0.2880  0.2249 -0.1931
10406TIP3   OH252632   5.066   2.655   4.873  0.5080  0.2414 -0.6148
10406TIP3    H152633   5.155   2.624   4.855  0.1486 -1.0852 -0.2323
10406TIP3    H252634   5.036   2.692   4.791  0.7849 -0.9108 -1.2541
10407TIP3   OH252635   4.345   6.226  17.172  0.8282 -0.5888  0.6131
10407TIP3    H152636   4.426   6.258  17.213  0.0834  0.0549  1.6588
10407TIP3    H252637   4.310   6.163  17.235  0.1954 -0.3730  0.4859
10408TIP3   OH252638   3.589   6.631  11.274  0.2105 -0.5742 -0.1959
10408TIP3    H152639   3.638   6.599  11.199  0.3553  0.2807 -0.4800
10408TIP3    H252640   3.512   6.575  11.278 -0.5635  0.2780 -1.9044
10409TIP3   OH252641   2.378   0.131   4.754  0.3042 -0.2782  0.2352
10409TIP3    H152642   2.349   0.212   4.712  0.7169 -0.3142 -0.1221
10409TIP3    H252643   2.400   0.073   4.681 -3.0748 -1.9195  0.3308
10410TIP3   OH252644   4.071   1.412  14.749  0.0184 -0.0053  0.4335
10410TIP3    H152645   4.159   1.378  14.762  0.0464  0.4569  1.5484
10410TIP3    H252646   4.070   1.496  14.796 -0.5187  0.7884 -0.9423
10411TIP3   OH252647   0.844   0.909   3.410 -0.2531  0.1295  0.1115
10411TIP3    H152648   0.804   0.865   3.334  0.3304  0.5779 -0.4678
10411TIP3    H252649   0.914   0.963   3.372  0.0225  0.3877  0.9709
10412TIP3   OH252650   6.051   6.152   3.552 -0.1180  0.6160 -0.6185
10412TIP3    H152651   5.973   6.097   3.560  2.8649 -4.0101  0.4242
10412TIP3    H252652   6.076   6.172   3.642  1.8656 -1.3981 -0.6244
10413TIP3   OH252653   6.740   1.764  15.063  0.1708 -0.2417  0.6229
10413TIP3    H152654   6.682   1.689  15.047 -1.2771  0.8315  0.6214
10413TIP3    H252655   6.817   1.726  15.104  1.8762 -2.4972 -3.9464
10414TIP3   OH252656   2.329   2.149   6.093  0.0951 -0.3884 -0.3064
10414TIP3    H152657   2.368   2.187   6.171  1.1015 -0.5246 -0.7238
10414TIP3    H252658   2.340   2.055   6.104 -0.7175 -0.4715 -0.1338
10415TIP3   OH252659   4.747   0.852  16.023  0.0649  0.1530 -0.0075
10415TIP3    H152660   4.842   0.842  16.018  0.1216  1.1613 -1.5963
10415TIP3    H252661   4.734   0.940  16.059 -0.2604  0.2480 -0.3540
10416TIP3   OH252662   6.470   5.953   4.723  0.9447 -0.0696  0.2370
10416TIP3    H152663   6.416   6.017   4.770  1.3378  0.8844 -0.5670
10416TIP3    H252664   6.530   5.918   4.789  0.9144  0.6003  0.6251
10417TIP3   OH252665   0.170   1.763   1.226  0.3584  0.0175 -0.0533
10417TIP3    H152666   0.129   1.784   1.142 -1.2026 -2.1152  0.0850
10417TIP3    H252667   0.099   1.729   1.280  1.8741 -1.6492  1.0340
10418TIP3   OH252668   1.762   0.581   4.226  0.2460 -0.1373  0.0288
10418TIP3    H152669   1.762   0.504   4.169  0.1294 -0.3049  0.2527
10418TIP3    H252670   1.854   0.595   4.248  0.1279 -1.2253  1.3344
10419TIP3   OH252671   0.225   1.426   4.892 -1.0991 -0.7546  0.1718
10419TIP3    H152672   0.288   1.494   4.866 -0.5224 -1.4982 -0.4387
10419TIP3    H252673   0.200   1.384   4.810 -0.7171 -1.9012  0.6180
10420TIP3   OH252674   5.274   1.255   4.358 -0.0361 -0.5020  0.4223
10420TIP3    H152675   5.183   1.282   4.351 -0.0356  0.1403  2.2071
10420TIP3    H252676   5.270   1.163   4.385 -0.0824 -1.2616 -1.9781
10421TIP3   OH252677   1.859   6.511   3.737 -0.6307  0.1749  0.3592
10421TIP3    H152678   1.796   6.583   3.726  1.1355  1.8079  0.2743
10421TIP3    H252679   1.903   6.530   3.820  1.2942  0.4280 -0.6395
10422TIP3   OH252680   5.981   0.439  12.621 -0.3022 -0.5063 -0.6475
10422TIP3    H152681   6.035   0.390  12.683 -0.4683 -1.4682 -1.2296
10422TIP3    H252682   6.043   0.485  12.565 -0.0691 -1.3536 -1.1114
10423TIP3   OH252683   3.579   4.502  16.481  0.3189  0.0587  0.7502
10423TIP3    H152684   3.546   4.559  16.550 -1.4146 -0.9111  0.7756
10423TIP3    H252685   3.597   4.562  16.408  0.3958  0.8614  1.4046
10424TIP3   OH252686   3.441   3.480   0.856 -0.0609  0.0894  0.2802
10424TIP3    H152687   3.395   3.399   0.832 -2.6094  1.0219  1.7598
10424TIP3    H252688   3.422   3.540   0.784  1.5589 -0.4544 -0.6550
10425TIP3   OH252689   5.134   6.078  11.797  0.1726 -0.0657 -0.4400
10425TIP3    H152690   5.190   6.024  11.742  1.2085 -0.1222  0.6319
10425TIP3    H252691   5.107   6.151  11.741  0.0814 -0.8266 -1.4087
10426TIP3   OH252692   6.413   2.413  16.181  0.3676 -0.4687  0.3118
10426TIP3    H152693   6.394   2.337  16.124 -1.7707  0.1806  0.0432
10426TIP3    H252694   6.488   2.456  16.139  1.3011 -2.1267  0.1861
10427TIP3   OH252695   1.337   0.063  12.279  0.0684 -0.0611 -0.2626
10427TIP3    H152696   1.357   0.150  12.245  0.1933  1.0409  2.3882
10427TIP3    H252697   1.417   0.036  12.324 -0.5152 -0.8078  0.3517
10428TIP3   OH252698   0.574   0.962  14.810  0.6682  0.3987 -0.0934
10428TIP3    H152699   0.552   1.028  14.745  1.2483 -0.1587 -0.8688
10428TIP3    H252700   0.634   0.902  14.765 -0.9045 -1.4536  0.1390
10429TIP3   OH252701   5.406   0.948  12.362  0.1650 -0.1773  0.2731
10429TIP3    H152702   5.381   1.007  12.291 -1.2385  0.5166  1.3141
10429TIP3    H252703   5.345   0.875  12.354  0.3664 -0.3643  0.4466
10430TIP3   OH252704   6.032   1.989   1.367  0.5782  0.0166 -0.2364
10430TIP3    H152705   6.042   1.983   1.462 -2.5049  0.5115  0.2271
10430TIP3    H252706   5.997   1.904   1.341 -3.3518  1.3470 -0.0186
10431TIP3   OH252707   5.080   3.880   3.977  0.2553  0.5901  0.0938
10431TIP3    H152708   5.077   3.957   3.921  0.4609  1.7573  1.6413
10431TIP3    H252709   5.006   3.890   4.037  0.0171 -0.6473  0.0308
10432TIP3   OH252710   4.118   5.587   2.178  0.7920  0.0299  0.4415
10432TIP3    H152711   4.052   5.633   2.231  0.8314 -0.5853  1.0421
10432TIP3    H252712   4.086   5.595   2.088  0.6649  0.9932  0.5624
10433TIP3   OH252713   1.456   2.513   6.536  0.7128 -0.0656  0.4893
10433TIP3    H152714   1.410   2.577   6.482  0.6475  1.3876  2.1674
10433TIP3    H252715   1.523   2.476   6.478  0.2977  1.0090 -0.7201
10434TIP3   OH252716   5.408   0.651  13.661 -0.2715 -0.7126 -0.7496
10434TIP3    H152717   5.480   0.675  13.719 -0.9290  1.0416 -0.5884
10434TIP3    H252718   5.398   0.727  13.603 -0.9255 -1.6040 -1.8524
10435TIP3   OH252719   1.876   3.837  16.806 -0.2917 -0.3972  0.0289
10435TIP3    H152720   1.797   3.786  16.821 -2.0662  2.5421  1.6379
10435TIP3    H252721   1.857   3.887  16.726  1.2140 -1.7630 -1.2496
10436TIP3   OH252722   0.484   6.398  16.282 -0.0366  0.2098 -0.4612
10436TIP3    H152723   0.410   6.441  16.325 -1.3203 -1.0278 -1.3476
10436TIP3    H252724   0.452   6.376  16.195  1.5112 -0.0295 -1.0022
10437TIP3   OH252725   5.860   5.802   5.638 -0.1745  0.5469  0.2799
10437TIP3    H152726   5.952   5.793   5.615  0.0051  1.2979  0.6851
10437TIP3    H252727   5.847   5.740   5.710 -0.0358  0.3085  0.1016
10438TIP3   OH252728   6.169   1.134  15.415 -0.5561  0.7045  0.1858
10438TIP3    H152729   6.191   1.214  15.368 -0.4188  1.4424  1.4860
10438TIP3    H252730   6.124   1.163  15.494 -0.6886 -0.5086  0.5768
10439TIP3   OH252731   1.914   0.167  15.476  0.6747 -0.0329  0.1370
10439TIP3    H152732   1.856   0.101  15.513 -0.1955  0.4105 -0.4141
10439TIP3    H252733   1.886   0.249  15.515  1.1248  0.1529  0.0813
10440TIP3   OH252734   2.174   1.294   4.790 -0.7224 -0.0512  0.4830
10440TIP3    H152735   2.147   1.346   4.715  2.1340  0.3464 -0.3850
10440TIP3    H252736   2.197   1.209   4.753 -1.0229 -0.4503  1.1971
10441TIP3   OH252737   4.407   3.168   4.218 -0.4320 -0.2208 -0.2937
10441TIP3    H152738   4.324   3.164   4.170  0.6698  0.0951 -2.3681
10441TIP3    H252739   4.471   3.195   4.152  1.3910 -0.7729  1.1659
10442TIP3   OH252740   6.455   2.751  13.797  0.0217 -0.0404  0.5600
10442TIP3    H152741   6.447   2.839  13.762  0.2594  0.3884  1.5502
10442TIP3    H252742   6.546   2.726  13.779 -0.0690 -0.1172  0.2072
10443TIP3   OH252743   3.957   1.003  17.158  0.1909  0.2211 -0.4019
10443TIP3    H152744   3.983   0.958  17.239 -0.5231  1.3502  0.4853
10443TIP3    H252745   4.029   1.064  17.140 -0.1384  0.7398  0.0036
10444TIP3   OH252746   1.689   1.673  15.834  0.3901  0.3415  0.4848
10444TIP3    H152747   1.773   1.708  15.802  0.0590  0.0490 -0.7448
10444TIP3    H252748   1.677   1.591  15.786  0.1639 -0.4530  1.8504
10445TIP3   OH252749   3.400   0.423  12.701 -0.3057  0.2315  0.4104
10445TIP3    H152750   3.471   0.459  12.648 -0.3693  1.4502  1.1216
10445TIP3    H252751   3.444   0.381  12.775 -0.2664 -0.4207  0.0207
10446TIP3   OH252752   4.829   5.815   0.375 -0.3026  0.0059 -0.5249
10446TIP3    H152753   4.814   5.859   0.459  1.1691 -2.4637  1.1816
10446TIP3    H252754   4.904   5.861   0.337 -1.0638  1.2311 -0.5935
10447TIP3   OH252755   3.162   6.615  13.571  0.1591 -0.3042 -0.0106
10447TIP3    H152756   3.214   6.556  13.626  0.4573 -0.1418 -0.1142
10447TIP3    H252757   3.189   6.703  13.598 -1.4935 -0.1635  1.3205
10448TIP3   OH252758   3.382   5.240  14.918  0.1339 -0.4476 -0.1255
10448TIP3    H152759   3.408   5.272  15.004  0.9055 -0.3583 -0.3810
10448TIP3    H252760   3.408   5.310  14.858 -0.4534 -0.4831 -0.4274
10449TIP3   OH252761   5.330   1.704  16.543  0.1027 -0.0294  0.0936
10449TIP3    H152762   5.347   1.784  16.593  0.0178 -0.1995  0.3911
10449TIP3    H252763   5.287   1.645  16.605  1.7202 -0.9628  0.3729
10450TIP3   OH252764   1.817   3.542   5.539  0.2148 -0.1517 -0.2617
10450TIP3    H152765   1.735   3.513   5.578 -0.4166  0.2206 -1.2571
10450TIP3    H252766   1.883   3.528   5.607 -0.5233 -1.2696  0.2487
10451TIP3   OH252767   3.074   1.611   0.818  0.5001 -0.1519  0.2266
10451TIP3    H152768   3.000   1.672   0.816  2.0057  1.7400 -1.3924
10451TIP3    H252769   3.104   1.614   0.909  1.3650  2.6799 -0.0518
10452TIP3   OH252770   1.750   1.578   4.613  0.7061  0.3564 -0.4435
10452TIP3    H152771   1.740   1.631   4.692  0.5889  1.8462 -1.4142
10452TIP3    H252772   1.787   1.638   4.549  0.9303 -0.8608 -1.4883
10453TIP3   OH252773   5.348   3.835   1.268  0.0170  0.7052  0.1323
10453TIP3    H152774   5.439   3.840   1.241  0.5174  1.1804  1.7467
10453TIP3    H252775   5.315   3.924   1.259 -0.5468  0.3804 -1.2054
10454TIP3   OH252776   1.373   1.690  14.332 -0.1515  0.1962  0.7607
10454TIP3    H152777   1.315   1.636  14.385  2.3421 -1.4367  1.9842
10454TIP3    H252778   1.445   1.713  14.390  1.9796 -0.4351 -1.4713
10455TIP3   OH252779   0.700   3.796  16.618  0.7353  0.1693 -0.1224
10455TIP3    H152780   0.630   3.738  16.586  0.5158  0.6380 -0.5105
10455TIP3    H252781   0.707   3.864  16.551  1.5781  0.1233 -0.0952
10456TIP3   OH252782   4.264   3.233   2.782  0.1303  0.0588  0.5774
10456TIP3    H152783   4.348   3.190   2.795  0.6342  0.9467  0.3364
10456TIP3    H252784   4.210   3.166   2.740  1.0258 -0.2074 -0.1885
10457TIP3   OH252785   5.368   1.482  12.749  0.3871 -1.2484 -0.0698
10457TIP3    H152786   5.433   1.534  12.796 -1.3135  2.1134 -1.0809
10457TIP3    H252787   5.292   1.481  12.807 -0.0098 -1.5576 -0.5875
10458TIP3   OH252788   4.797   5.130  14.850  0.7964  0.0291  0.5155
10458TIP3    H152789   4.865   5.184  14.891  2.3355 -0.9969 -0.5776
10458TIP3    H252790   4.826   5.121  14.759 -1.6585  0.8778 -0.4431
10459TIP3   OH252791   0.449   5.316   4.590 -0.2667 -0.3696 -0.3338
10459TIP3    H152792   0.364   5.299   4.550 -0.9580 -0.0307  0.9179
10459TIP3    H252793   0.513   5.294   4.523 -1.2582 -2.8273 -0.5763
10460TIP3   OH252794   5.075   1.042  13.532  0.1584  0.5476 -0.4590
10460TIP3    H152795   5.137   1.111  13.508 -0.6779  0.8453 -1.9075
10460TIP3    H252796   4.989   1.080  13.516 -0.3234 -0.7681 -1.1468
10461TIP3   OH252797   3.119   2.750  12.889  0.7831 -0.0242 -0.0698
10461TIP3    H152798   3.162   2.812  12.949 -0.5764  0.0416  0.8756
10461TIP3    H252799   3.029   2.745  12.921  0.4596 -1.2621 -1.1320
10462TIP3   OH252800   5.655   1.155   5.453 -0.2684 -0.4808  0.4379
10462TIP3    H152801   5.723   1.088   5.445 -0.3093 -0.8417  2.6049
10462TIP3    H252802   5.702   1.235   5.475 -0.2969  0.1011 -1.3875
10463TIP3   OH252803   3.006   3.659   0.421 -0.3091 -0.9284  0.3779
10463TIP3    H152804   2.941   3.688   0.485 -1.2058 -0.1573 -0.8390
10463TIP3    H252805   2.953   3.627   0.347  0.6977 -1.4668 -0.1205
10464TIP3   OH252806   2.052   1.015  14.700 -0.5449 -0.3954 -0.0824
10464TIP3    H152807   2.093   1.014  14.613 -1.7420 -0.0998 -0.6800
10464TIP3    H252808   2.007   0.931  14.706 -0.5892 -0.3535  0.1844
10465TIP3   OH252809   6.068   4.231   0.480 -0.1264 -0.6223 -0.8634
10465TIP3    H152810   6.016   4.300   0.521  0.6693 -0.5521  0.0594
10465TIP3    H252811   6.018   4.151   0.497  0.0814 -0.5609  0.0551
10466TIP3   OH252812   0.060   6.279  14.943 -0.2776 -0.4686  0.0507
10466TIP3    H152813   0.111   6.236  14.875 -0.6732 -0.8064 -0.0358
10466TIP3    H252814   0.111   6.265  15.023 -0.0589 -0.4968 -0.0931
10467TIP3   OH252815   4.024   3.169  16.800 -0.4598 -0.4750 -0.1567
10467TIP3    H152816   4.016   3.100  16.734 -0.6474 -0.4484 -0.1595
10467TIP3    H252817   3.963   3.237  16.773  2.4282  1.5083 -2.3682
10468TIP3   OH252818   2.547   1.520  13.777  0.1293  0.5763 -0.4862
10468TIP3    H152819   2.530   1.523  13.683  1.3799  1.2661 -0.7075
10468TIP3    H252820   2.599   1.599  13.795  1.7423 -0.6287  0.3924
10469TIP3   OH252821   2.970   4.733   2.967 -0.3918 -0.2834  0.4491
10469TIP3    H152822   3.025   4.811   2.970 -2.0024  0.8760  1.9537
10469TIP3    H252823   2.952   4.721   2.873  1.5011 -0.0972  0.0104
10470TIP3   OH252824   1.993   6.084  15.490 -0.4416 -0.2302  0.6413
10470TIP3    H152825   2.021   6.140  15.417 -1.0052 -0.6399  0.1068
10470TIP3    H252826   2.042   6.118  15.565 -1.8182  1.9433  0.6604
10471TIP3   OH252827   0.803   4.978  16.324 -0.1093 -0.3071 -0.3426
10471TIP3    H152828   0.863   5.050  16.311 -0.7390  0.0030 -1.7180
10471TIP3    H252829   0.793   4.971  16.419  0.7860  0.7041 -0.1666
10472TIP3   OH252830   4.593   2.529  12.042 -0.3396  0.1686  0.7572
10472TIP3    H152831   4.565   2.612  12.080 -1.1573  0.8852 -1.3053
10472TIP3    H252832   4.511   2.482  12.024  0.0915 -0.8821  1.4053
10473TIP3   OH252833   6.706   4.039   5.799 -0.4264  0.5258 -0.0034
10473TIP3    H152834   6.727   3.956   5.758  0.3456  1.1901 -1.0026
10473TIP3    H252835   6.621   4.024   5.841  0.7353 -1.4415  1.8656
10474TIP3   OH252836   4.001   6.457  17.166 -0.7563 -0.2191  0.1001
10474TIP3    H152837   4.036   6.454  17.255 -0.1628 -0.7032 -0.1432
10474TIP3    H252838   3.906   6.453  17.177 -0.8224  1.8911  0.8182
10475TIP3   OH252839   4.809   4.040  11.254 -0.3675  0.1362  0.1486
10475TIP3    H152840   4.729   3.997  11.284 -0.1984  0.1553  0.6315
10475TIP3    H252841   4.800   4.043  11.159 -0.6742 -0.3854  0.1578
10476TIP3   OH252842   4.514   4.876   0.026  0.0132  0.2500  0.8037
10476TIP3    H152843   4.569   4.857   0.102 -0.0209  1.2061  1.0920
10476TIP3    H252844   4.524   4.971   0.013  0.3575  0.0342 -0.6559
10477TIP3   OH252845   2.992   2.202  12.467  0.6187 -0.3216  0.3617
10477TIP3    H152846   3.043   2.191  12.547  0.1743  0.1575  0.7221
10477TIP3    H252847   2.939   2.280  12.484 -0.6246 -1.1085  0.2151
10478TIP3   OH252848   2.105   4.627   2.700 -0.0557  0.0628  0.2646
10478TIP3    H152849   2.059   4.605   2.781 -2.1284  0.3725 -0.7498
10478TIP3    H252850   2.039   4.616   2.631  1.2482  1.0918 -1.2333
10479TIP3   OH252851   2.753   3.731   0.889 -0.5123 -0.6619 -0.2609
10479TIP3    H152852   2.763   3.641   0.919  0.5120 -0.1420  1.0808
10479TIP3    H252853   2.839   3.770   0.901 -0.8956  0.4658 -0.9722
10480TIP3   OH252854   1.078   0.449  12.789 -0.4472 -0.0049  0.4694
10480TIP3    H152855   1.090   0.543  12.775  0.4512 -0.3641 -1.4682
10480TIP3    H252856   1.167   0.413  12.783 -0.3905 -0.7343  3.8308
10481TIP3   OH252857   2.725   3.432   0.252 -0.2756  0.5645  0.1880
10481TIP3    H152858   2.657   3.374   0.217  0.2345  0.2135 -0.2233
10481TIP3    H252859   2.676   3.504   0.291 -0.8663  0.9208 -1.1555
10482TIP3   OH252860   0.269   2.549   1.054 -0.1061 -0.1285 -0.0023
10482TIP3    H152861   0.239   2.638   1.076  0.0038 -0.3969  1.3214
10482TIP3    H252862   0.189   2.497   1.052 -0.0019 -0.4025  1.3649
10483TIP3   OH252863   3.638   2.203  11.821  0.4462 -0.1450 -0.0675
10483TIP3    H152864   3.662   2.212  11.729 -0.9255 -0.7875 -0.5256
10483TIP3    H252865   3.551   2.163  11.819  0.2579  0.1115  1.5063
10484TIP3   OH252866   1.381   2.444  12.862 -0.0333  0.1099  0.4822
10484TIP3    H152867   1.474   2.455  12.846  0.0215  0.0375  0.7526
10484TIP3    H252868   1.375   2.380  12.932 -0.3327 -1.0661 -0.5797
10485TIP3   OH252869   5.922   5.376   0.026 -0.1682  0.7446 -0.1221
10485TIP3    H152870   5.883   5.430  -0.042 -2.1674  0.1990  0.5114
10485TIP3    H252871   5.856   5.309   0.045  0.4207  0.6986  2.1502
10486TIP3   OH252872   4.074   0.212   5.879  0.1297  0.0701 -0.1469
10486TIP3    H152873   4.147   0.176   5.929  1.6949  3.8956  0.6744
10486TIP3    H252874   4.041   0.284   5.932 -2.5460  0.2056 -1.7612
10487TIP3   OH252875   5.769   4.048  16.729 -0.5638 -0.4926  0.8082
10487TIP3    H152876   5.711   3.989  16.779 -1.2905 -0.2775  0.2326
10487TIP3    H252877   5.709   4.108  16.685  0.1790  0.8694  1.6073
10488TIP3   OH252878   3.103   0.555   6.331  0.1050  0.2079 -0.4491
10488TIP3    H152879   3.041   0.508   6.386 -0.5945  1.5587 -0.0494
10488TIP3    H252880   3.076   0.535   6.241 -0.6856  0.4884 -0.2787
10489TIP3   OH252881   1.746   1.710   0.218 -0.4956  0.2366 -0.2937
10489TIP3    H152882   1.689   1.707   0.295  0.6165 -2.0302  0.5241
10489TIP3    H252883   1.775   1.801   0.213 -1.3250  0.6286  1.4166
10490TIP3   OH252884   5.609   6.300   3.005  0.1477  0.2619 -0.3488
10490TIP3    H152885   5.642   6.296   3.095  1.1924  1.8917 -0.6108
10490TIP3    H252886   5.579   6.391   2.995  0.7950  0.3339 -1.8951
10491TIP3   OH252887   5.859   4.376   5.707  0.3248  0.0536 -0.1475
10491TIP3    H152888   5.782   4.325   5.681  0.4184 -0.3189  0.2940
10491TIP3    H252889   5.848   4.460   5.662  1.2753 -1.0945 -2.6434
10492TIP3   OH252890   3.499   1.184  16.892  0.4766  0.1104  0.0182
10492TIP3    H152891   3.516   1.120  16.822 -0.0466 -0.2391  0.2055
10492TIP3    H252892   3.482   1.266  16.845 -1.1714 -0.3991 -0.3582
10493TIP3   OH252893   1.360   0.861   5.575 -0.6265  0.4032 -0.3053
10493TIP3    H152894   1.367   0.954   5.596 -1.0426  0.1191  1.2115
10493TIP3    H252895   1.287   0.855   5.513  0.3660  1.2355 -1.5957
10494TIP3   OH252896   3.039   0.190  14.649 -0.2545 -0.3466 -0.4941
10494TIP3    H152897   3.132   0.201  14.667 -0.3946 -0.6538  0.4844
10494TIP3    H252898   3.015   0.265  14.595  0.3511  0.2543  0.0647
10495TIP3   OH252899   5.984   2.238   5.694 -0.2379 -0.7740 -0.2927
10495TIP3    H152900   5.936   2.315   5.727  1.1130 -0.1084  0.1953
10495TIP3    H252901   5.998   2.257   5.602 -0.7863 -0.9127 -0.4084
10496TIP3   OH252902   4.286   4.875  16.305  0.0891 -0.4215 -0.1887
10496TIP3    H152903   4.315   4.927  16.231  0.9944 -0.1870  0.3128
10496TIP3    H252904   4.309   4.785  16.282  2.3000 -0.1312  0.6484
10497TIP3   OH252905   5.324   1.272  17.011 -0.2086 -0.1769  0.3403
10497TIP3    H152906   5.410   1.298  16.978 -0.1700 -2.4438 -1.6434
10497TIP3    H252907   5.262   1.311  16.949 -0.3018 -2.1253 -0.8755
10498TIP3   OH252908   0.498   0.652   5.786  0.1719  0.1067  0.4677
10498TIP3    H152909   0.557   0.663   5.861  1.4391  2.2766 -0.7426
10498TIP3    H252910   0.439   0.728   5.792 -0.6543 -0.4853  0.0418
10499TIP3   OH252911   6.423   2.481   1.675  0.1147 -0.2720 -0.1645
10499TIP3    H152912   6.475   2.466   1.754  3.6430 -0.2344 -2.2587
10499TIP3    H252913   6.415   2.577   1.670 -1.2097 -0.3145  0.7259
10500TIP3   OH252914   1.676   1.003  16.638  0.5708 -0.1633  0.3453
10500TIP3    H152915   1.657   1.040  16.724  3.1741 -0.2978  1.0609
10500TIP3    H252916   1.632   0.918  16.637  0.2803 -0.0286  1.4308
10501TIP3   OH252917   6.561   4.287   0.368 -0.0966 -0.3866  0.4442
10501TIP3    H152918   6.593   4.329   0.289  0.1060  0.6668  1.0689
10501TIP3    H252919   6.636   4.283   0.426 -0.5771  0.1449  1.1155
10502TIP3   OH252920   5.654   5.101   1.719  0.4564  0.6178  0.1517
10502TIP3    H152921   5.594   5.144   1.657  0.4217 -0.5748 -0.6725
10502TIP3    H252922   5.640   5.007   1.704  2.0136  0.3114  0.4508
10503TIP3   OH252923   1.785   3.832   1.506 -0.2739  0.0955 -0.1662
10503TIP3    H152924   1.878   3.809   1.500 -0.3482 -0.3356  0.2237
10503TIP3    H252925   1.785   3.923   1.535  0.0249  0.4360 -1.2000
10504TIP3   OH252926   6.204   3.541  16.046  0.1411  0.1444  0.0055
10504TIP3    H152927   6.284   3.592  16.053 -0.1455  0.8001 -1.2059
10504TIP3    H252928   6.151   3.588  15.981 -0.3806 -1.3744 -0.7195
10505TIP3   OH252929   4.071   0.496   2.389 -0.8193  0.3076  0.4781
10505TIP3    H152930   4.004   0.547   2.342 -1.1062 -0.2209  0.3094
10505TIP3    H252931   4.154   0.525   2.351 -1.0509 -0.1162 -0.3544
10506TIP3   OH252932   5.840   3.302  15.184 -0.3694 -0.6854  0.2239
10506TIP3    H152933   5.877   3.316  15.097 -0.0358 -3.4801 -0.1821
10506TIP3    H252934   5.804   3.213  15.181 -0.0811 -0.9878  3.0152
10507TIP3   OH252935   5.907   0.140   0.164 -0.2677 -0.1565  0.0786
10507TIP3    H152936   5.968   0.213   0.175 -0.6002 -0.0339  1.4042
10507TIP3    H252937   5.934   0.098   0.083  0.8186  0.6015  0.0144
10508TIP3   OH252938   6.186   3.754   6.869 -0.2524  0.7114  0.3673
10508TIP3    H152939   6.127   3.724   6.937 -0.9686  1.1388 -0.0511
10508TIP3    H252940   6.133   3.814   6.815  0.4063  0.6969 -0.3239
10509TIP3   OH252941   4.652   4.283   5.883  0.1938  0.3759 -0.5131
10509TIP3    H152942   4.674   4.200   5.840 -0.4754  1.0409 -2.2139
10509TIP3    H252943   4.642   4.260   5.976  0.3417 -1.3723 -0.9022
10510TIP3   OH252944   1.920   1.969  14.698 -0.2023 -0.3024 -0.1719
10510TIP3    H152945   1.930   2.036  14.630 -0.5012 -1.1424 -1.0848
10510TIP3    H252946   1.948   1.888  14.655 -0.9206 -0.9414  0.5391
10511TIP3   OH252947   0.884   6.040  12.470  0.0685 -0.5324  0.1543
10511TIP3    H152948   0.949   6.076  12.409  0.0130 -0.3273  0.2122
10511TIP3    H252949   0.829   6.116  12.492  0.5429 -0.4360  1.0533
10512TIP3   OH252950   3.123   3.936   2.958 -0.0001 -0.3506 -0.4753
10512TIP3    H152951   3.151   3.917   2.868  2.3948  0.2115  0.0731
10512TIP3    H252952   3.028   3.942   2.953 -0.6066 -6.0516 -1.8724
10513TIP3   OH252953   5.961   4.200  11.014 -0.1621  0.1260  0.2966
10513TIP3    H152954   5.960   4.196  11.109 -0.3614 -1.1819  0.2588
10513TIP3    H252955   6.032   4.141  10.987 -1.9214 -1.8220 -0.3969
10514TIP3   OH252956   2.400   5.912  15.574  0.4596 -0.3811 -0.1209
10514TIP3    H152957   2.311   5.879  15.586  0.4037  0.1154  0.9660
10514TIP3    H252958   2.422   5.892  15.483 -0.6102 -0.8673 -0.2785
10515TIP3   OH252959   2.886   1.012   2.810 -0.0210 -0.3625 -0.4528
10515TIP3    H152960   2.899   0.969   2.725  1.6068 -3.7839  1.2964
10515TIP3    H252961   2.971   1.051   2.831 -0.4026  0.4336 -0.3385
10516TIP3   OH252962   2.229   6.725   2.446  0.1705 -0.0376  0.2972
10516TIP3    H152963   2.226   6.698   2.538  0.9222 -0.7986  0.1175
10516TIP3    H252964   2.175   6.660   2.401 -0.8519  0.7898  0.2813
10517TIP3   OH252965   0.228   6.254  16.470  0.6303  0.4541  0.0349
10517TIP3    H152966   0.276   6.225  16.548  1.1086  1.4028  0.1092
10517TIP3    H252967   0.173   6.326  16.500 -0.5447 -0.3366 -0.1462
10518TIP3   OH252968   0.394   6.623  11.669 -0.2653 -0.1512  0.1150
10518TIP3    H152969   0.431   6.667  11.593  0.7575 -1.5994 -0.2721
10518TIP3    H252970   0.404   6.685  11.741  0.8857  0.3568 -0.4604
10519TIP3   OH252971   1.833   3.483   2.569  1.1044 -0.1942  0.3172
10519TIP3    H152972   1.780   3.412   2.532  0.7946 -0.2245  0.8200
10519TIP3    H252973   1.839   3.547   2.499 -1.6301  0.9346  1.0096
10520TIP3   OH252974   3.864   0.691  12.310 -0.2165 -0.2800  0.1557
10520TIP3    H152975   3.929   0.760  12.326  1.3129 -1.6154 -0.0136
10520TIP3    H252976   3.796   0.734  12.258  0.2698  1.2898  0.7502
10521TIP3   OH252977   2.327   4.016   0.891  0.1776 -0.4933 -0.3642
10521TIP3    H152978   2.235   4.000   0.913  0.0366  0.1383 -0.4702
10521TIP3    H252979   2.375   3.948   0.938 -0.2632 -0.2112  0.5152
10522TIP3   OH252980   0.273   0.018   3.734  0.1944  0.0269 -0.0632
10522TIP3    H152981   0.280   0.113   3.737  0.7020 -0.0167  0.2993
10522TIP3    H252982   0.245  -0.001   3.644  1.0406  0.4646 -0.4380
10523TIP3   OH252983   0.165   5.048  11.543  0.4952 -0.2111 -0.2688
10523TIP3    H152984   0.162   5.143  11.532  0.9047 -0.1837 -0.1595
10523TIP3    H252985   0.087   5.028  11.594  2.2014  0.5372  2.9850
10524TIP3   OH252986   1.095   0.142   3.629 -0.7851 -0.5407 -0.4996
10524TIP3    H152987   1.152   0.069   3.653 -1.1339 -1.2408 -1.6625
10524TIP3    H252988   1.025   0.141   3.694 -0.2510 -0.6134  0.0734
10525TIP3   OH252989   1.690   0.041   2.000 -0.6470 -0.2175 -0.4401
10525TIP3    H152990   1.733   0.121   2.031 -0.5537 -0.0919 -0.8818
10525TIP3    H252991   1.678   0.056   1.906 -0.7530 -0.6686 -0.4986
10526TIP3   OH252992   3.097   4.399  11.826 -0.2785  0.3422  0.6884
10526TIP3    H152993   3.140   4.445  11.753 -0.0767 -0.9652 -0.0384
10526TIP3    H252994   3.005   4.396  11.801 -0.2094 -0.1040  0.4745
10527TIP3   OH252995   5.670   5.890  16.432  0.0557  0.4458  0.5226
10527TIP3    H152996   5.577   5.881  16.412  0.1054 -0.9035  0.7904
10527TIP3    H252997   5.680   5.848  16.518  1.1378 -0.7269 -0.1430
10528TIP3   OH252998   5.153   4.412   5.996  0.5646 -0.2567  0.7104
10528TIP3    H152999   5.199   4.377   5.920  0.5872  1.3314 -0.0431
10528TIP3    H253000   5.061   4.417   5.968  0.3381 -0.9812  1.2964
10529TIP3   OH253001   0.273   1.516   0.511 -0.6594  0.1078 -0.0156
10529TIP3    H153002   0.349   1.459   0.501  1.0187  2.1404  0.3962
10529TIP3    H253003   0.310   1.603   0.527 -3.0902  1.0568  0.9473
10530TIP3   OH253004   1.686   3.281  12.352  0.4557 -0.2647 -0.1257
10530TIP3    H153005   1.739   3.259  12.429  0.3562  0.6699  0.2204
10530TIP3    H253006   1.738   3.250  12.278  0.4627 -1.3652  0.3087
10531TIP3   OH253007   6.237   3.174  12.885  0.4052  0.1058 -0.3795
10531TIP3    H153008   6.181   3.204  12.813 -0.7965  1.6409  1.1009
10531TIP3    H253009   6.230   3.244  12.951  0.8987 -1.5475  1.5096
10532TIP3   OH253010   2.930   1.335   2.953  0.4411  0.9763 -0.2002
10532TIP3    H153011   2.930   1.352   3.048 -0.2784 -1.0491  0.2019
10532TIP3    H253012   3.023   1.325   2.931  0.5263 -1.1806  0.8593
10533TIP3   OH253013   4.060   0.691  13.083 -0.2087  0.0569  0.0902
10533TIP3    H153014   4.155   0.689  13.074 -0.2350 -1.4515 -0.2586
10533TIP3    H253015   4.044   0.734  13.167  0.6694  2.1010 -0.7330
10534TIP3   OH253016   1.545   1.201  11.283  0.0809 -0.0945  0.0620
10534TIP3    H153017   1.465   1.248  11.307 -0.9197 -1.1530 -1.0859
10534TIP3    H253018   1.584   1.253  11.213  0.3155  0.3149  0.4870
10535TIP3   OH253019   2.550   6.433   2.122 -0.3264 -0.2775 -0.2455
10535TIP3    H153020   2.506   6.385   2.193  0.0736 -1.6021 -0.8545
10535TIP3    H253021   2.508   6.519   2.121 -0.0051 -0.0408  1.9096
10536TIP3   OH253022   4.336   0.316   4.655 -0.1907  0.6889  0.1062
10536TIP3    H153023   4.404   0.379   4.632 -0.7668  1.4689  0.4869
10536TIP3    H253024   4.338   0.311   4.750 -1.3096  1.4893  0.2009
10537TIP3   OH253025   2.861   5.185  17.259  0.3082  0.2312 -0.5820
10537TIP3    H153026   2.785   5.127  17.267  0.8055 -0.5709 -1.3571
10537TIP3    H253027   2.929   5.141  17.309  0.5285  0.4333 -0.7057
10538TIP3   OH253028   0.342   0.311  13.850  0.2156  0.0095 -0.1073
10538TIP3    H153029   0.297   0.311  13.935  0.2742 -0.5699 -0.0761
10538TIP3    H253030   0.312   0.392  13.808  0.0460  0.2118  0.3905
10539TIP3   OH253031   2.495   6.036   5.566 -0.0856  0.1734 -0.5741
10539TIP3    H153032   2.415   5.985   5.558  1.0074 -1.5108 -1.2884
10539TIP3    H253033   2.466   6.127   5.563 -2.0152 -0.3904 -0.1276
10540TIP3   OH253034   4.804   0.899  11.538 -0.5133 -0.4946  0.0422
10540TIP3    H153035   4.755   0.978  11.513  1.9868  1.0609 -0.3222
10540TIP3    H253036   4.832   0.861  11.454  1.1857  0.2330  0.2424
10541TIP3   OH253037   6.341   1.518  11.763 -0.1890 -0.0116 -0.1217
10541TIP3    H153038   6.271   1.484  11.706 -1.3130 -0.0158  1.2090
10541TIP3    H253039   6.419   1.471  11.735 -0.6254  0.2294 -1.8779
10542TIP3   OH253040   4.838   0.985  14.329 -0.1161 -0.4895 -0.5290
10542TIP3    H153041   4.783   1.018  14.400 -0.0463 -1.1868 -0.1393
10542TIP3    H253042   4.848   1.059  14.269 -1.5967 -0.3788 -0.6761
10543TIP3   OH253043   1.765   0.307  14.930  0.2849  0.0030 -0.0375
10543TIP3    H153044   1.844   0.323  14.982 -0.1083  1.9156  0.0382
10543TIP3    H253045   1.695   0.350  14.978 -0.9800 -2.1356  0.1777
10544TIP3   OH253046   3.330   3.593   5.773 -0.5251  0.0998 -0.4005
10544TIP3    H153047   3.418   3.631   5.762 -1.5454  3.2910  1.2049
10544TIP3    H253048   3.324   3.574   5.866 -1.8047  0.6786 -0.3560
10545TIP3   OH253049   2.341   0.018  15.725  0.1631  0.4797  0.2004
10545TIP3    H153050   2.375  -0.027  15.648 -1.4618 -0.6348  0.0900
10545TIP3    H253051   2.291   0.092  15.689 -0.1971  0.2358  0.1900
10546TIP3   OH253052   2.450   0.285  15.317  0.4806  0.1094  0.2290
10546TIP3    H153053   2.384   0.270  15.384  0.0508  1.4502  0.1415
10546TIP3    H253054   2.525   0.322  15.364  0.4439  0.3860  0.0755
10547TIP3   OH253055   0.888   1.824   6.349 -0.5360  0.5825  0.3814
10547TIP3    H153056   0.974   1.804   6.387  0.1316  1.5604 -0.5543
10547TIP3    H253057   0.832   1.841   6.425  0.1372  0.1071  1.0026
10548TIP3   OH253058   6.484   0.239   3.967  0.0645 -0.2555  0.2515
10548TIP3    H153059   6.521   0.170   4.022 -0.5311  0.4894  1.6457
10548TIP3    H253060   6.558   0.271   3.915  0.8664 -0.3497  1.3099
10549TIP3   OH253061   1.086   1.319  14.307  0.0807  1.0524  0.2480
10549TIP3    H153062   1.032   1.269  14.246 -0.1119  0.8814  0.5554
10549TIP3    H253063   1.175   1.284  14.295  0.1913  1.5482 -0.4815
10550TIP3   OH253064   5.100   0.263   5.069  0.3594  0.3169 -0.2127
10550TIP3    H153065   5.035   0.200   5.100  0.2334  0.7983  0.5340
10550TIP3    H253066   5.057   0.308   4.996 -0.5578  1.3478  0.9336
10551TIP3   OH253067   2.585   0.304   3.428 -0.1519  0.3657 -0.1072
10551TIP3    H153068   2.576   0.211   3.411 -0.3988  0.4013 -0.1705
10551TIP3    H253069   2.552   0.315   3.518  2.3033 -0.0252  0.9138
10552TIP3   OH253070   2.965   2.084  13.986  0.5983  0.3968  0.6730
10552TIP3    H153071   2.990   1.992  13.998 -0.0376  0.2418  0.8872
10552TIP3    H253072   3.043   2.126  13.951  0.3815 -0.5767 -1.1012
10553TIP3   OH253073   0.074   1.924   0.267 -0.1270  0.1291 -0.1117
10553TIP3    H153074  -0.013   1.888   0.282 -0.5144  1.4633  1.0169
10553TIP3    H253075   0.079   2.000   0.324  1.4538  0.6097 -0.8318
10554TIP3   OH253076   1.917   4.549   0.182 -0.0009  0.1643 -0.0006
10554TIP3    H153077   1.994   4.584   0.136  0.5128 -0.6063  0.2478
10554TIP3    H253078   1.895   4.616   0.246 -1.6325  1.9607 -2.2517
10555TIP3   OH253079   3.441   4.820   5.001 -0.0441  0.2577  0.0131
10555TIP3    H153080   3.356   4.831   4.959  0.0882 -0.8718 -0.5708
10555TIP3    H253081   3.423   4.770   5.081  0.0246  0.3231  0.0703
10556TIP3   OH253082   6.430   2.060   3.525  0.5545  0.2982  0.0907
10556TIP3    H153083   6.500   2.015   3.478  0.6200  2.1419 -1.6939
10556TIP3    H253084   6.352   2.008   3.507  0.6404  0.7706 -1.8265
10557TIP3   OH253085   2.356   4.432   4.093  0.2782  0.4299  0.1567
10557TIP3    H153086   2.397   4.359   4.047  0.3125 -0.8059  2.0438
10557TIP3    H253087   2.328   4.395   4.177 -0.3499  2.4211  0.8853
10558TIP3   OH253088   1.926   4.278   0.621  0.2058  0.3395  0.1060
10558TIP3    H153089   1.938   4.324   0.538 -1.6290  0.0287 -0.3817
10558TIP3    H253090   1.833   4.253   0.621  0.3468 -0.3176  1.9203
10559TIP3   OH253091   0.904   4.059  12.577 -0.5430  0.6775  0.1913
10559TIP3    H153092   0.825   4.099  12.613 -1.4063 -1.1562  0.4401
10559TIP3    H253093   0.881   4.039  12.486 -0.9000 -1.1522  0.6608
10560TIP3   OH253094   2.712   1.819   5.113  0.2586 -0.1214 -0.4859
10560TIP3    H153095   2.727   1.913   5.121  1.4411 -0.3720  0.5380
10560TIP3    H253096   2.760   1.794   5.034  1.4956 -0.1491  0.2521
10561TIP3   OH253097   3.028   4.975  15.040  0.0573 -0.0836  0.4473
10561TIP3    H153098   2.997   4.884  15.049 -1.9871  0.6224  1.1110
10561TIP3    H253099   3.123   4.967  15.034 -0.0819 -2.2903  0.1790
10562TIP3   OH253100   2.508   0.787   0.231 -0.5092 -0.2786  0.1281
10562TIP3    H153101   2.516   0.770   0.137  1.4101  1.7431 -0.1588
10562TIP3    H253102   2.563   0.864   0.246 -0.4252 -0.7914  2.9902
10563TIP3   OH253103   5.111   0.892   2.319  0.2184  0.4038 -0.2248
10563TIP3    H153104   5.198   0.867   2.287  1.2434  1.1041  1.8614
10563TIP3    H253105   5.090   0.828   2.386  0.1178  1.4877  0.8111
10564TIP3   OH253106   3.246   4.429  15.646 -0.2402  0.3052 -0.0659
10564TIP3    H153107   3.269   4.413  15.738 -0.9732  0.6860  0.1945
10564TIP3    H253108   3.285   4.356  15.598 -0.9388 -0.5906  0.7026
10565TIP3   OH253109   3.386   1.118  15.868  0.0135  0.3759  0.1290
10565TIP3    H153110   3.405   1.108  15.775 -0.4526 -0.1109  0.0816
10565TIP3    H253111   3.360   1.030  15.896 -2.3524  1.0330  0.1491
10566TIP3   OH253112   3.325   6.510  15.317 -0.0266 -0.0544  0.0317
10566TIP3    H153113   3.354   6.491  15.406 -1.1966  1.4575  0.7741
10566TIP3    H253114   3.339   6.428  15.270  1.3559 -0.6541  1.3907
10567TIP3   OH253115   5.765   1.448   2.456 -0.2268 -0.2226 -0.3065
10567TIP3    H153116   5.700   1.513   2.430  0.4062  0.6861  0.3575
10567TIP3    H253117   5.717   1.364   2.451 -0.8994  0.1989 -1.6772
10568TIP3   OH253118   0.356   2.371  16.555  0.3932  0.2550  0.2948
10568TIP3    H153119   0.442   2.346  16.589  0.6007  0.6315  0.0586
10568TIP3    H253120   0.357   2.467  16.556  0.2165  0.2713 -0.2880
10569TIP3   OH253121   4.147   3.825  16.463  0.6026  0.7891 -0.1157
10569TIP3    H153122   4.079   3.758  16.465  0.0122  1.3986  1.6705
10569TIP3    H253123   4.109   3.897  16.412 -0.2213  1.2376  1.1109
10570TIP3   OH253124   3.617   3.036  12.839  0.0322 -0.3613 -0.6056
10570TIP3    H153125   3.531   3.061  12.874  1.1828  0.8548  1.6014
10570TIP3    H253126   3.613   2.941  12.832 -1.0044 -0.4734  0.9648
10571TIP3   OH253127   3.596   4.203  15.586  0.1597 -0.0301 -0.6752
10571TIP3    H153128   3.670   4.142  15.581  0.2857 -0.0044  0.5297
10571TIP3    H253129   3.632   4.280  15.631 -0.2288  0.5770 -1.3846
10572TIP3   OH253130   5.739   4.983   6.855 -0.4106 -0.1267  0.1826
10572TIP3    H153131   5.824   4.978   6.898  0.3034 -1.8850 -1.2683
10572TIP3    H253132   5.679   5.015   6.922  1.0989 -0.3686  1.7012
10573TIP3   OH253133   6.278   3.657   2.283  0.0691 -0.1204 -0.2105
10573TIP3    H153134   6.283   3.604   2.204 -2.0003 -0.9025  0.1176
10573TIP3    H253135   6.230   3.736   2.256  2.0229  1.0641 -0.4022
10574TIP3   OH253136   3.005   2.640   5.472 -0.0712  0.6205  0.5436
10574TIP3    H153137   2.957   2.576   5.418 -0.4226  2.0755 -0.9714
10574TIP3    H253138   2.997   2.722   5.423  2.3537  1.3377  1.2305
10575TIP3   OH253139   6.587   2.127   5.961  0.4260  0.4707 -0.1521
10575TIP3    H153140   6.581   2.177   5.880  0.4723 -0.0936 -0.5115
10575TIP3    H253141   6.529   2.052   5.947  1.2197 -0.1719 -0.0634
10576TIP3   OH253142   4.412   5.775  14.293  0.0523  0.1564  0.7486
10576TIP3    H153143   4.381   5.691  14.327  0.9148 -0.5901 -0.2733
10576TIP3    H253144   4.498   5.787  14.333  0.9044 -0.5393 -0.7804
10577TIP3   OH253145   0.993   4.608   0.519 -0.0902 -0.3823  0.5510
10577TIP3    H153146   0.945   4.681   0.559  0.5347  0.4885 -0.2206
10577TIP3    H253147   0.925   4.553   0.480 -0.5137  0.5553 -0.0804
10578TIP3   OH253148   1.909   4.463   3.226 -0.5804  0.2520  0.1507
10578TIP3    H153149   1.836   4.515   3.192  0.0969  0.8241 -0.4624
10578TIP3    H253150   1.888   4.373   3.201 -1.5366  0.2703  0.8217
10579TIP3   OH253151   3.169   2.220  16.944  0.2566 -0.4294  0.3819
10579TIP3    H153152   3.093   2.235  17.001  0.6114 -0.4584  0.8654
10579TIP3    H253153   3.188   2.127  16.952 -0.5570 -0.7427 -0.8886
10580TIP3   OH253154   5.657   3.619  14.935 -0.2146  0.4619  0.0099
10580TIP3    H153155   5.607   3.541  14.957 -0.0047  0.4341  0.3959
10580TIP3    H253156   5.748   3.593  14.946 -0.1429  1.6373  3.4114
10581TIP3   OH253157   2.411   6.405   5.164  0.2663 -0.0276  0.3160
10581TIP3    H153158   2.383   6.316   5.142  1.4610 -0.4590  0.4227
10581TIP3    H253159   2.330   6.455   5.173 -0.4925 -1.4204  1.6399
10582TIP3   OH253160   5.633   3.392  11.626  0.1736 -0.8595 -0.1142
10582TIP3    H153161   5.685   3.366  11.550 -2.9896  0.2128 -2.8887
10582TIP3    H253162   5.658   3.482  11.643 -0.2687 -0.5398 -1.0599
10583TIP3   OH253163   1.073   4.911   0.383 -0.6356  0.0898  0.4997
10583TIP3    H153164   1.049   4.863   0.304  0.5354  1.7160 -0.9364
10583TIP3    H253165   0.994   4.908   0.437 -2.0004  0.0992 -1.3546
10584TIP3   OH253166   4.157   1.185  13.083  0.1258  0.1882 -0.0131
10584TIP3    H153167   4.106   1.194  13.164  0.6061  1.5182  0.1654
10584TIP3    H253168   4.247   1.174  13.113  0.1804 -0.2911 -0.3530
10585TIP3   OH253169   0.102   4.303   5.468 -0.0011  0.0158  0.5617
10585TIP3    H153170   0.048   4.266   5.538  0.4180  0.3317  1.0536
10585TIP3    H253171   0.171   4.351   5.514  0.7123 -0.4033 -0.0554
10586TIP3   OH253172   4.832   2.612   3.290 -0.5475  0.2333  0.1089
10586TIP3    H153173   4.812   2.527   3.330  1.1347  0.0633  0.6932
10586TIP3    H253174   4.892   2.590   3.218 -2.0328  0.7230 -1.3449
10587TIP3   OH253175   2.864   5.572   6.436  0.1210  0.7419 -0.0498
10587TIP3    H153176   2.816   5.490   6.426  1.2467  0.2650 -2.3872
10587TIP3    H253177   2.801   5.632   6.475 -0.6991 -1.2234  1.8473
10588TIP3   OH253178   2.850   2.839   0.430  0.3192 -0.5717 -0.9931
10588TIP3    H153179   2.805   2.922   0.448 -0.4246 -1.2887  0.6997
10588TIP3    H253180   2.808   2.807   0.350 -1.7704 -0.8584  0.1272
10589TIP3   OH253181   0.836   4.540  12.899  0.5282  0.2389  0.7260
10589TIP3    H153182   0.857   4.540  12.806 -0.4613  0.2730  0.4883
10589TIP3    H253183   0.805   4.452  12.917  1.9734 -0.1630  1.3379
10590TIP3   OH253184   3.603   3.708   1.075 -0.8943 -0.4081 -0.5308
10590TIP3    H153185   3.547   3.726   1.150 -2.3125  2.9373 -2.1305
10590TIP3    H253186   3.542   3.685   1.005  0.0526 -0.1539 -1.4682
10591TIP3   OH253187   6.241   5.433  11.025  0.0209 -1.1406 -0.2142
10591TIP3    H153188   6.172   5.478  10.977 -2.0127 -2.5055  1.2341
10591TIP3    H253189   6.319   5.442  10.971 -1.0984  1.1082 -1.5721
10592TIP3   OH253190   2.608   4.392   0.990  0.0093  0.6156  0.0222
10592TIP3    H153191   2.600   4.309   0.942 -1.0183  0.0659  1.0885
10592TIP3    H253192   2.598   4.460   0.923  0.5180 -0.1229 -0.8185
10593TIP3   OH253193   0.401   6.159   0.303 -0.1638  0.0373 -0.1980
10593TIP3    H153194   0.435   6.205   0.380 -0.3352 -0.4574  0.1784
10593TIP3    H253195   0.315   6.198   0.287 -0.7822 -0.8774  0.7778
10594TIP3   OH253196   1.503   3.815  17.330 -0.5276  0.0598  0.7983
10594TIP3    H153197   1.447   3.782  17.259  0.4499 -0.4489  0.2410
10594TIP3    H253198   1.520   3.739  17.385  1.3862 -0.3406 -0.2535
10595TIP3   OH253199   4.055   6.191   0.596 -0.0439  0.9482 -0.1065
10595TIP3    H153200   4.079   6.276   0.631 -0.7873  0.6895  1.0776
10595TIP3    H253201   4.129   6.134   0.617 -0.1051  1.0046  0.2754
10596TIP3   OH253202   5.696   5.242   0.090  0.2648  0.3303 -0.6769
10596TIP3    H153203   5.622   5.265   0.034  0.3797  2.5043  0.0002
10596TIP3    H253204   5.692   5.146   0.095 -1.7775  0.3043 -1.6084
10597TIP3   OH253205   0.225   3.142  14.379  0.1120  0.0232 -1.1211
10597TIP3    H153206   0.175   3.094  14.444 -0.3868  0.4016 -1.2208
10597TIP3    H253207   0.316   3.115  14.393  0.0666  0.3972 -0.0180
10598TIP3   OH253208   3.547   2.337  15.247 -0.1096  0.3908 -0.4911
10598TIP3    H153209   3.514   2.348  15.337  0.5367  1.0223 -0.3268
10598TIP3    H253210   3.493   2.266  15.211  0.0287 -0.3064  0.5952
10599TIP3   OH253211   1.873   5.948   5.235 -0.1288  0.1757 -0.4934
10599TIP3    H153212   1.942   6.013   5.222 -2.1521  2.2198 -1.8751
10599TIP3    H253213   1.821   5.983   5.308  0.4271 -1.5123  0.7707
10600TIP3   OH253214   6.612   5.560  14.762 -0.1223  0.3235  0.4925
10600TIP3    H153215   6.682   5.579  14.699  0.5368 -1.2032  0.7383
10600TIP3    H253216   6.592   5.645  14.802  1.3113  0.8480  0.1341
10601TIP3   OH253217   4.116   3.579   5.833 -0.2778  1.0448  0.7124
10601TIP3    H153218   4.044   3.518   5.815  0.0817  0.9677 -0.5207
10601TIP3    H253219   4.158   3.544   5.912  0.7916 -1.1647 -0.7424
10602TIP3   OH253220   4.272   6.191  11.568 -0.3834 -0.6249  0.3817
10602TIP3    H153221   4.349   6.166  11.619  0.7030  0.0305 -0.8755
10602TIP3    H253222   4.264   6.285  11.583 -1.0751 -0.7267  0.6666
10603TIP3   OH253223   5.674   1.853   2.777  0.1947  0.2163 -0.1529
10603TIP3    H153224   5.617   1.916   2.733  0.2353  1.6816  1.7446
10603TIP3    H253225   5.734   1.823   2.709  0.8868  3.0896 -0.9545
10604TIP3   OH253226   4.978   2.922  11.084 -0.0868 -0.0308  0.1931
10604TIP3    H153227   5.034   2.845  11.091  0.5463  0.4025 -0.0223
10604TIP3    H253228   4.910   2.909  11.149  1.7358  0.6515  2.3539
10605TIP3   OH253229   0.172   1.908   4.217  0.0701  0.4701  0.1438
10605TIP3    H153230   0.195   1.816   4.234  0.1439  0.3469 -0.6170
10605TIP3    H253231   0.188   1.951   4.301  0.7752 -0.0693  0.3031
10606TIP3   OH253232   2.916   3.771  12.255  0.0978  0.1224 -0.5128
10606TIP3    H153233   3.008   3.795  12.265 -0.4293  2.2577 -0.3481
10606TIP3    H253234   2.887   3.818  12.176 -1.2600  0.9155  0.4055
10607TIP3   OH253235   1.013   4.563   5.259  0.2338  0.4000 -0.2062
10607TIP3    H153236   1.077   4.595   5.322  0.6578 -0.4163 -0.2107
10607TIP3    H253237   1.059   4.494   5.211 -0.9649 -0.9689  0.5270
10608TIP3   OH253238   1.574   4.998   6.049  0.3435 -0.2574  0.1051
10608TIP3    H153239   1.582   4.931   6.118  0.8534  1.1321  1.4435
10608TIP3    H253240   1.663   5.007   6.015  0.4533  0.3369  0.5318
10609TIP3   OH253241   3.559   2.884   3.610  0.1166  0.5427 -0.5793
10609TIP3    H153242   3.550   2.905   3.516  2.0120  1.0217 -0.6834
10609TIP3    H253243   3.613   2.955   3.645  0.8478 -0.5410  0.5298
10610TIP3   OH253244   4.955   3.635   4.891 -0.5258  0.0539 -0.7917
10610TIP3    H153245   4.987   3.593   4.970 -1.1173 -0.7514 -0.9751
10610TIP3    H253246   4.967   3.729   4.908  0.5693 -0.1635 -0.2867
10611TIP3   OH253247   4.895   6.711   4.769 -0.2533  0.6535  0.1407
10611TIP3    H153248   4.870   6.636   4.714  3.0995  1.5265 -2.8849
10611TIP3    H253249   4.957   6.675   4.833  1.9118  0.8273 -1.7652
10612TIP3   OH253250   6.372   5.799   5.523  0.0340 -0.2685  0.4010
10612TIP3    H153251   6.364   5.811   5.428  1.1979 -1.1346  0.1677
10612TIP3    H253252   6.463   5.770   5.536 -0.4292 -1.2487  1.6582
10613TIP3   OH253253   3.766   2.705   0.683 -0.2201  0.1149 -0.3088
10613TIP3    H153254   3.801   2.656   0.609 -0.5225  0.6752 -0.8324
10613TIP3    H253255   3.720   2.779   0.643  0.2814  0.8635  0.4628
10614TIP3   OH253256   0.207   0.607   6.021 -0.4088  0.8602 -0.3815
10614TIP3    H153257   0.291   0.566   6.043 -1.2331 -0.0796  1.2671
10614TIP3    H253258   0.205   0.609   5.926  1.9050  1.8528 -0.4838
10615TIP3   OH253259   1.338   1.970  14.643  0.5652  0.4650 -0.1607
10615TIP3    H153260   1.430   1.978  14.617  0.0524  1.2506 -1.9233
10615TIP3    H253261   1.339   1.912  14.719  2.6172  1.3371  0.5481
10616TIP3   OH253262   2.331   5.167   5.974  0.3781  0.0175  0.2743
10616TIP3    H153263   2.411   5.202   5.936  0.0463  1.6376  0.9758
10616TIP3    H253264   2.265   5.178   5.905  0.2826  0.7550  0.4824
10617TIP3   OH253265   2.867   5.067   4.602 -0.2555  0.1883 -0.0855
10617TIP3    H153266   2.896   4.993   4.550 -0.2496  0.3292 -0.2802
10617TIP3    H253267   2.771   5.057   4.606 -0.2320  0.0314  0.0971
10618TIP3   OH253268   5.384   0.284   3.966 -0.3281  0.4610 -0.2331
10618TIP3    H153269   5.296   0.248   3.961 -0.1643  0.2468 -2.9936
10618TIP3    H253270   5.438   0.223   3.916  1.4557  0.4824  1.5583
10619TIP3   OH253271   0.305   1.287   2.071  0.0237  0.1771 -0.0949
10619TIP3    H153272   0.272   1.244   2.150  2.1059  1.1235  1.3698
10619TIP3    H253273   0.271   1.377   2.077  0.6976  0.4252  0.0625
10620TIP3   OH253274   5.211   6.002  14.156 -0.1970  0.6373 -0.0682
10620TIP3    H153275   5.296   5.962  14.171 -0.2623  0.3454 -0.4809
10620TIP3    H253276   5.162   5.938  14.105 -0.4899  1.0166 -0.2727
10621TIP3   OH253277   0.122   0.663   6.293 -0.0299 -0.5367 -0.4550
10621TIP3    H153278   0.057   0.733   6.289  0.5800  0.0674  0.0369
10621TIP3    H253279   0.165   0.666   6.208  2.8022  2.4589  0.8828
10622TIP3   OH253280   5.170   4.518   0.231 -0.2436 -0.3369  0.5438
10622TIP3    H153281   5.186   4.490   0.140 -0.3822 -0.6988  0.6301
10622TIP3    H253282   5.075   4.523   0.238 -0.2294 -0.1846  0.6352
10623TIP3   OH253283   0.273   6.501  15.050  0.1634 -0.1170 -0.3249
10623TIP3    H153284   0.273   6.495  14.954  0.1609 -0.7900 -0.2862
10623TIP3    H253285   0.244   6.415  15.079 -0.1775  0.1990  0.2808
10624TIP3   OH253286   3.788   5.166   5.689  0.2433  0.7325 -0.0711
10624TIP3    H153287   3.851   5.144   5.757 -0.8273 -2.7647 -0.0050
10624TIP3    H253288   3.710   5.195   5.737 -0.9063 -2.7755  0.4914
10625TIP3   OH253289   2.730   0.826   3.912  0.0918  0.2015 -0.5160
10625TIP3    H153290   2.741   0.881   3.834 -0.2447 -0.1877 -0.8445
10625TIP3    H253291   2.708   0.888   3.982 -0.3116  0.4907 -0.8849
10626TIP3   OH253292   0.866   6.761   1.093 -0.2183 -0.1100  0.5658
10626TIP3    H153293   0.899   6.806   1.015 -1.2381  0.2122  0.3027
10626TIP3    H253294   0.870   6.827   1.162  1.9716 -0.7791  1.1683
10627TIP3   OH253295   3.144   3.922   1.588  0.5641 -0.4118  0.5829
10627TIP3    H153296   3.141   3.997   1.528  0.6712  1.3292  2.6330
10627TIP3    H253297   3.199   3.858   1.543  0.1847  0.5754 -1.3993
10628TIP3   OH253298   3.463   3.648  11.280  0.0173  0.0948  0.5525
10628TIP3    H153299   3.369   3.662  11.282 -0.3944 -2.2486  0.4876
10628TIP3    H253300   3.500   3.733  11.256 -1.7981  1.9245  3.7193
10629TIP3   OH253301   4.753   6.495  14.973 -0.1814 -0.4386 -0.5837
10629TIP3    H153302   4.728   6.587  14.979  0.7046 -0.1382 -1.2484
10629TIP3    H253303   4.720   6.456  15.054 -0.2040  0.5520 -0.0959
10630TIP3   OH253304   5.664   6.192   3.678 -0.8360  0.4886 -0.1578
10630TIP3    H153305   5.612   6.123   3.637 -0.5589 -0.0857  0.4612
10630TIP3    H253306   5.702   6.152   3.755 -0.2253  1.1770 -0.0899
10631TIP3   OH253307   1.792   4.561   4.538 -0.5248 -0.0987  0.1981
10631TIP3    H153308   1.805   4.506   4.460 -0.2176  0.7605 -0.3671
10631TIP3    H253309   1.705   4.598   4.527 -1.0039 -0.9750  0.9103
10632TIP3   OH253310   0.604   4.419  16.000  0.2448 -0.6960  0.5040
10632TIP3    H153311   0.566   4.507  15.995  0.7152 -0.5444 -1.0638
10632TIP3    H253312   0.553   4.368  15.937  1.2631 -1.0105 -0.0875
10633TIP3   OH253313   1.498   3.992  16.838  0.0934  0.1018 -0.1295
10633TIP3    H153314   1.428   3.927  16.833 -0.6517  0.8544  0.3178
10633TIP3    H253315   1.577   3.944  16.815 -0.8742 -0.2255 -3.0879
10634TIP3   OH253316   4.895   1.475   0.107 -0.7325 -0.5282 -0.1390
10634TIP3    H153317   4.931   1.471   0.196 -0.9101  1.6519  0.0752
10634TIP3    H253318   4.946   1.411   0.058  0.9859 -0.1055  0.9999
10635TIP3   OH253319   0.365   4.382   5.530  0.6593 -0.2945  0.1074
10635TIP3    H153320   0.336   4.472   5.543 -0.0120 -0.3232 -1.0179
10635TIP3    H253321   0.457   4.389   5.503  0.3925  0.1280 -0.7456
10636TIP3   OH253322   5.272   3.814  17.077 -0.2741  0.0648 -0.4161
10636TIP3    H153323   5.182   3.783  17.069 -0.2062 -0.2406 -0.0225
10636TIP3    H253324   5.264   3.909  17.091 -0.6840 -0.3113  2.4191
10637TIP3   OH253325   6.680   4.287   2.996 -0.3833  0.1165 -0.2273
10637TIP3    H153326   6.585   4.298   3.001 -0.3820 -0.2902  1.5377
10637TIP3    H253327   6.715   4.361   3.046  0.0218 -1.6368  2.2835
10638TIP3   OH253328   5.464   4.623   5.145  0.0493 -0.5973 -0.2826
10638TIP3    H153329   5.501   4.641   5.059  1.5382  0.4706  0.5356
10638TIP3    H253330   5.377   4.662   5.143 -0.4226 -1.6531 -1.6834
10639TIP3   OH253331   0.661   4.191   5.958  0.3235  0.4443  0.5258
10639TIP3    H153332   0.611   4.183   6.039 -1.0212  1.1689 -0.1946
10639TIP3    H253333   0.599   4.228   5.895  1.3729  0.0374 -0.7997
10640TIP3   OH253334   0.432   2.412  13.729  0.7642 -0.3570  0.5062
10640TIP3    H153335   0.427   2.462  13.810 -0.8069 -1.2208  0.9852
10640TIP3    H253336   0.388   2.467  13.664 -0.0257 -0.6567  0.7854
10641TIP3   OH253337   1.190   0.708  13.885 -0.1347  0.0574  0.0624
10641TIP3    H153338   1.213   0.696  13.793 -0.8256 -0.5535 -0.0356
10641TIP3    H253339   1.105   0.752  13.883 -0.7242 -1.0418  0.3907
10642TIP3   OH253340   1.469   0.912  12.961 -0.6309 -0.0872  0.3030
10642TIP3    H153341   1.489   0.864  12.880 -0.1498 -0.6351  0.7420
10642TIP3    H253342   1.462   0.844  13.028 -1.0212  0.3678  0.7251
10643TIP3   OH253343   3.739   3.712  14.824 -0.0871  0.1705 -0.1411
10643TIP3    H153344   3.721   3.755  14.741  2.0303 -2.3375 -2.0347
10643TIP3    H253345   3.739   3.619  14.804 -0.4766 -0.6113  2.9221
10644TIP3   OH253346   4.607   3.108  17.091  0.4667 -0.0377 -0.8764
10644TIP3    H153347   4.653   3.096  17.174 -0.9161 -1.7035 -0.2917
10644TIP3    H253348   4.525   3.152  17.115  1.9291  3.7087 -2.0063
10645TIP3   OH253349   5.603   1.459   2.117  0.4863  0.4570  0.1477
10645TIP3    H153350   5.565   1.427   2.036 -1.6315  2.7942  0.0931
10645TIP3    H253351   5.693   1.482   2.094 -0.0713  1.0994 -1.6027
10646TIP3   OH253352   6.521   5.281   5.288  0.6096  0.0998  0.5231
10646TIP3    H153353   6.455   5.239   5.232  0.1414  1.2255  0.1935
10646TIP3    H253354   6.526   5.224   5.365 -0.3334 -0.3151  0.2993
10647TIP3   OH253355   2.738   3.685  16.496  0.4023  0.5783 -0.2966
10647TIP3    H153356   2.722   3.615  16.560  0.6455  2.3542  1.8151
10647TIP3    H253357   2.661   3.742  16.504  0.8383  1.2817 -0.9850
10648TIP3   OH253358   4.894   2.405  15.712  0.4255 -0.2885  0.5168
10648TIP3    H153359   4.858   2.468  15.774  2.1005  0.5878  0.6518
10648TIP3    H253360   4.851   2.426  15.629 -0.7749 -0.5442  1.0521
10649TIP3   OH253361   3.494   5.688   1.591 -0.4304  0.1442 -0.2904
10649TIP3    H153362   3.536   5.751   1.534  1.0571  0.6651  1.2920
10649TIP3    H253363   3.431   5.642   1.535 -1.0312  2.5048 -1.6535
10650TIP3   OH253364   6.008   4.664   5.993  0.4469  0.2305 -0.3419
10650TIP3    H153365   6.072   4.615   5.940 -1.0883 -0.5746 -1.5337
10650TIP3    H253366   6.000   4.613   6.073  0.4321 -0.3156 -0.6837
10651TIP3   OH253367   3.176   1.211   4.299  0.1443  0.8615  0.3713
10651TIP3    H153368   3.127   1.132   4.322  0.8967  0.5963  1.1483
10651TIP3    H253369   3.110   1.280   4.292 -0.3528  0.4856  1.2426
10652TIP3   OH253370   5.268   6.718  12.886  0.2081  0.0329  0.2340
10652TIP3    H153371   5.198   6.774  12.921 -0.0282  0.5841 -1.0451
10652TIP3    H253372   5.346   6.744  12.934 -0.3272 -0.0843  1.1840
10653TIP3   OH253373   2.578   1.297  12.688  0.3007  0.1697 -0.1723
10653TIP3    H153374   2.672   1.311  12.680  0.7303 -0.7701  2.4791
10653TIP3    H253375   2.566   1.204  12.668  0.3052 -0.2706  1.7346
10654TIP3   OH253376   4.595   5.863  13.617 -0.1382  0.2857  0.1559
10654TIP3    H153377   4.615   5.952  13.589  0.8227 -0.2629 -1.0004
10654TIP3    H253378   4.649   5.849  13.694  1.9935 -0.2495 -1.3528
10655TIP3   OH253379   5.588   3.653  13.880  0.5367 -0.6120  0.0592
10655TIP3    H153380   5.523   3.626  13.814  0.5408 -0.5405  0.0259
10655TIP3    H253381   5.614   3.572  13.922  0.1685 -0.6024  0.3082
10656TIP3   OH253382   2.475   6.441  15.357  0.0521  0.1116  0.4741
10656TIP3    H153383   2.476   6.509  15.425 -0.5817 -0.2465  0.8549
10656TIP3    H253384   2.382   6.429  15.337  0.3020  1.8588 -2.1666
10657TIP3   OH253385   5.697   0.027   2.127  0.4830 -0.2146 -0.4665
10657TIP3    H153386   5.758  -0.002   2.058  1.5109 -0.2417  0.4239
10657TIP3    H253387   5.718  -0.030   2.202  0.4756  0.8548  0.3628
10658TIP3   OH253388   2.669   5.456  13.763  0.2863  0.1538 -0.8360
10658TIP3    H153389   2.705   5.477  13.849 -1.7553  0.0189  0.0913
10658TIP3    H253390   2.670   5.540  13.716 -0.6601  0.7359  0.1284
10659TIP3   OH253391   1.640   0.428   1.223 -0.2552 -0.4615  0.1297
10659TIP3    H153392   1.650   0.359   1.289  0.5243  0.7951  1.3598
10659TIP3    H253393   1.588   0.386   1.154  0.3372 -2.3397  0.7464
10660TIP3   OH253394   3.111   3.071  13.585  0.1819  0.2090 -0.1946
10660TIP3    H153395   3.104   3.164  13.561 -0.8014  0.0799 -0.4321
10660TIP3    H253396   3.060   3.025  13.519  0.3799 -0.4764  0.1218
10661TIP3   OH253397   1.452   2.697  16.630 -0.2725 -0.0802 -0.0934
10661TIP3    H153398   1.453   2.791  16.612  2.4546  0.5649  2.5326
10661TIP3    H253399   1.504   2.659  16.560  1.0874  0.8403  0.3677
10662TIP3   OH253400   6.416   6.445   5.223 -0.2140  0.0484 -0.5686
10662TIP3    H153401   6.352   6.516   5.232 -0.8331  0.2839 -4.8108
10662TIP3    H253402   6.497   6.489   5.197  0.2541 -0.6391 -0.3144
10663TIP3   OH253403   6.390   3.119   2.070 -0.6822 -0.7830  0.2095
10663TIP3    H153404   6.306   3.077   2.088 -0.8498 -0.6011 -0.1403
10663TIP3    H253405   6.383   3.148   1.979 -0.9325  0.8454  0.7181
10664TIP3   OH253406   0.381   0.178  14.726  0.0372  0.2138  0.5257
10664TIP3    H153407   0.299   0.159  14.681  0.7976 -0.4522 -0.6272
10664TIP3    H253408   0.428   0.237  14.667 -0.6015  2.6541  2.2746
10665TIP3   OH253409   3.628   4.702   6.348  0.0846 -0.2002  0.7994
10665TIP3    H153410   3.574   4.637   6.304 -0.7105  0.6024  0.5681
10665TIP3    H253411   3.713   4.698   6.302 -0.4544  0.0154 -0.2563
10666TIP3   OH253412   5.986   4.452  15.741  0.1850  0.0234  0.0377
10666TIP3    H153413   5.973   4.366  15.700 -0.5824  0.2408 -0.2004
10666TIP3    H253414   5.931   4.449  15.819 -1.0352  0.8170 -0.7585
10667TIP3   OH253415   5.767   5.654   5.854  0.1772 -0.3518  0.7044
10667TIP3    H153416   5.679   5.635   5.821 -0.1029 -0.3337  1.4185
10667TIP3    H253417   5.752   5.698   5.937  0.8283  1.9659 -0.3313
10668TIP3   OH253418   6.603   5.913  15.539  0.3563 -0.5456 -0.0219
10668TIP3    H153419   6.598   5.921  15.634 -0.5430 -0.0943 -0.0947
10668TIP3    H253420   6.657   5.987  15.511  1.0011 -0.9367  0.1653
10669TIP3   OH253421   6.075   3.192  16.551 -0.2311 -0.6655 -0.1297
10669TIP3    H153422   6.111   3.241  16.626  1.1444  0.7647 -1.6494
10669TIP3    H253423   6.000   3.245  16.522 -1.9223 -2.1635  1.2718
10670TIP3   OH253424   5.239   0.228  14.202 -0.2072  0.1672 -0.0913
10670TIP3    H153425   5.262   0.231  14.295 -1.0710 -0.8663  0.1889
10670TIP3    H253426   5.146   0.252  14.200 -0.8135 -1.9937 -0.3825
10671TIP3   OH253427   2.672   5.909  16.131  0.1482  0.3077 -0.2498
10671TIP3    H153428   2.762   5.882  16.110  0.7536  1.0064  1.2977
10671TIP3    H253429   2.666   5.999  16.099  0.7536  1.0301  1.5518
10672TIP3   OH253430   3.834   0.177  15.729 -0.1021  0.1641 -0.2027
10672TIP3    H153431   3.751   0.167  15.775  1.3073 -0.6652  2.3596
10672TIP3    H253432   3.861   0.088  15.709  0.7373  0.3338  0.1188
10673TIP3   OH253433   3.662   3.890  14.595 -0.8898 -0.4210 -0.2033
10673TIP3    H153434   3.618   3.972  14.617 -0.3815  0.3382 -1.8407
10673TIP3    H253435   3.604   3.846  14.533  0.1747  0.1617 -1.6780
10674TIP3   OH253436   5.220   2.896   5.016 -0.6179 -0.0671  0.3164
10674TIP3    H153437   5.202   2.895   4.922 -0.9916  0.5800  0.3757
10674TIP3    H253438   5.271   2.816   5.032 -0.9777 -0.4338 -0.3468
10675TIP3   OH253439   0.918   0.475  13.788 -0.7910  0.0418  0.1391
10675TIP3    H153440   0.896   0.516  13.872 -0.8198  0.5268 -0.1040
10675TIP3    H253441   1.002   0.432  13.804 -2.7314 -3.6832  1.7378
10676TIP3   OH253442   1.547   1.791  17.076  0.1726  0.7683 -0.7667
10676TIP3    H153443   1.576   1.872  17.036 -1.1194  1.2055 -0.8705
10676TIP3    H253444   1.504   1.743  17.005  0.7540  0.0734 -0.6639
10677TIP3   OH253445   3.727   0.889  15.290  0.2747  0.5508  0.3626
10677TIP3    H153446   3.777   0.966  15.318  2.0567 -0.1266 -0.7673
10677TIP3    H253447   3.757   0.818  15.347  2.4376 -0.3721 -1.7258
10678TIP3   OH253448   3.319   6.403   5.115 -0.7685 -0.4481 -0.4788
10678TIP3    H153449   3.397   6.348   5.123 -1.5299 -1.4474  0.3129
10678TIP3    H253450   3.337   6.478   5.170 -0.8295 -1.2411  0.6524
10679TIP3   OH253451   5.659   0.649  16.728  0.1412 -0.0957  0.5941
10679TIP3    H153452   5.574   0.685  16.703 -1.2191 -1.8524  2.3414
10679TIP3    H253453   5.702   0.629  16.645 -1.7009 -0.3381 -0.3641
10680TIP3   OH253454   5.195   2.053  17.297 -0.2692 -0.7481  0.5518
10680TIP3    H153455   5.189   2.097  17.212 -1.0743 -2.5118 -0.3699
10680TIP3    H253456   5.287   2.028  17.304  0.0098  0.2675  0.6843
10681TIP3   OH253457   2.530   2.582  14.897  0.1818  0.2601  0.3189
10681TIP3    H153458   2.455   2.531  14.928 -1.6274  2.5607  0.0379
10681TIP3    H253459   2.523   2.580  14.802  0.7974  0.0865  0.2720
10682TIP3   OH253460   6.251   3.624  15.708 -0.5891 -0.2473  0.2976
10682TIP3    H153461   6.302   3.704  15.697  2.9893 -2.3503  0.2864
10682TIP3    H253462   6.169   3.654  15.749  0.9022  3.2801  1.0680
10683TIP3   OH253463   4.210   2.391   1.122  0.2143 -0.9186  0.0324
10683TIP3    H153464   4.230   2.300   1.100  2.9640 -0.2979 -0.4087
10683TIP3    H253465   4.152   2.385   1.198 -0.8327 -3.0190 -0.8388
10684TIP3   OH253466   4.102   2.869  16.948  0.1996  0.0072  0.4845
10684TIP3    H153467   4.057   2.798  16.902 -0.1629 -0.2477  1.2163
10684TIP3    H253468   4.182   2.828  16.982 -0.7349 -0.4966  2.2313
10685TIP3   OH253469   4.476   3.303   1.183 -0.0745  0.2193 -0.1427
10685TIP3    H153470   4.550   3.336   1.131  1.3329 -0.9061  1.0531
10685TIP3    H253471   4.406   3.290   1.120  0.7637  1.2285 -1.3382
10686TIP3   OH253472   5.362   0.069   4.591 -0.5600 -0.4927 -0.1673
10686TIP3    H153473   5.281   0.104   4.628 -2.0559 -1.0752 -2.7073
10686TIP3    H253474   5.335  -0.009   4.543  1.5789 -0.8741 -0.8556
10687TIP3   OH253475   1.299   2.485   5.109 -0.4805  0.3139 -0.2047
10687TIP3    H153476   1.221   2.526   5.146 -1.5201 -1.8403  0.1523
10687TIP3    H253477   1.341   2.442   5.183  0.5182  0.6226 -0.5768
10688TIP3   OH253478   5.988   2.026  14.951  0.0838 -0.5834  0.4558
10688TIP3    H153479   5.951   1.939  14.967  0.7922 -0.9833  0.0102
10688TIP3    H253480   6.083   2.012  14.955  0.2337 -0.0886 -0.8855
10689TIP3   OH253481   3.953   5.906  14.514 -0.1308  0.0261 -0.3366
10689TIP3    H153482   3.959   5.859  14.597  0.7734 -0.0274 -0.4228
10689TIP3    H253483   4.036   5.887  14.470 -0.4376  0.3786 -1.0769
10690TIP3   OH253484   1.851   2.980   1.885  0.3556  0.0417 -0.2340
10690TIP3    H153485   1.842   2.885   1.891 -0.9434 -0.1068 -3.2009
10690TIP3    H253486   1.762   3.014   1.896  0.7633  0.9312  0.4984
10691TIP3   OH253487   1.448   1.061  13.624 -0.1352 -0.1243  0.3190
10691TIP3    H153488   1.521   1.105  13.668  0.2426  0.4303 -0.8328
10691TIP3    H253489   1.401   1.016  13.695  1.7643 -1.1634  0.9852
10692TIP3   OH253490   4.295   3.165  16.873  0.0523 -0.6244  0.2113
10692TIP3    H153491   4.201   3.157  16.855 -0.2800 -0.1935  1.6314
10692TIP3    H253492   4.302   3.154  16.968  1.4015 -0.2944  0.1674
10693TIP3   OH253493   2.740   6.642   5.851  0.7613  0.1596 -0.3506
10693TIP3    H153494   2.685   6.651   5.774  0.8739  0.9223 -0.3583
10693TIP3    H253495   2.679   6.618   5.921  0.2359  1.8653 -0.1660
10694TIP3   OH253496   3.331   2.187  12.456  0.8480  0.0675 -0.0983
10694TIP3    H153497   3.285   2.254  12.407  0.3023  0.1014  0.4542
10694TIP3    H253498   3.299   2.196  12.546  1.5623 -0.2282  0.1980
10695TIP3   OH253499   0.794   5.021   3.974 -0.5654 -0.2542  0.5972
10695TIP3    H153500   0.857   5.000   3.904  0.2309  4.1179 -0.3172
10695TIP3    H253501   0.720   5.060   3.928 -1.4113 -0.1202  2.0397
10696TIP3   OH253502   6.623   0.788   2.050 -0.5006 -0.0566  0.4794
10696TIP3    H153503   6.527   0.784   2.053 -0.6026  1.7740  2.6435
10696TIP3    H253504   6.642   0.857   1.987 -0.6499  0.2230  0.7371
10697TIP3   OH253505   1.064   1.098   0.314 -0.4404  0.2636 -0.4629
10697TIP3    H153506   1.138   1.043   0.338 -0.0501  0.7147 -0.6273
10697TIP3    H253507   0.996   1.074   0.377 -0.0267  0.1357 -0.0580
10698TIP3   OH253508   4.652   1.541  16.073  0.2009 -0.1543 -0.1515
10698TIP3    H153509   4.621   1.599  16.004  1.0783 -1.6056 -1.8484
10698TIP3    H253510   4.745   1.561  16.082  0.2009 -0.3224  0.2560
10699TIP3   OH253511   5.297   4.696   0.863  0.2028 -0.0861 -0.5179
10699TIP3    H153512   5.313   4.632   0.793  2.5971  0.1613 -0.2573
10699TIP3    H253513   5.238   4.760   0.822  0.5944 -0.5775 -1.9295
10700TIP3   OH253514   0.295   1.021   3.659  0.8673 -0.6852  0.6038
10700TIP3    H153515   0.314   1.113   3.642  3.3786 -0.8392  2.0732
10700TIP3    H253516   0.380   0.977   3.653 -0.2609 -2.9206  0.0075
10701TIP3   OH253517   4.456   5.559   0.877  0.2377 -0.2783  0.5912
10701TIP3    H153518   4.391   5.498   0.844 -0.8371  1.1194  0.0102
10701TIP3    H253519   4.536   5.508   0.884 -0.5822 -1.6930 -0.0173
10702TIP3   OH253520   5.774   3.205   0.953 -0.5099 -0.3979  0.5480
10702TIP3    H153521   5.857   3.217   0.907 -0.4552 -1.9334  0.2070
10702TIP3    H253522   5.708   3.206   0.884 -0.5025 -1.9034  0.4956
10703TIP3   OH253523   0.104   3.571   0.266  0.3877  0.3425 -0.4720
10703TIP3    H153524   0.162   3.562   0.342  0.5766 -0.6451 -0.7148
10703TIP3    H253525   0.132   3.501   0.207 -1.4953 -0.6507 -0.2927
10704TIP3   OH253526   0.621   1.317   2.233 -0.1581  0.2818 -0.1431
10704TIP3    H153527   0.555   1.380   2.204 -1.3352 -0.2697  1.2386
10704TIP3    H253528   0.695   1.370   2.261 -1.1335  1.0915  0.9911
10705TIP3   OH253529   2.843   0.850  14.051  0.3850  0.4817 -0.0159
10705TIP3    H153530   2.797   0.918  14.101 -0.7173  0.1004 -0.4778
10705TIP3    H253531   2.785   0.775  14.055  0.8310  0.0855 -0.9010
10706TIP3   OH253532   0.943   1.277   0.508 -0.6340  0.2541 -0.1330
10706TIP3    H153533   0.888   1.204   0.535  0.0629 -0.4181 -0.5228
10706TIP3    H253534   0.975   1.314   0.590 -0.0320 -0.6257  0.0441
10707TIP3   OH253535   5.255   5.414   1.511  0.6496  0.2647  0.3963
10707TIP3    H153536   5.346   5.413   1.480  0.4577  0.5859 -0.1927
10707TIP3    H253537   5.226   5.504   1.497  0.9954  0.8491  2.8738
10708TIP3   OH253538   5.219   2.131   1.914  0.2040 -0.2576 -0.4657
10708TIP3    H153539   5.213   2.180   1.832  0.1937 -0.1620 -0.4085
10708TIP3    H253540   5.256   2.046   1.889  0.3555 -0.1689 -0.5450
10709TIP3   OH253541   2.280   3.371   4.024 -0.1417  0.5364 -0.1802
10709TIP3    H153542   2.253   3.325   3.945 -0.4926 -0.1337  0.3162
10709TIP3    H253543   2.222   3.338   4.093 -0.6271  1.9826  0.1345
10710TIP3   OH253544   6.415   5.334   2.341  0.3269  0.3264 -0.1625
10710TIP3    H153545   6.330   5.379   2.344  0.1787  0.6273 -4.0301
10710TIP3    H253546   6.473   5.395   2.297  1.7679 -1.0083 -0.2065
10711TIP3   OH253547   1.734   3.588   1.251 -0.0704  0.0821  0.0439
10711TIP3    H153548   1.762   3.534   1.325 -1.6935 -1.5237 -0.4375
10711TIP3    H253549   1.669   3.648   1.288  3.0001  3.1481  0.9612
10712TIP3   OH253550   0.898   6.296  13.082  0.1406 -0.1746  0.2535
10712TIP3    H153551   0.905   6.385  13.047 -0.0008 -0.1773  0.2172
10712TIP3    H253552   0.826   6.257  13.033  2.4278 -1.4942 -2.3154
10713TIP3   OH253553   1.627   3.829   4.670  0.8058 -0.7818  0.7350
10713TIP3    H153554   1.664   3.808   4.584  1.8101  0.8648  0.7160
10713TIP3    H253555   1.558   3.764   4.683 -1.2070  0.4523 -2.5032
10714TIP3   OH253556   4.588   1.330   2.580  0.8011 -0.6794 -0.5545
10714TIP3    H153557   4.568   1.265   2.648  1.0552 -0.4169 -0.2279
10714TIP3    H253558   4.514   1.324   2.519  0.7518 -1.1723 -0.4515
10715TIP3   OH253559   3.648   0.356   0.976 -0.0126 -0.6870  0.4691
10715TIP3    H153560   3.697   0.389   1.052  1.0230 -0.6546 -0.1838
10715TIP3    H253561   3.641   0.432   0.918 -0.9904 -0.6566  0.6180
10716TIP3   OH253562   1.335   5.670   3.157  0.3268 -0.1587  0.2622
10716TIP3    H153563   1.366   5.625   3.078 -1.7043 -2.0852  0.4860
10716TIP3    H253564   1.415   5.697   3.202  1.7115 -3.3588 -0.0271
10717TIP3   OH253565   2.641   5.097  15.368 -0.0829 -0.2654  0.2162
10717TIP3    H153566   2.595   5.158  15.310 -0.8089 -0.2198  0.8381
10717TIP3    H253567   2.722   5.077  15.320  0.4850  1.6665  0.2655
10718TIP3   OH253568   0.599   3.216   1.622 -0.1068  1.0490  0.3901
10718TIP3    H153569   0.588   3.126   1.590  0.1654  0.4598  1.8682
10718TIP3    H253570   0.662   3.256   1.562 -3.3143  1.6887 -2.9163
10719TIP3   OH253571   3.293   3.266   0.741 -0.3348  0.2136  0.1008
10719TIP3    H153572   3.244   3.280   0.660  0.3865  1.9894 -0.0828
10719TIP3    H253573   3.230   3.226   0.801 -0.7672 -1.5627 -1.4313
10720TIP3   OH253574   5.898   0.363   2.318  0.4620 -0.2530 -0.3217
10720TIP3    H153575   5.810   0.377   2.354  0.6391  1.2622 -0.4198
10720TIP3    H253576   5.955   0.364   2.395  0.3434 -2.0362 -0.1717
10721TIP3   OH253577   3.904   1.314   3.086  0.3158 -0.1758 -0.7204
10721TIP3    H153578   3.868   1.392   3.129 -1.2440  0.4388 -2.9788
10721TIP3    H253579   3.999   1.321   3.100 -0.0181  0.4235  1.7621
10722TIP3   OH253580   3.952   4.498  14.280  0.0994 -0.3592  0.3814
10722TIP3    H153581   4.014   4.505  14.208  1.5490 -1.4019  1.4534
10722TIP3    H253582   3.867   4.486  14.237  0.7373  0.2640 -1.1326
10723TIP3   OH253583   0.247   5.339  16.379  0.2066 -0.4856  0.0454
10723TIP3    H153584   0.319   5.336  16.315 -0.4092  0.2941 -0.7161
10723TIP3    H253585   0.176   5.383  16.332  0.0125  0.8741  1.5427
10724TIP3   OH253586   2.457   1.738  11.480 -0.2076  0.0325 -0.5075
10724TIP3    H153587   2.455   1.668  11.545 -1.0953 -0.3549 -0.9372
10724TIP3    H253588   2.367   1.771  11.478  0.4518  2.0998  0.6427
10725TIP3   OH253589   4.721   0.419   5.036 -0.1614 -0.0682 -0.0082
10725TIP3    H153590   4.646   0.370   5.070 -1.7080  1.4050 -1.1571
10725TIP3    H253591   4.730   0.493   5.096 -0.1957  0.2564 -0.4049
10726TIP3   OH253592   5.629   1.315  15.156  0.0636  0.2781 -0.1496
10726TIP3    H153593   5.605   1.223  15.145  1.1768  0.0521 -0.9304
10726TIP3    H253594   5.601   1.356  15.074  0.1079  0.5104 -0.0470
10727TIP3   OH253595   1.284   2.961  16.065  0.8288  0.1268  0.0252
10727TIP3    H153596   1.289   2.916  15.980  1.9928  1.0028 -0.3950
10727TIP3    H253597   1.258   2.892  16.127  0.4956 -0.6426 -0.9418
10728TIP3   OH253598   4.379   5.973   1.823 -0.7836  0.1438 -0.2092
10728TIP3    H153599   4.289   5.976   1.790 -0.3510 -0.4624 -1.5229
10728TIP3    H253600   4.430   5.940   1.749  0.1144 -2.1987  1.3597
10729TIP3   OH253601   4.097   1.275   3.736  0.6506 -0.1221 -0.1772
10729TIP3    H153602   4.020   1.332   3.739  0.4875 -0.1440 -2.3455
10729TIP3    H253603   4.063   1.190   3.706  1.3210 -0.5420  0.2237
10730TIP3   OH253604   0.976   0.439   0.499  0.2306 -0.1226 -0.4547
10730TIP3    H153605   0.909   0.464   0.436  0.9073  0.9047 -0.7943
10730TIP3    H253606   0.945   0.476   0.582  0.8061  1.2077 -0.7918
10731TIP3   OH253607   1.127   5.753  11.311  0.6698  0.0313  0.2782
10731TIP3    H153608   1.210   5.707  11.302  0.2866 -0.8520  1.0523
10731TIP3    H253609   1.095   5.763  11.222  0.3778 -1.9514  0.1222
10732TIP3   OH253610   2.123   5.665  12.813 -0.3713 -0.0732 -0.0644
10732TIP3    H153611   2.155   5.655  12.902  0.6354  2.2190 -0.1108
10732TIP3    H253612   2.028   5.666  12.821 -0.3479 -1.5112  0.7385
10733TIP3   OH253613   4.465   4.600  16.080  0.0638 -0.1662 -0.7073
10733TIP3    H153614   4.500   4.688  16.072 -1.1863  0.4303  0.0246
10733TIP3    H253615   4.396   4.595  16.014  1.7460 -1.5116 -2.5097
10734TIP3   OH253616   6.726   2.991   4.859 -0.7266  0.2162 -0.0151
10734TIP3    H153617   6.648   3.038   4.829  0.4017  1.1819 -1.5749
10734TIP3    H253618   6.702   2.898   4.851 -0.8589  0.4155 -3.1329
10735TIP3   OH253619   4.513   1.033   6.446  0.3640 -0.1316 -0.1386
10735TIP3    H153620   4.497   1.125   6.466  1.6525 -0.0059  0.4180
10735TIP3    H253621   4.426   0.992   6.450  0.0952  0.4926  2.5658
10736TIP3   OH253622   5.882   5.597  12.490 -0.3639  0.0602  0.1025
10736TIP3    H153623   5.913   5.640  12.570  0.3615  0.0742 -0.1811
10736TIP3    H253624   5.788   5.616  12.488 -0.5180 -0.5276  1.3055
10737TIP3   OH253625   4.585   6.507  16.956  0.7361  0.4204  0.1567
10737TIP3    H153626   4.677   6.529  16.971  0.8673 -0.5728  0.8624
10737TIP3    H253627   4.541   6.531  17.037  0.3790  0.8306 -0.1557
10738TIP3   OH253628   6.213   3.449  13.012 -0.1746  0.3523 -0.2311
10738TIP3    H153629   6.184   3.538  12.993 -1.4689 -0.1584 -0.7831
10738TIP3    H253630   6.279   3.459  13.081 -0.3013  1.7279 -0.2918
10739TIP3   OH253631   6.613   6.461  14.828  0.4764  0.5549  0.0596
10739TIP3    H153632   6.681   6.409  14.871  0.6006  0.9958  0.4034
10739TIP3    H253633   6.582   6.521  14.896  0.6744  1.2555 -0.4550
10740TIP3   OH253634   4.118   1.404   2.048  0.5867  0.4653 -0.0189
10740TIP3    H153635   4.067   1.479   2.017  1.5179  1.1015 -0.0451
10740TIP3    H253636   4.138   1.355   1.968 -0.8109 -0.3418  0.0951
10741TIP3   OH253637   1.475   4.694   4.774 -0.1419 -0.5064 -0.4517
10741TIP3    H153638   1.509   4.726   4.858  0.5283 -0.3047 -0.7970
10741TIP3    H253639   1.411   4.627   4.799  0.7983 -1.1753  0.2045
10742TIP3   OH253640   3.465   0.997  16.693 -0.4326 -0.0079  0.6583
10742TIP3    H153641   3.507   0.913  16.714 -0.2885 -0.1017  0.0218
10742TIP3    H253642   3.418   0.980  16.612 -0.8091  0.3983  0.7907
10743TIP3   OH253643   0.494   3.204   3.758 -0.6266  0.1710 -0.8593
10743TIP3    H153644   0.463   3.127   3.807  0.7684 -0.6281 -1.1618
10743TIP3    H253645   0.459   3.279   3.806  0.1229 -0.6010  0.9907
10744TIP3   OH253646   5.488   5.221  10.861 -0.4577  0.1054  0.0034
10744TIP3    H153647   5.523   5.164  10.929  2.6382  0.8799 -0.7717
10744TIP3    H253648   5.415   5.266  10.902  0.7916 -0.0400  2.5627
10745TIP3   OH253649   6.370   1.411   1.343 -0.4152  0.5339  0.4091
10745TIP3    H153650   6.412   1.385   1.261 -0.9983  2.8275 -0.6976
10745TIP3    H253651   6.436   1.393   1.410  0.0953 -1.3343 -0.5249
10746TIP3   OH253652   1.905   0.442   2.309  0.3448  0.2536  0.0830
10746TIP3    H153653   1.999   0.431   2.318  0.5156  0.0151 -1.6439
10746TIP3    H253654   1.878   0.369   2.252 -0.8318  0.5014  0.2935
10747TIP3   OH253655   2.774   4.959  13.559  0.1043  0.0114 -0.5205
10747TIP3    H153656   2.869   4.969  13.552 -0.0161  0.9406 -0.8922
10747TIP3    H253657   2.762   4.872  13.598  1.1037 -0.1066 -0.4583
10748TIP3   OH253658   3.319   5.884   5.243  0.4750  0.0121 -0.1442
10748TIP3    H153659   3.359   5.806   5.203 -0.3598  0.0952 -1.2169
10748TIP3    H253660   3.236   5.893   5.196  0.1499  1.0179  0.6147
10749TIP3   OH253661   2.807   4.276   5.940  0.1303  0.1968 -0.5925
10749TIP3    H153662   2.810   4.353   5.996  1.3933  0.0194 -0.3775
10749TIP3    H253663   2.881   4.222   5.970  1.1951  0.3475 -2.7799
10750TIP3   OH253664   0.809   2.167   6.486  0.5618 -0.5596 -0.0888
10750TIP3    H153665   0.728   2.218   6.490 -0.4679 -2.1386  0.1335
10750TIP3    H253666   0.864   2.213   6.423 -0.0848  1.1165  0.5113
10751TIP3   OH253667   2.081   5.841   4.678  0.1593 -0.3850  0.1583
10751TIP3    H153668   2.074   5.905   4.607 -0.5977 -1.0028 -0.3493
10751TIP3    H253669   2.175   5.826   4.688  0.2617 -1.6623 -2.0235
10752TIP3   OH253670   5.726   5.013  16.887 -0.1674 -0.6496  0.0442
10752TIP3    H153671   5.709   5.073  16.960 -0.8248 -0.4318 -0.2795
10752TIP3    H253672   5.815   4.982  16.902  0.0300  0.0877  0.4426
10753TIP3   OH253673   2.455   4.009   2.600  0.1633 -0.0131 -0.3185
10753TIP3    H153674   2.474   4.097   2.567  2.6511 -0.0836  0.7095
10753TIP3    H253675   2.483   3.950   2.530  0.7165 -0.0260 -0.0934
10754TIP3   OH253676   5.053   0.316   2.344 -0.0654 -0.7375 -0.1346
10754TIP3    H153677   5.103   0.389   2.382 -2.5369 -0.4041  2.8402
10754TIP3    H253678   5.025   0.348   2.258  1.6745  0.4612 -0.3018
10755TIP3   OH253679   3.722   0.467   3.979  0.1378 -0.0679  0.0199
10755TIP3    H153680   3.788   0.465   4.049 -0.2275 -1.6260  0.3512
10755TIP3    H253681   3.738   0.550   3.934  2.1243 -0.2361  0.2985
10756TIP3   OH253682   3.259   4.981   1.095 -0.4412  0.2489  0.3037
10756TIP3    H153683   3.313   4.927   1.037 -0.6887  0.8391 -0.4965
10756TIP3    H253684   3.198   5.025   1.036  0.9043  2.7739  0.6773
10757TIP3   OH253685   2.482   3.002  12.445 -0.3823  0.2400 -0.0085
10757TIP3    H153686   2.393   3.018  12.413 -0.3909  0.6832  0.2326
10757TIP3    H253687   2.475   3.010  12.540 -0.6092 -2.2321  0.2564
10758TIP3   OH253688   3.542   6.549   5.284 -0.4174 -0.0559  0.3851
10758TIP3    H153689   3.607   6.568   5.351 -0.3449 -0.0954  0.3259
10758TIP3    H253690   3.589   6.559   5.201 -0.0787 -1.5476  0.3650
10759TIP3   OH253691   1.558   2.304  11.194  0.3130  0.6889 -0.1649
10759TIP3    H153692   1.577   2.212  11.176  0.9645  1.0108 -1.2381
10759TIP3    H253693   1.474   2.320  11.152  0.3791  0.6682 -0.3079
10760TIP3   OH253694   2.580   3.745  14.795  0.1681 -0.1300 -0.5407
10760TIP3    H153695   2.508   3.707  14.744 -2.2510  2.5825  0.6108
10760TIP3    H253696   2.627   3.669  14.830 -1.9896 -2.0180 -1.4773
10761TIP3   OH253697   0.268   4.888   5.743  0.1552  0.3928 -0.0687
10761TIP3    H153698   0.173   4.887   5.754  0.1049  1.5059 -0.2867
10761TIP3    H253699   0.299   4.955   5.804  0.9989 -1.1467  1.2610
10762TIP3   OH253700   0.833   3.592  12.864 -0.1373  0.2682 -0.3791
10762TIP3    H153701   0.897   3.529  12.832  1.1152  1.1145  0.3567
10762TIP3    H253702   0.753   3.541  12.876 -0.0392 -0.5452 -2.6282
10763TIP3   OH253703   1.582   6.487   3.943 -0.5838 -0.6139  0.2536
10763TIP3    H153704   1.537   6.476   3.860  1.2713 -1.2489 -0.7232
10763TIP3    H253705   1.613   6.577   3.942 -2.2790  0.0146  1.1963
10764TIP3   OH253706   4.248   0.954  13.554 -0.3464  0.2779  0.1043
10764TIP3    H153707   4.291   0.883  13.507 -2.1602 -0.3433 -0.6981
10764TIP3    H253708   4.208   0.913  13.630  0.6891  0.8989  1.0086
10765TIP3   OH253709   2.384   1.112  16.210 -0.3854  0.1010 -0.2583
10765TIP3    H153710   2.392   1.130  16.117 -1.7044  0.3060 -0.3600
10765TIP3    H253711   2.408   1.194  16.253  1.1257 -0.2695 -0.3581
10766TIP3   OH253712   3.813   3.268  16.662  0.0628 -0.1634  0.2451
10766TIP3    H153713   3.758   3.191  16.676 -0.0483  0.0229  0.8481
10766TIP3    H253714   3.767   3.319  16.596  0.2683 -0.7407 -0.3505
10767TIP3   OH253715   1.245   4.097  15.268 -0.2637  0.7922 -0.1978
10767TIP3    H153716   1.213   4.182  15.237 -1.5503  0.5244  0.3147
10767TIP3    H253717   1.211   4.034  15.204  2.7473  0.8081 -2.0109
10768TIP3   OH253718   0.669   6.463  13.726  0.1157 -0.2482  0.0185
10768TIP3    H153719   0.636   6.443  13.638  1.1834 -1.0169 -0.2155
10768TIP3    H253720   0.666   6.379  13.772 -1.3070  0.3114  1.0421
10769TIP3   OH253721   2.882   1.269  14.480  0.5150  0.2436  0.8566
10769TIP3    H153722   2.914   1.356  14.506 -2.8848  1.7154  0.5620
10769TIP3    H253723   2.840   1.235  14.559  0.1888 -0.3029  0.4497
10770TIP3   OH253724   2.252   6.238  15.130 -0.3238 -0.3056  0.3689
10770TIP3    H153725   2.205   6.173  15.079 -1.4561  0.8133 -0.0710
10770TIP3    H253726   2.246   6.319  15.079  2.0523 -0.0751  0.3254
10771TIP3   OH253727   1.766   5.232   5.269  0.1953 -0.0210 -0.3182
10771TIP3    H153728   1.756   5.244   5.175 -0.0029  0.5875 -0.2203
10771TIP3    H253729   1.699   5.288   5.308  0.9954  0.5837  0.2189
10772TIP3   OH253730   2.465   5.525   5.352 -0.3373 -0.0715  0.1074
10772TIP3    H153731   2.513   5.508   5.271 -1.5314  1.4519 -0.9768
10772TIP3    H253732   2.459   5.440   5.395  2.8040 -0.4440  0.0482
10773TIP3   OH253733   4.858   2.027  13.784 -0.3744  0.2219 -0.0369
10773TIP3    H153734   4.814   2.112  13.786 -0.4984  0.1826  2.7793
10773TIP3    H253735   4.791   1.966  13.752 -1.1648  0.7598  0.5449
10774TIP3   OH253736   1.010   6.060   5.683 -0.0609 -0.1809  0.1707
10774TIP3    H153737   0.950   5.986   5.690 -1.8589  1.1900 -0.0393
10774TIP3    H253738   1.040   6.058   5.592 -0.4290 -0.4029  0.0555
10775TIP3   OH253739   5.578   3.565   5.367  0.3677  0.2371 -0.0711
10775TIP3    H153740   5.619   3.525   5.444  2.0470  0.7109 -0.6721
10775TIP3    H253741   5.629   3.645   5.352  0.0586  0.1666 -1.6642
10776TIP3   OH253742   3.314   4.005   5.810  0.7069  0.3632 -0.0316
10776TIP3    H153743   3.394   3.970   5.848  0.0903 -0.2766  0.7049
10776TIP3    H253744   3.244   3.975   5.868 -0.1126  0.5764 -0.8791
10777TIP3   OH253745   3.006   0.695  15.494 -0.2820 -0.2507 -0.0313
10777TIP3    H153746   3.078   0.633  15.481  0.6203  0.4967  1.1591
10777TIP3    H253747   2.986   0.727  15.406  1.1997 -0.0913 -0.3293
10778TIP3   OH253748   6.024   2.264   0.604 -0.1060 -0.8774 -0.2187
10778TIP3    H153749   5.952   2.245   0.544  0.9658 -1.8477 -1.2560
10778TIP3    H253750   6.001   2.220   0.685 -1.0845 -0.4323 -0.2474
10779TIP3   OH253751   6.696   2.190   4.592 -0.2074  0.3028  0.1428
10779TIP3    H153752   6.742   2.128   4.648  1.5489  0.8508 -0.6081
10779TIP3    H253753   6.604   2.164   4.598  0.2994 -1.5085  0.9021
10780TIP3   OH253754   2.417   5.119   0.006 -0.4318 -0.2543  0.1753
10780TIP3    H153755   2.394   5.029  -0.020 -0.7435  0.1877 -1.1910
10780TIP3    H253756   2.333   5.165   0.007 -0.2455  0.0753  0.6322
10781TIP3   OH253757   2.868   6.207  11.449 -0.1231  0.1390 -0.2299
10781TIP3    H153758   2.832   6.120  11.433 -1.3785  0.5309  0.2941
10781TIP3    H253759   2.907   6.233  11.366 -1.8691  0.0456 -1.1282
10782TIP3   OH253760   0.775   4.480  15.646  0.0492  0.3485  0.8536
10782TIP3    H153761   0.734   4.400  15.679  1.7962 -0.3028  1.5669
10782TIP3    H253762   0.769   4.542  15.719  1.2359 -0.1077  1.3697
10783TIP3   OH253763   4.983   2.430   1.683 -0.0426  0.2248 -0.7913
10783TIP3    H153764   4.937   2.437   1.766  0.8335 -0.7951 -0.1965
10783TIP3    H253765   5.035   2.350   1.690  1.4143  1.0396 -1.6240
10784TIP3   OH253766   0.965   6.445   0.261  0.7877 -0.6174  0.0334
10784TIP3    H153767   0.976   6.366   0.315 -0.4838 -0.2771  0.8372
10784TIP3    H253768   0.882   6.432   0.216  0.4912  0.3249  0.2948
10785TIP3   OH253769   4.156   4.248  14.432 -0.7231  0.0190  0.3521
10785TIP3    H153770   4.187   4.192  14.503 -2.0608 -0.7208  0.3817
10785TIP3    H253771   4.062   4.257  14.448 -1.0342 -0.0632 -1.2568
10786TIP3   OH253772   0.002   3.294  14.959  0.3324 -0.1117 -0.6286
10786TIP3    H153773   0.073   3.271  15.020  0.0233 -0.8363 -0.5201
10786TIP3    H253774  -0.046   3.364  15.003 -0.8065 -1.6556  0.7141
10787TIP3   OH253775   6.195   1.442   0.954 -0.3699 -0.0961  1.4430
10787TIP3    H153776   6.187   1.461   1.048 -1.4940  1.2471  1.1135
10787TIP3    H253777   6.159   1.520   0.911 -1.4055 -1.3546 -0.0855
10788TIP3   OH253778   4.685   5.725  16.832 -0.4256 -0.2534 -0.0543
10788TIP3    H153779   4.651   5.636  16.829 -0.6324 -0.2375  1.3725
10788TIP3    H253780   4.607   5.781  16.831 -0.2962 -0.0612 -1.0107
10789TIP3   OH253781   5.611   4.341   0.062  0.0629 -0.5152  0.2147
10789TIP3    H153782   5.575   4.306   0.143  0.3849 -1.2907  0.0292
10789TIP3    H253783   5.606   4.268  -0.000  0.1108 -0.0242 -0.3743
10790TIP3   OH253784   0.258   4.433  14.746  0.4450 -0.4437 -0.2788
10790TIP3    H153785   0.165   4.452  14.732  0.3033 -0.1050  0.9834
10790TIP3    H253786   0.266   4.339  14.728 -0.9434 -1.3569  3.0500
10791TIP3   OH253787   6.441   2.717  15.309 -0.0720 -0.0804 -0.0725
10791TIP3    H153788   6.499   2.728  15.384  0.4606 -1.7219 -0.2039
10791TIP3    H253789   6.432   2.805  15.272 -0.4640  0.7886  1.9824
10792TIP3   OH253790   1.280   0.759  10.339 -0.0944 -0.2024 -0.5983
10792TIP3    H153791   1.238   0.720  10.416 -2.0744  1.8156 -0.5494
10792TIP3    H253792   1.368   0.784  10.370  0.3268 -2.2752  0.0313
10793TIP3   OH253793   4.913   3.208  11.051 -0.1673 -0.7399  0.2864
10793TIP3    H153794   4.975   3.281  11.051  1.0884 -1.7637  0.3059
10793TIP3    H253795   4.950   3.145  11.112 -1.3882 -1.2797  0.5064
10794TIP3   OH253796   1.722   2.225  11.802  0.1101  0.5780 -0.5313
10794TIP3    H153797   1.727   2.298  11.864 -0.4550 -0.1809  0.4538
10794TIP3    H253798   1.644   2.176  11.830 -0.3020  0.3429 -2.0080
10795TIP3   OH253799   6.233   2.588  12.826  0.7768  0.0163  0.2962
10795TIP3    H153800   6.277   2.602  12.743  1.1277  0.2479  0.5184
10795TIP3    H253801   6.140   2.595  12.805  0.8629  0.1026 -0.0680
10796TIP3   OH253802   3.444   2.688  14.169  0.6805  0.2018  0.2414
10796TIP3    H153803   3.458   2.728  14.255  1.5683  0.7454 -0.1434
10796TIP3    H253804   3.358   2.718  14.142 -0.8786 -2.1613  2.1072
10797TIP3   OH253805   0.192   0.880  14.859 -0.3818  0.3673  0.2703
10797TIP3    H153806   0.267   0.908  14.910 -0.5373 -1.5057  1.6300
10797TIP3    H253807   0.116   0.916  14.905 -0.4628 -0.4288  0.7816
10798TIP3   OH253808   1.463   5.200   2.008 -0.1139  0.3821 -0.4346
10798TIP3    H153809   1.496   5.287   1.987 -2.4533  1.4692  0.0685
10798TIP3    H253810   1.495   5.183   2.097  1.6294 -0.0039 -1.0869
10799TIP3   OH253811   4.055   6.697  13.148 -0.1147 -0.5623  0.0929
10799TIP3    H153812   3.990   6.672  13.213 -0.2130 -2.7515 -0.7584
10799TIP3    H253813   4.139   6.680  13.190 -0.1362 -0.1709  0.2977
10800TIP3   OH253814   2.067   4.658   1.449  0.1651 -0.2815  0.1083
10800TIP3    H153815   2.026   4.737   1.413 -0.2266 -1.0731 -1.2762
10800TIP3    H253816   2.129   4.631   1.381  0.6218 -0.9090  0.7662
10801TIP3   OH253817   4.292   0.136   5.998 -0.6618 -0.1502 -0.0311
10801TIP3    H153818   4.348   0.138   5.920  0.5247 -1.8842  0.7123
10801TIP3    H253819   4.346   0.096   6.066 -2.8908 -2.3738  0.6066
10802TIP3   OH253820   0.141   3.224  12.427 -0.2155 -0.1675 -0.0162
10802TIP3    H153821   0.162   3.197  12.516  4.0043 -2.3400 -1.4194
10802TIP3    H253822   0.121   3.143  12.381 -0.7814  0.7172 -1.3988
10803TIP3   OH253823   6.725   1.773  15.717  0.2506  0.6313 -0.0504
10803TIP3    H153824   6.815   1.808  15.714  0.3132  0.6297  1.2139
10803TIP3    H253825   6.718   1.718  15.639  0.2842  3.1161 -1.9484
10804TIP3   OH253826   3.469   4.493  12.167 -0.1071 -0.7165  0.3547
10804TIP3    H153827   3.415   4.448  12.101 -2.0413  0.0597  1.3220
10804TIP3    H253828   3.488   4.426  12.232 -0.8893 -0.7545  0.5593
10805TIP3   OH253829   3.186   3.469   3.152  0.4685  0.0019 -0.1834
10805TIP3    H153830   3.171   3.555   3.189 -1.2969  0.3412 -1.5326
10805TIP3    H253831   3.274   3.473   3.114  1.7385  0.0945  2.5272
10806TIP3   OH253832   0.786   2.084  12.575 -0.2726  0.5776 -0.2450
10806TIP3    H153833   0.723   2.012  12.575  1.1678 -0.7450  0.5058
10806TIP3    H253834   0.813   2.093  12.484 -0.8894  0.5612 -0.4332
10807TIP3   OH253835   6.283   6.238   1.782  0.3775 -0.6783  0.9854
10807TIP3    H153836   6.306   6.147   1.797  0.3361 -0.7955  0.3665
10807TIP3    H253837   6.358   6.274   1.734  0.4955 -0.3254  1.4253
10808TIP3   OH253838   6.206   4.142   3.217  0.0582  0.1160 -0.0180
10808TIP3    H153839   6.182   4.231   3.241 -0.7210  0.2733 -1.3490
10808TIP3    H253840   6.156   4.087   3.278  1.0025  0.5604  1.2186
10809TIP3   OH253841   1.021   6.462  15.279  0.2239 -0.5600  0.0937
10809TIP3    H153842   1.079   6.526  15.319 -1.7714  1.5059 -0.1426
10809TIP3    H253843   0.969   6.427  15.352  1.3859 -2.1003  0.2444
10810TIP3   OH253844   4.529   1.734   5.417 -0.1924 -0.1819  0.2838
10810TIP3    H153845   4.587   1.660   5.431 -0.9238 -0.8882 -0.3482
10810TIP3    H253846   4.441   1.698   5.425 -0.6025  0.1823 -2.0379
10811TIP3   OH253847   6.231   2.041  15.126 -0.3059  0.0910  0.0961
10811TIP3    H153848   6.277   2.068  15.047 -2.6251 -0.2201 -1.4613
10811TIP3    H253849   6.294   2.055  15.197  1.2900  1.9509 -1.5747
10812TIP3   OH253850   5.408   5.599   3.206 -0.4291  0.0981  0.7400
10812TIP3    H153851   5.422   5.684   3.164 -1.0084  0.1914  0.7334
10812TIP3    H253852   5.428   5.534   3.138  1.0425  0.1936  1.0409
10813TIP3   OH253853   3.800   0.614  10.612  0.2464  0.1529 -0.1412
10813TIP3    H153854   3.763   0.593  10.698  0.5514  1.7213  0.4158
10813TIP3    H253855   3.726   0.646  10.561  0.0083 -1.0540 -0.5925
10814TIP3   OH253856   4.557   1.744  17.262 -0.5432 -0.3195 -0.3664
10814TIP3    H153857   4.620   1.749  17.333 -0.2877  0.4469 -0.6353
10814TIP3    H253858   4.591   1.675  17.205 -0.1515 -0.1734 -0.3128
10815TIP3   OH253859   2.569   2.328   2.824 -0.2591  0.4127  0.3208
10815TIP3    H153860   2.643   2.271   2.804 -0.5470 -0.2472  1.0885
10815TIP3    H253861   2.546   2.308   2.914 -1.0426  0.9911  0.2671
10816TIP3   OH253862   4.448   3.216   2.007 -0.1833  0.2871 -0.5015
10816TIP3    H153863   4.452   3.301   2.050 -0.9536 -0.4808  1.2081
10816TIP3    H253864   4.537   3.182   2.012 -0.1995  0.3351  0.2942
10817TIP3   OH253865   3.698   3.309   1.978 -0.0630 -0.6138 -0.4118
10817TIP3    H153866   3.682   3.389   1.929 -2.0564 -0.8583 -0.2667
10817TIP3    H253867   3.770   3.330   2.037 -1.9477  1.8645  1.2137
10818TIP3   OH253868   0.945   2.706  13.381 -0.2433 -0.1805 -0.0579
10818TIP3    H153869   1.016   2.671  13.435 -0.7186  1.4768  1.7489
10818TIP3    H253870   0.982   2.785  13.342 -0.3882 -0.5678 -1.0097
10819TIP3   OH253871   1.265   4.484   0.531  0.1242  0.3756 -0.0339
10819TIP3    H153872   1.325   4.529   0.590 -1.3009  0.5242  1.3715
10819TIP3    H253873   1.188   4.540   0.528  0.1792  0.3954 -2.1295
10820TIP3   OH253874   5.859   6.738   2.624  0.0677  0.2066 -0.0899
10820TIP3    H153875   5.866   6.816   2.678  1.9561 -0.7325  1.1526
10820TIP3    H253876   5.891   6.765   2.538  1.9788  0.5400  0.6801
10821TIP3   OH253877   5.149   3.905   6.145  0.2633 -0.4361 -0.1749
10821TIP3    H153878   5.096   3.850   6.202 -1.1864 -0.2915 -1.3159
10821TIP3    H253879   5.194   3.844   6.086 -0.5683 -0.4704 -0.7917
10822TIP3   OH253880   4.887   3.302   3.750  0.5831  0.1673 -0.3048
10822TIP3    H153881   4.857   3.323   3.662  0.8802 -0.2893 -0.5137
10822TIP3    H253882   4.876   3.384   3.799 -1.5401 -0.1162 -0.2073
10823TIP3   OH253883   1.120   6.706   2.376  0.2609 -0.0315 -0.4740
10823TIP3    H153884   1.175   6.653   2.433 -1.2217  0.6544  1.7426
10823TIP3    H253885   1.160   6.792   2.376 -0.1248  0.1520  0.1374
10824TIP3   OH253886   5.270   5.600  15.778 -0.1930 -0.3621  0.6321
10824TIP3    H153887   5.245   5.691  15.788  1.3677  0.0533  0.9841
10824TIP3    H253888   5.243   5.558  15.860  2.3857  0.6069  2.0613
10825TIP3   OH253889   5.345   1.118  13.132  0.7220 -0.1078  0.2761
10825TIP3    H153890   5.362   1.202  13.090 -0.8459 -1.4117 -3.2976
10825TIP3    H253891   5.407   1.058  13.091 -1.0249 -1.4925 -0.4601
10826TIP3   OH253892   6.400   1.854  16.888  0.2365  0.0804 -0.6843
10826TIP3    H153893   6.428   1.894  16.971 -0.8751 -1.5477  0.5272
10826TIP3    H253894   6.479   1.854  16.834  1.0543  0.9290  0.4528
10827TIP3   OH253895   4.060   0.840   5.172  0.4421 -0.1707 -0.0873
10827TIP3    H153896   4.116   0.914   5.196 -0.8245  1.3799 -1.6973
10827TIP3    H253897   4.097   0.807   5.090  1.5633 -2.0177  1.0820
10828TIP3   OH253898   5.566   2.853  12.857 -0.8711  0.5496  0.0073
10828TIP3    H153899   5.648   2.903  12.858 -1.1671  1.0657  0.9293
10828TIP3    H253900   5.539   2.851  12.949 -0.0175 -2.8081  0.2991
10829TIP3   OH253901   3.735   4.894  14.983  0.2207 -0.2371 -0.6706
10829TIP3    H153902   3.828   4.897  15.005  0.0969  0.4614 -0.1824
10829TIP3    H253903   3.732   4.866  14.892  1.0010  1.1863 -1.1592
10830TIP3   OH253904   0.188   2.833   6.175 -0.4298  0.3203 -0.7620
10830TIP3    H153905   0.152   2.890   6.242  0.6805 -0.2114  0.3330
10830TIP3    H253906   0.270   2.801   6.213  1.2827  1.5511 -3.1454
10831TIP3   OH253907   0.461   2.253  11.030 -0.5692  0.4868 -0.1326
10831TIP3    H153908   0.486   2.188  10.965 -0.4332  1.4359 -1.0646
10831TIP3    H253909   0.540   2.307  11.042 -0.1684 -0.4486  1.8222
10832TIP3   OH253910   4.993   4.286  16.383  0.0709  0.1596  0.0410
10832TIP3    H153911   4.931   4.242  16.325 -1.5606 -0.6067  2.2226
10832TIP3    H253912   4.956   4.373  16.396 -1.5102 -0.7850  2.5342
10833TIP3   OH253913   0.978   6.659   2.093  0.3364  0.2989 -0.5443
10833TIP3    H153914   0.887   6.679   2.075  0.7563  2.3808 -0.5254
10833TIP3    H253915   1.008   6.728   2.151  1.7659 -0.7179  0.0036
10834TIP3   OH253916   6.355   6.208   6.162  0.6737 -0.6616  0.1356
10834TIP3    H153917   6.287   6.253   6.211  1.3436  0.4847  0.0341
10834TIP3    H253918   6.342   6.115   6.184 -1.8213 -0.6603 -1.0516
10835TIP3   OH253919   1.164   2.670   1.355  0.0192  0.6790  0.5437
10835TIP3    H153920   1.102   2.731   1.315  1.8444  2.6927  0.6187
10835TIP3    H253921   1.224   2.726   1.404  0.7964 -1.3463  2.0090
10836TIP3   OH253922   3.732   6.129   1.770 -0.6650 -0.0151  0.7012
10836TIP3    H153923   3.637   6.136   1.778 -0.7258 -1.3851  1.4355
10836TIP3    H253924   3.756   6.062   1.833  0.8052  0.3459  0.5475
10837TIP3   OH253925   1.055   2.576  14.617  1.1396 -0.5668 -0.0458
10837TIP3    H153926   1.032   2.509  14.553  0.3105  1.2618 -1.7779
10837TIP3    H253927   1.145   2.601  14.594  0.9141 -0.0527 -0.3951
10838TIP3   OH253928   0.078   4.894  13.440 -0.2303  0.6901 -0.5390
10838TIP3    H153929   0.143   4.911  13.372 -0.4287  1.2531 -0.5904
10838TIP3    H253930   0.065   4.799  13.438  1.8429  0.3194  0.6279
10839TIP3   OH253931   3.554   6.342   5.496  0.3174 -0.2852 -0.3038
10839TIP3    H153932   3.476   6.327   5.442  0.3423 -0.5198 -0.2737
10839TIP3    H253933   3.527   6.315   5.584 -0.4498  2.1333  0.2880
10840TIP3   OH253934   2.830   5.177   6.784  0.2792  0.3109  0.5684
10840TIP3    H153935   2.861   5.123   6.856  1.1731  1.0177  0.7427
10840TIP3    H253936   2.876   5.142   6.707  0.2360  0.3026  0.5467
10841TIP3   OH253937   0.444   2.438  15.381  0.1098  0.1728  0.0055
10841TIP3    H153938   0.356   2.411  15.357  0.2280 -0.7298  0.5706
10841TIP3    H253939   0.501   2.372  15.342  0.5367  0.6927 -0.2655
10842TIP3   OH253940   0.987   2.260   5.818  0.0617 -0.3495 -0.6713
10842TIP3    H153941   0.984   2.354   5.834 -1.8224 -0.4578 -0.2308
10842TIP3    H253942   0.937   2.247   5.738 -0.8142 -1.0865 -0.0267
10843TIP3   OH253943   4.725   2.691  13.333 -0.2400 -0.0719  0.0152
10843TIP3    H153944   4.665   2.720  13.265  0.0296  0.1825 -0.1171
10843TIP3    H253945   4.793   2.644  13.286 -1.0491 -1.5771  0.2960
10844TIP3   OH253946   2.283   3.205  16.977 -0.0732 -0.6272  0.0887
10844TIP3    H153947   2.374   3.191  17.003 -0.5188 -0.5962  1.7798
10844TIP3    H253948   2.285   3.286  16.926  0.8342 -0.5952  0.1593
10845TIP3   OH253949   3.960   1.470  17.150 -0.5382  0.1647 -0.1552
10845TIP3    H153950   3.897   1.399  17.138 -0.7311  0.4981 -1.1727
10845TIP3    H253951   4.045   1.428  17.135 -0.5267 -0.1896  0.8040
10846TIP3   OH253952   4.207   0.234  11.031  0.5476  0.5325  0.2068
10846TIP3    H153953   4.156   0.172  11.083 -0.0099  1.3264  0.6273
10846TIP3    H253954   4.148   0.309  11.019  1.5216  1.3514  0.4571
10847TIP3   OH253955   3.143   0.734   1.130  0.0556 -0.4065  0.0188
10847TIP3    H153956   3.198   0.656   1.129 -0.5521 -0.8373  0.0695
10847TIP3    H253957   3.157   0.772   1.217  0.6698 -0.2262 -0.1550
10848TIP3   OH253958   1.612   2.162  10.752 -0.0843 -0.4552 -0.2550
10848TIP3    H153959   1.564   2.154  10.670 -1.3239  0.3565  0.3618
10848TIP3    H253960   1.605   2.076  10.794  1.8311 -1.3568 -1.6189
10849TIP3   OH253961   4.485   2.699   5.604  0.7861 -0.2896 -0.0478
10849TIP3    H153962   4.491   2.701   5.699  2.1591  0.0188 -0.1224
10849TIP3    H253963   4.513   2.610   5.580  0.9874 -0.1885 -0.1915
10850TIP3   OH253964   6.027   4.968   2.089  0.1548 -0.1376 -0.7395
10850TIP3    H153965   5.987   5.042   2.043 -2.5203 -0.9407  0.1240
10850TIP3    H253966   5.957   4.904   2.097  1.8617 -1.9920  0.2683
10851TIP3   OH253967   3.115   6.727   1.910  0.4545 -0.2353  0.0442
10851TIP3    H153968   3.101   6.632   1.900  2.5674 -0.6164  0.2288
10851TIP3    H253969   3.031   6.760   1.941  0.3280 -2.4428  2.3824
10852TIP3   OH253970   1.278   0.812  13.308 -0.8813 -0.0902 -0.3706
10852TIP3    H153971   1.315   0.771  13.230 -1.1022  0.8862 -1.0007
10852TIP3    H253972   1.347   0.803  13.374 -1.2403 -2.2249 -0.2029
10853TIP3   OH253973   6.181   0.669   5.964  0.5592  0.3087 -0.0974
10853TIP3    H153974   6.234   0.620   6.028 -1.2712 -1.0147  0.4907
10853TIP3    H253975   6.186   0.617   5.884 -0.1897 -0.0717  0.0945
10854TIP3   OH253976   1.323   1.170   4.312  0.0966 -0.1643 -0.2855
10854TIP3    H153977   1.291   1.080   4.307  0.1497 -0.1537 -0.8594
10854TIP3    H253978   1.361   1.177   4.400 -0.3741 -0.5414 -0.0512
10855TIP3   OH253979   4.725   3.628   0.951 -0.1752  0.4233  0.0069
10855TIP3    H153980   4.796   3.692   0.961 -0.4250  0.8058 -0.5937
10855TIP3    H253981   4.761   3.563   0.890  0.2007 -0.2077  0.8714
10856TIP3   OH253982   1.532   0.745   4.922 -0.4424 -0.0217  0.1063
10856TIP3    H153983   1.466   0.809   4.949 -0.3574  0.4684 -0.8067
10856TIP3    H253984   1.487   0.691   4.857 -0.0267  0.1483 -0.3235
10857TIP3   OH253985   0.752   0.026   0.337  0.2729 -0.3310 -0.1990
10857TIP3    H153986   0.752   0.108   0.385 -1.3982  0.1418 -0.9344
10857TIP3    H253987   0.839   0.021   0.298  0.3824  1.1193 -0.1943
10858TIP3   OH253988   5.924   3.297   2.722  0.6543 -1.0007 -0.4193
10858TIP3    H153989   5.921   3.202   2.709  0.2725 -0.9986 -0.3491
10858TIP3    H253990   6.000   3.312   2.779  1.6945 -1.1181 -1.7207
10859TIP3   OH253991   4.984   4.697   5.537  0.3521 -0.1909  0.5080
10859TIP3    H153992   4.950   4.786   5.534  0.3825 -0.2064 -0.5936
10859TIP3    H253993   4.992   4.677   5.630  3.2377  2.0687  0.8887
10860TIP3   OH253994   2.745   2.248   6.534  0.1346 -0.1983  0.2016
10860TIP3    H153995   2.731   2.319   6.472 -0.6524  0.8895  1.5535
10860TIP3    H253996   2.662   2.202   6.537 -0.0625  0.1877  0.9438
10861TIP3   OH253997   0.959   6.090   3.901  0.5322  0.5653 -0.3723
10861TIP3    H153998   0.949   6.135   3.817 -1.0285 -0.4259 -0.7652
10861TIP3    H253999   1.044   6.048   3.895  0.0763 -0.2263 -1.8618
10862TIP3   OH254000   1.924   6.692   6.505 -0.1272 -0.0743  0.0596
10862TIP3    H154001   1.928   6.597   6.496  1.6050  0.0724 -1.2903
10862TIP3    H254002   1.849   6.718   6.452  0.3253 -0.6044 -0.8815
10863TIP3   OH254003   4.175   5.913  11.130 -0.2066 -0.6312 -0.3809
10863TIP3    H154004   4.118   5.976  11.086  1.7159  1.1684 -0.4361
10863TIP3    H254005   4.199   5.850  11.061 -0.1707  0.0164 -0.9640
10864TIP3   OH254006   0.755   4.917   1.637 -0.0967  0.2167  0.6775
10864TIP3    H154007   0.823   4.954   1.693  1.5614  0.2413 -1.2565
10864TIP3    H254008   0.763   4.964   1.554 -1.8559 -0.4468  0.0796
10865TIP3   OH254009   4.176   4.391   6.059 -0.2346  0.4623  0.2188
10865TIP3    H154010   4.224   4.470   6.036  0.2508 -0.3650 -1.7805
10865TIP3    H254011   4.089   4.423   6.086 -0.3682  1.6480 -1.4575
10866TIP3   OH254012   0.529   1.386   0.407  0.2230  0.4114  0.8789
10866TIP3    H154013   0.551   1.354   0.320 -0.4585 -1.1250  1.2527
10866TIP3    H254014   0.607   1.437   0.434  1.4674 -1.1448  0.3640
10867TIP3   OH254015   2.139   2.798  10.688 -0.4219  0.0553 -0.1243
10867TIP3    H154016   2.194   2.845  10.625 -1.2604  0.4383 -0.5842
10867TIP3    H254017   2.054   2.842  10.683 -1.5054 -2.0091 -1.1933
10868TIP3   OH254018   0.309   6.437   2.424 -0.0839  0.4272 -0.5673
10868TIP3    H154019   0.227   6.481   2.445  1.2544  2.6875  0.2577
10868TIP3    H254020   0.306   6.355   2.475 -1.0957  1.2788  0.8235
10869TIP3   OH254021   5.081   3.700   5.685 -0.5533  0.0765 -0.1369
10869TIP3    H154022   5.008   3.652   5.646 -1.1843  0.1642  0.8831
10869TIP3    H254023   5.041   3.750   5.756  0.4868  0.2319  0.3596
10870TIP3   OH254024   4.384   2.329   5.766  0.0399  0.0795 -0.0033
10870TIP3    H154025   4.402   2.420   5.789  1.3392  0.5641 -2.5275
10870TIP3    H254026   4.457   2.279   5.803  0.5060  0.3968 -0.4878
10871TIP3   OH254027   3.023   6.628   5.781  0.3289 -0.3931 -0.7676
10871TIP3    H154028   3.085   6.698   5.763  1.8071 -0.9892  1.5005
10871TIP3    H254029   2.954   6.669   5.833  1.4280 -0.6078  0.9588
10872TIP3   OH254030   5.208   5.751  12.979  0.4106  0.3325 -0.7144
10872TIP3    H154031   5.241   5.745  12.889  1.5779 -1.3049 -0.2390
10872TIP3    H254032   5.240   5.671  13.021 -1.2110  0.4132  0.8143
10873TIP3   OH254033   2.488   1.857   2.283 -0.8299 -0.6535  0.2035
10873TIP3    H154034   2.506   1.770   2.318  0.3868 -0.3409  0.3940
10873TIP3    H254035   2.437   1.900   2.351 -0.6030 -0.8963  0.5331
10874TIP3   OH254036   2.321   3.764   0.146  0.2290  0.5443 -0.1404
10874TIP3    H154037   2.266   3.702   0.098 -0.5045  3.0590 -2.7627
10874TIP3    H254038   2.276   3.776   0.229 -0.8022 -0.7063 -0.4847
10875TIP3   OH254039   1.840   5.053   4.940  0.0006 -0.4580 -0.8013
10875TIP3    H154040   1.906   5.011   4.996 -0.1397  0.5302  0.1528
10875TIP3    H254041   1.860   5.147   4.947 -2.4211  0.0457  0.8113
10876TIP3   OH254042   2.007   5.247   2.000 -0.0917 -0.6064  0.0546
10876TIP3    H154043   2.086   5.194   1.987  0.7028  0.8963 -1.6383
10876TIP3    H254044   1.968   5.254   1.913 -0.1684  1.5430  0.1996
10877TIP3   OH254045   2.409   0.675  11.851  0.1105  0.2110  0.1065
10877TIP3    H154046   2.410   0.580  11.837  3.9426  0.3833 -1.8972
10877TIP3    H254047   2.412   0.713  11.764 -2.3477  2.3419  0.8135
10878TIP3   OH254048   4.781   6.274   1.422  0.1955 -0.1387 -0.1854
10878TIP3    H154049   4.855   6.222   1.389 -0.8877  0.1519 -3.4983
10878TIP3    H254050   4.803   6.364   1.398 -0.5482  0.1476  0.1795
10879TIP3   OH254051   4.479   3.384  15.867 -0.4644 -0.0920 -0.0122
10879TIP3    H154052   4.393   3.402  15.830 -0.1730  0.7672 -0.3101
10879TIP3    H254053   4.537   3.380  15.791 -0.2965 -1.0524  0.1547
10880TIP3   OH254054   2.751   4.205  13.413 -0.4565  0.0763  0.2795
10880TIP3    H154055   2.737   4.187  13.506  1.6667 -0.0571  0.6289
10880TIP3    H254056   2.768   4.119  13.375 -0.2523  0.2461 -0.0121
10881TIP3   OH254057   1.927   5.126   2.355 -0.3448  0.5360  0.6905
10881TIP3    H154058   1.932   5.213   2.315 -0.5154  0.7073  1.0452
10881TIP3    H254059   1.974   5.069   2.293  0.2352  0.9696  0.7214
10882TIP3   OH254060   1.303   4.492   1.443  0.4622 -0.1137 -0.1760
10882TIP3    H154061   1.311   4.548   1.520 -0.7968  2.2432 -1.6557
10882TIP3    H254062   1.209   4.476   1.434  0.6886 -1.2911 -0.6200
10883TIP3   OH254063   6.478   1.985  12.671  0.1356  0.2518  0.1140
10883TIP3    H154064   6.420   1.929  12.723 -0.3342  0.0770 -0.5976
10883TIP3    H254065   6.423   2.057  12.641  0.5890  0.7595  0.4862
10884TIP3   OH254066   4.406   3.464   5.246 -0.1184  0.0391 -0.3350
10884TIP3    H154067   4.449   3.519   5.311 -0.4991 -0.2914  0.2068
10884TIP3    H254068   4.358   3.526   5.190 -0.5050  0.2648  0.2409
10885TIP3   OH254069   2.453   2.590  15.666 -0.5165 -0.1640  0.2671
10885TIP3    H154070   2.398   2.562  15.593 -0.4857 -0.6816  0.4378
10885TIP3    H254071   2.406   2.664  15.704 -0.4121  0.2624 -0.4225
10886TIP3   OH254072   3.561   4.975  12.049  0.3114 -0.0900 -0.4389
10886TIP3    H154073   3.503   4.900  12.062 -0.1281  0.3685  0.2747
10886TIP3    H254074   3.638   4.938  12.006 -0.0387 -0.8959 -0.3870
10887TIP3   OH254075   2.345   2.520   2.167  0.4676  0.9310 -0.3731
10887TIP3    H154076   2.301   2.602   2.144 -0.8035  0.9430  1.7786
10887TIP3    H254077   2.393   2.496   2.088  1.5546  4.1475 -0.8727
10888TIP3   OH254078   3.670   0.207  12.011  0.2835 -0.0272  0.1123
10888TIP3    H154079   3.675   0.275  11.944  1.3047 -1.3334 -1.1989
10888TIP3    H254080   3.696   0.126  11.966 -0.5228 -1.2374  1.7031
10889TIP3   OH254081   5.424   2.301  13.951  0.0821 -0.0181 -0.4225
10889TIP3    H154082   5.408   2.305  13.857 -0.1712  0.5902 -0.3617
10889TIP3    H254083   5.370   2.372  13.987  0.1447 -0.2747  0.1823
10890TIP3   OH254084   1.746   0.834   5.881  0.4879 -0.2392 -0.2514
10890TIP3    H154085   1.804   0.841   5.957 -0.9200  0.8386  0.7900
10890TIP3    H254086   1.689   0.760   5.901  0.9671 -0.7837 -0.8842
10891TIP3   OH254087   3.580   5.108  13.415  0.1662 -0.1177  0.0362
10891TIP3    H154088   3.607   5.043  13.480 -0.0927 -0.6772 -0.4172
10891TIP3    H254089   3.489   5.128  13.438  0.5088  0.7455  0.7120
10892TIP3   OH254090   0.920   6.328   5.692 -0.2241  0.0057  0.4978
10892TIP3    H154091   0.886   6.335   5.781 -1.7603 -1.5164  0.0933
10892TIP3    H254092   0.936   6.235   5.679 -1.3303 -0.0081 -1.2220
10893TIP3   OH254093   1.026   6.081  15.220 -0.6391  0.3494 -0.2119
10893TIP3    H154094   1.006   6.136  15.296 -2.2083 -0.6571  0.1432
10893TIP3    H254095   0.952   6.094  15.161 -1.0389 -1.3217 -0.1329
10894TIP3   OH254096   2.148   0.968  16.163 -0.1707 -0.2625 -0.1481
10894TIP3    H154097   2.237   0.963  16.198  0.2498 -0.9609 -1.2670
10894TIP3    H254098   2.103   0.892  16.200  0.1573 -0.7770 -0.7887
10895TIP3   OH254099   3.656   5.798   0.674 -0.0448  0.3170  0.1137
10895TIP3    H154100   3.635   5.724   0.731 -1.2339  0.4117 -0.1651
10895TIP3    H254101   3.603   5.783   0.595  3.4894 -1.2097 -2.2034
10896TIP3   OH254102   6.375   2.965   0.541 -0.0117  0.3985 -0.2397
10896TIP3    H154103   6.379   2.958   0.446  0.4411  0.0521 -0.2034
10896TIP3    H254104   6.303   2.908   0.567 -0.3346  0.7364 -0.3968
10897TIP3   OH254105   3.109   3.785  11.678  0.3146  1.3939 -0.3116
10897TIP3    H154106   3.106   3.689  11.679  0.5193  1.3756  1.2469
10897TIP3    H254107   3.033   3.811  11.626 -0.5973  0.3949  0.4838
10898TIP3   OH254108   6.663   0.809   2.909 -0.3727  0.2040 -0.1093
10898TIP3    H154109   6.603   0.743   2.876 -1.9449  1.1555  0.7214
10898TIP3    H254110   6.744   0.761   2.927 -0.7933 -1.0819 -1.4159
10899TIP3   OH254111   1.277   3.688  16.361 -0.0186  0.0384  0.0558
10899TIP3    H154112   1.246   3.602  16.331 -1.2766  0.6039 -0.3283
10899TIP3    H254113   1.348   3.668  16.422 -0.7494 -1.2973  0.4986
10900TIP3   OH254114   1.230   3.327   3.666 -0.3809 -0.3448 -0.0461
10900TIP3    H154115   1.135   3.327   3.673 -0.3908  1.0149  0.0613
10900TIP3    H254116   1.249   3.261   3.600 -1.2125 -2.6522  1.8847
10901TIP3   OH254117   3.888   5.406   3.194  0.9940  0.5362 -0.0048
10901TIP3    H154118   3.921   5.449   3.273 -0.2472  0.7881  0.4039
10901TIP3    H254119   3.927   5.455   3.122  1.0745  1.1595  0.4550
10902TIP3   OH254120   4.777   5.235   1.344  0.5033  0.6189 -0.8100
10902TIP3    H154121   4.714   5.303   1.369  1.1307  1.0476 -0.3849
10902TIP3    H254122   4.853   5.250   1.400 -0.8133 -2.9276  2.3915
10903TIP3   OH254123   1.051   3.403   1.132 -0.6855  0.6672 -0.1865
10903TIP3    H154124   1.073   3.462   1.204  2.5706 -0.8017  0.2471
10903TIP3    H254125   1.072   3.316   1.166  1.6779 -0.0462 -3.0311
10904TIP3   OH254126   4.170   5.642  11.372 -0.1508 -1.1856 -0.5180
10904TIP3    H154127   4.116   5.608  11.444 -1.8239  2.6874  0.3332
10904TIP3    H254128   4.111   5.644  11.297  0.4995 -1.8034 -1.0663
10905TIP3   OH254129   6.606   5.625  12.784 -0.4704 -0.0167  0.1700
10905TIP3    H154130   6.594   5.715  12.814  1.3749  0.1073  0.6419
10905TIP3    H254131   6.699   5.608  12.795 -0.6709 -1.7853 -0.5155
10906TIP3   OH254132   0.197   4.454  15.948  0.0519 -0.0886  0.1798
10906TIP3    H154133   0.142   4.525  15.916 -0.3636 -0.6035 -0.2579
10906TIP3    H254134   0.266   4.446  15.882  0.0376 -0.1592  0.1732
10907TIP3   OH254135   5.698   1.349  13.274  0.2725 -0.2890  0.1221
10907TIP3    H154136   5.659   1.415  13.331 -0.6972  0.0133 -0.8622
10907TIP3    H254137   5.787   1.339  13.308 -0.2748 -0.1401  1.6816
10908TIP3   OH254138   2.843   3.175  13.763  0.1277  0.0657  0.4607
10908TIP3    H154139   2.919   3.131  13.723  0.0344  1.0114 -0.8235
10908TIP3    H254140   2.857   3.268  13.744 -1.4828  0.2262 -0.0281
10909TIP3   OH254141   1.191   3.707  14.418  0.9023 -0.4290 -0.1008
10909TIP3    H154142   1.109   3.757  14.410  1.3551  1.0757  3.1075
10909TIP3    H254143   1.166   3.616  14.403 -0.3646  0.3771 -4.0150
10910TIP3   OH254144   5.999   6.080   0.500  0.1215  0.6111 -0.3138
10910TIP3    H154145   6.093   6.097   0.510  0.7687 -3.1250  1.9321
10910TIP3    H254146   5.959   6.121   0.577  0.2151  0.5500 -0.2325
10911TIP3   OH254147   3.272   1.906   4.246 -0.0308  0.0017  0.4194
10911TIP3    H154148   3.203   1.939   4.188 -0.5849  0.1633  1.1600
10911TIP3    H254149   3.285   1.815   4.219  0.0680  0.2232 -0.2855
10912TIP3   OH254150   0.811   0.882   1.908  0.5302 -0.6256 -0.0414
10912TIP3    H154151   0.761   0.938   1.849  3.3728 -1.3375 -3.4321
10912TIP3    H254152   0.874   0.940   1.950  1.0878 -0.6619 -0.7964
10913TIP3   OH254153   6.509   5.042  11.219 -0.5515  0.1009 -0.2268
10913TIP3    H154154   6.558   5.086  11.150  0.4260  0.6732  0.7961
10913TIP3    H254155   6.419   5.073  11.208  0.0294  2.1330  0.2238
10914TIP3   OH254156   5.952   2.998  15.908  0.1579 -0.3572  0.0057
10914TIP3    H154157   6.008   3.039  15.842  0.6782  2.3154  1.9405
10914TIP3    H254158   6.010   2.940  15.956  1.0968  1.4817  1.2206
10915TIP3   OH254159   0.731   5.374  17.019  0.0140  0.0195  0.3127
10915TIP3    H154160   0.641   5.404  17.029 -0.2875 -0.4950 -0.7276
10915TIP3    H254161   0.783   5.438  17.068 -0.9025  0.3318  0.9163
10916TIP3   OH254162   4.503   2.429   1.163 -0.1982 -0.2251 -0.3684
10916TIP3    H154163   4.408   2.432   1.154 -0.2918 -0.8185  0.3393
10916TIP3    H254164   4.525   2.510   1.209 -0.4489 -0.4388  0.1389
10917TIP3   OH254165   2.214   6.541  16.330  0.3875 -1.1218  0.3201
10917TIP3    H154166   2.141   6.564  16.273  1.0389  1.5367  0.4464
10917TIP3    H254167   2.274   6.615  16.324  0.7239 -0.9140  4.1101
10918TIP3   OH254168   4.502   1.690  11.874  0.0006 -0.4965 -0.2374
10918TIP3    H154169   4.443   1.720  11.805  1.5202  0.8160 -1.0187
10918TIP3    H254170   4.502   1.761  11.938 -0.1739 -1.0136  0.3445
10919TIP3   OH254171   0.434   3.949  12.201  0.2772 -0.5302  0.0815
10919TIP3    H154172   0.357   4.007  12.202  1.1434  0.6552  1.1867
10919TIP3    H254173   0.457   3.938  12.293  0.7529 -1.8491 -0.1683
10920TIP3   OH254174   2.415   3.232  15.658  0.4262  0.7528 -1.0393
10920TIP3    H154175   2.342   3.203  15.713 -0.7656  1.0604 -2.3981
10920TIP3    H254176   2.402   3.326  15.649  2.1696  1.1780  0.3121
10921TIP3   OH254177   6.251   5.812   4.556 -0.6103 -0.4560 -0.0585
10921TIP3    H154178   6.277   5.864   4.481 -0.8525 -0.1252  0.0835
10921TIP3    H254179   6.317   5.831   4.623 -1.4072  0.7035  0.4439
10922TIP3   OH254180   4.518   0.413  13.353 -0.1471 -0.6074 -0.5743
10922TIP3    H154181   4.459   0.478  13.315  1.3280  0.1753 -1.6234
10922TIP3    H254182   4.585   0.465  13.398 -0.5263 -1.4882  1.0917
10923TIP3   OH254183   5.651   6.496   5.284 -0.1233 -0.0475 -0.0397
10923TIP3    H154184   5.646   6.426   5.218 -0.9040 -1.1844  1.1638
10923TIP3    H254185   5.682   6.572   5.236  2.3461 -1.6032 -1.1202
10924TIP3   OH254186   5.718   3.854  12.935  0.0598  0.5601  0.3980
10924TIP3    H154187   5.771   3.905  12.874 -0.9436  1.6608  0.4274
10924TIP3    H254188   5.765   3.860  13.018  0.1704  1.0756  0.2986
10925TIP3   OH254189   6.243   0.728  16.291 -0.2300 -0.1346  0.3953
10925TIP3    H154190   6.329   0.759  16.262 -0.4855  0.4840  0.2733
10925TIP3    H254191   6.247   0.633  16.281 -0.5244  0.0627 -2.3342
10926TIP3   OH254192   1.405   2.201  14.875 -0.6922 -0.4761  0.0278
10926TIP3    H154193   1.321   2.165  14.848 -1.5057  1.3309  0.0105
10926TIP3    H254194   1.401   2.202  14.971 -1.4121  1.1253  0.0112
10927TIP3   OH254195   2.830   3.470   2.540  0.1790 -0.1019  0.4043
10927TIP3    H154196   2.801   3.419   2.464 -0.3294  0.0377  0.5019
10927TIP3    H254197   2.924   3.483   2.525 -0.1328  0.9521 -0.8113
10928TIP3   OH254198   3.244   5.893   2.810  0.4971  0.2177  0.6549
10928TIP3    H154199   3.190   5.907   2.887 -0.3618 -1.3124  0.3749
10928TIP3    H254200   3.218   5.962   2.749 -0.7073 -0.1138  0.7670
10929TIP3   OH254201   2.921   2.520  11.768 -0.0837 -0.1371 -0.0270
10929TIP3    H154202   2.989   2.458  11.794  0.7207  0.1712 -1.2901
10929TIP3    H254203   2.905   2.573  11.846 -2.6817 -3.5076  1.9741
10930TIP3   OH254204   6.252   1.972  11.568  0.0634 -0.0706  0.5118
10930TIP3    H154205   6.311   2.037  11.528 -1.6530  0.8761 -0.6106
10930TIP3    H254206   6.221   2.015  11.648  0.0395 -0.1132  0.5249
10931TIP3   OH254207   3.814   3.529  14.468 -0.1220  0.3897 -0.4612
10931TIP3    H154208   3.908   3.508  14.464  0.0594  0.9725  0.3881
10931TIP3    H254209   3.807   3.613  14.423  0.1356  1.4211  1.3300
10932TIP3   OH254210   4.649   2.063  11.504 -0.6345  0.2677  0.2922
10932TIP3    H154211   4.590   2.099  11.570 -1.5674 -1.2885  0.3520
10932TIP3    H254212   4.594   2.052  11.426 -0.7831 -2.2283  0.6708
10933TIP3   OH254213   2.542   1.534  13.515 -0.1223  0.4195 -0.0436
10933TIP3    H154214   2.611   1.585  13.474  0.9373  0.9938  2.3085
10933TIP3    H254215   2.464   1.551  13.461  1.4030  0.1499 -2.4492
10934TIP3   OH254216   1.558   0.513  17.022  0.2904 -0.0945 -0.3910
10934TIP3    H154217   1.563   0.456  16.945 -0.4908 -0.9534  0.1739
10934TIP3    H254218   1.630   0.483  17.078 -0.8411 -1.3633  0.4344
10935TIP3   OH254219   4.733   4.941   3.579 -0.5006  0.0856  0.2242
10935TIP3    H154220   4.730   5.036   3.575  1.1647  0.1769  0.6826
10935TIP3    H254221   4.677   4.913   3.506 -0.1637  1.4177 -0.5792
10936TIP3   OH254222   4.083   0.486  14.776  0.2847  0.4495  0.4717
10936TIP3    H154223   4.034   0.403  14.768 -0.1933  0.8265 -0.6968
10936TIP3    H254224   4.031   0.549  14.726  1.7669  0.9517 -0.5121
10937TIP3   OH254225   1.481   5.967  16.949 -0.1702 -0.5127  0.9118
10937TIP3    H154226   1.540   6.037  16.978 -0.0389 -0.7647  1.2721
10937TIP3    H254227   1.508   5.891  17.001 -2.0851 -0.1626  2.5324
10938TIP3   OH254228   6.068   1.693  16.724 -0.5056  0.4540  0.3570
10938TIP3    H154229   6.100   1.677  16.635  0.2160  1.5617  0.3968
10938TIP3    H254230   6.084   1.786  16.738 -1.3081  0.4473  1.3805
10939TIP3   OH254231   2.673   1.541  12.952 -0.2437 -0.2612 -0.1975
10939TIP3    H154232   2.702   1.626  12.985 -1.8919  0.2654 -0.0134
10939TIP3    H254233   2.669   1.552  12.857  0.3080 -0.3916 -0.2373
10940TIP3   OH254234   1.474   6.710   4.916 -0.1773 -0.4042  0.1877
10940TIP3    H154235   1.558   6.673   4.942  0.7105  0.9259 -0.6621
10940TIP3    H254236   1.454   6.774   4.984  0.4243  0.5756 -0.5252
10941TIP3   OH254237   2.029   4.825   4.546 -0.2292  0.7660 -0.1374
10941TIP3    H154238   1.966   4.887   4.510 -1.0423  0.4147  0.6254
10941TIP3    H254239   2.037   4.757   4.479  0.7695  1.7329 -1.0296
10942TIP3   OH254240   4.039   4.174   2.082 -0.5595 -0.1835 -0.1495
10942TIP3    H154241   4.114   4.167   2.141 -0.0831  0.3123 -0.6851
10942TIP3    H254242   4.035   4.088   2.040 -1.2305 -0.7247  0.9689
10943TIP3   OH254243   4.318   1.455  13.469  0.2490  0.2669 -0.0803
10943TIP3    H154244   4.261   1.459  13.545  0.3961 -2.0151  0.2334
10943TIP3    H254245   4.407   1.466  13.504  0.4902 -2.6230  0.4588
10944TIP3   OH254246   6.577   3.460  14.147  0.2706 -0.1501 -0.1887
10944TIP3    H154247   6.665   3.476  14.112  0.0216 -0.5903 -1.0370
10944TIP3    H254248   6.519   3.503  14.085 -0.1365 -0.2462  0.1261
10945TIP3   OH254249   6.053   1.595  16.120 -0.3421 -0.3951 -0.2106
10945TIP3    H154250   5.963   1.583  16.090 -0.7708 -0.7237  1.1359
10945TIP3    H254251   6.060   1.689  16.137 -0.3616 -0.3386 -0.5097
10946TIP3   OH254252   1.678   3.674   1.684  0.6103  0.0796 -0.7867
10946TIP3    H154253   1.708   3.723   1.608  1.3480 -0.0005 -0.5542
10946TIP3    H254254   1.607   3.620   1.651 -0.2909  1.3671 -1.0185
10947TIP3   OH254255   3.631   2.197   3.869  0.2093  0.2089 -0.0257
10947TIP3    H154256   3.564   2.257   3.900  0.9859  0.8712  0.3821
10947TIP3    H254257   3.616   2.116   3.919 -1.7798 -0.5041 -1.6246
10948TIP3   OH254258   5.112   2.795   0.085  0.1759 -0.0462 -0.0195
10948TIP3    H154259   5.023   2.759   0.081  0.5074 -1.0296  0.9250
10948TIP3    H254260   5.149   2.777  -0.001  0.2497 -1.7958  0.3541
10949TIP3   OH254261   3.445   0.998   0.629  0.1242  0.2789 -0.1798
10949TIP3    H154262   3.402   1.026   0.710  0.8298 -0.0218  0.3126
10949TIP3    H254263   3.455   1.078   0.578 -0.6768  0.4115 -0.1476
10950TIP3   OH254264   1.775   4.498  12.351 -0.3526  0.0905 -0.1991
10950TIP3    H154265   1.808   4.523  12.437  0.2837 -0.5618 -0.2508
10950TIP3    H254266   1.716   4.425  12.368 -1.1565  0.7236 -0.1978
10951TIP3   OH254267   0.435   3.205  14.606 -0.0935 -0.0842  0.3067
10951TIP3    H154268   0.526   3.210  14.634 -0.2195  0.3020  0.6359
10951TIP3    H254269   0.433   3.129  14.548  0.2429 -0.6599  1.0335
10952TIP3   OH254270   1.547   3.423   4.621 -0.4420 -0.4444 -0.1370
10952TIP3    H154271   1.529   3.498   4.678 -2.7600 -1.8288  1.0984
10952TIP3    H254272   1.606   3.368   4.672 -0.5818 -0.5377 -0.0746
10953TIP3   OH254273   2.046   1.071   0.569  0.3960 -0.6300 -0.2408
10953TIP3    H154274   2.117   1.011   0.547 -0.9273 -1.8472 -1.4019
10953TIP3    H254275   1.967   1.016   0.567 -0.9677  1.2518 -1.9847
10954TIP3   OH254276   5.311   4.343   1.773  0.1503 -0.3062 -0.8515
10954TIP3    H154277   5.221   4.330   1.741 -0.5529  2.1496 -0.0912
10954TIP3    H254278   5.312   4.299   1.858 -0.2760 -0.5329 -0.9609
10955TIP3   OH254279   0.248   3.656   5.801  0.1985 -0.5629  0.5014
10955TIP3    H154280   0.156   3.630   5.802 -0.7265  2.1254 -1.9192
10955TIP3    H254281   0.292   3.586   5.752 -0.4518 -2.0042  1.8998
10956TIP3   OH254282   3.230   1.268  13.189 -0.3711  0.6100  0.2895
10956TIP3    H154283   3.289   1.252  13.262  0.4483 -0.0904 -0.4989
10956TIP3    H254284   3.232   1.363  13.176 -0.9813  0.8074  1.5311
10957TIP3   OH254285   1.322   4.784   6.158 -0.3248 -0.3044  0.6086
10957TIP3    H154286   1.396   4.746   6.205  0.6518  0.4504 -0.2709
10957TIP3    H254287   1.254   4.716   6.162  0.5583 -1.1938  1.0545
10958TIP3   OH254288   3.796   3.138   1.421 -0.0963  0.0863  0.0587
10958TIP3    H154289   3.704   3.153   1.445  0.3393  1.8043  0.8409
10958TIP3    H254290   3.792   3.091   1.338 -1.6755 -0.0953  0.2013
10959TIP3   OH254291   5.252   3.344   4.887  0.3766 -0.6772 -0.2625
10959TIP3    H154292   5.308   3.309   4.957  0.6427 -0.7723 -0.5225
10959TIP3    H254293   5.172   3.372   4.932 -1.1992 -4.4145 -0.4099
10960TIP3   OH254294   5.498   4.276   3.725  0.3078  0.2342  0.1594
10960TIP3    H154295   5.499   4.185   3.755  1.0196  0.0285 -0.4788
10960TIP3    H254296   5.579   4.313   3.760 -0.2460  0.7914  0.8892
10961TIP3   OH254297   5.249   3.381   2.578 -0.6632 -0.8989  0.2237
10961TIP3    H154298   5.237   3.415   2.666  0.8904  0.5766 -0.0832
10961TIP3    H254299   5.344   3.371   2.569 -0.6733  0.3051 -1.7325
10962TIP3   OH254300   5.171   6.687  11.283  0.2650  0.1603  0.2291
10962TIP3    H154301   5.202   6.714  11.197 -0.4028  0.5969  0.1214
10962TIP3    H254302   5.183   6.764  11.339 -0.3166  0.2228  0.2655
10963TIP3   OH254303   2.070   4.805  10.890  0.0292  0.1862  0.3918
10963TIP3    H154304   2.032   4.801  10.978  0.4276 -1.9459  0.5251
10963TIP3    H254305   1.997   4.824  10.832 -0.5853 -0.2943  1.0019
10964TIP3   OH254306   3.694   2.633  13.814  0.0162  0.0408  0.0165
10964TIP3    H154307   3.744   2.588  13.882  1.2732 -0.0685 -0.9582
10964TIP3    H254308   3.628   2.569  13.787  1.0540 -0.8146 -0.5498
10965TIP3   OH254309   4.967   6.563   2.399  0.2131 -0.4620 -0.5561
10965TIP3    H154310   4.877   6.594   2.392  0.3404  0.4182  1.0141
10965TIP3    H254311   5.020   6.635   2.364  0.3313 -0.8429 -1.1747
10966TIP3   OH254312   3.859   2.311   2.347 -0.2894  0.0387 -0.6991
10966TIP3    H154313   3.905   2.336   2.267 -2.4031  0.8028 -1.7572
10966TIP3    H254314   3.868   2.387   2.405 -0.4979  0.3170 -1.0285
10967TIP3   OH254315   1.250   4.766  13.288  0.1050  0.1950  0.4736
10967TIP3    H154316   1.220   4.707  13.219 -1.3386  0.8655  0.4905
10967TIP3    H254317   1.213   4.730  13.368  1.8838 -0.6508  0.9633
10968TIP3   OH254318   4.142   1.877   0.470  0.1566 -0.0822  0.4203
10968TIP3    H154319   4.172   1.922   0.391 -0.2821  1.5464  1.1399
10968TIP3    H254320   4.061   1.833   0.443 -0.1710  0.7313  0.0347
10969TIP3   OH254321   1.745   0.418  17.192 -0.1576 -0.0450  0.1148
10969TIP3    H154322   1.751   0.326  17.168 -0.8705 -0.3520  1.0693
10969TIP3    H254323   1.827   0.436  17.238 -1.1655 -0.9579  2.3585
10970TIP3   OH254324   1.064   4.709   2.474  0.4636 -0.3105  0.2567
10970TIP3    H154325   1.158   4.692   2.480  0.5534  0.2528  0.4520
10970TIP3    H254326   1.057   4.803   2.456 -0.0427 -0.4631 -0.3872
10971TIP3   OH254327   4.156   2.553   2.333  0.3907 -0.4809  0.1978
10971TIP3    H154328   4.094   2.484   2.309  0.0513 -0.5232  1.1567
10971TIP3    H254329   4.123   2.631   2.289 -0.4294 -0.4761  0.8069
10972TIP3   OH254330   0.064   2.711   4.572  0.2919 -0.2239 -0.4355
10972TIP3    H154331  -0.020   2.668   4.586 -0.6659  1.3815 -0.9478
10972TIP3    H254332   0.128   2.653   4.612 -1.1138 -1.2548  0.3953
10973TIP3   OH254333   4.277   6.736   3.781  0.1333 -0.2699  0.5377
10973TIP3    H154334   4.221   6.711   3.854 -0.1673 -0.3308  0.2906
10973TIP3    H254335   4.279   6.658   3.725 -2.5798  0.8657 -1.3542
10974TIP3   OH254336   1.821   0.105   2.747 -0.1731  0.3128  0.7590
10974TIP3    H154337   1.894   0.118   2.808  1.8374 -2.1633 -0.9017
10974TIP3    H254338   1.831   0.014   2.717 -3.4708  0.1569 -0.2420
10975TIP3   OH254339   4.457   0.137   2.404  0.0697  0.6799  0.6382
10975TIP3    H154340   4.517   0.158   2.476 -0.2466  1.6457  0.6326
10975TIP3    H254341   4.375   0.116   2.447  0.4619 -0.9021  0.6598
10976TIP3   OH254342   4.654   0.589   2.983  0.0113 -0.1034  0.0414
10976TIP3    H154343   4.685   0.670   2.941 -0.2648  0.7279  1.3684
10976TIP3    H254344   4.733   0.537   2.996  0.3342  0.3933  0.0843
10977TIP3   OH254345   5.817   2.136   5.888  0.2103  0.1718 -0.4292
10977TIP3    H154346   5.888   2.098   5.940  1.0388  0.6381 -1.1750
10977TIP3    H254347   5.858   2.154   5.803 -1.3336 -1.3951 -1.5538
10978TIP3   OH254348   0.823   2.064   3.745 -0.3128 -0.0618 -0.0175
10978TIP3    H154349   0.774   1.991   3.783  0.2021  0.0446  0.8961
10978TIP3    H254350   0.905   2.066   3.795 -0.4422  1.3216  0.1909
10979TIP3   OH254351   5.824   1.974  13.997 -0.4051 -0.9040 -0.4792
10979TIP3    H154352   5.879   2.052  14.006  0.5556 -1.6026 -0.2672
10979TIP3    H254353   5.735   2.009  13.994 -0.4127  0.0805  3.7908
10980TIP3   OH254354   3.001   0.464  14.573  0.1071 -0.3830  0.4047
10980TIP3    H154355   3.037   0.505  14.651  1.9281  0.0752 -0.6094
10980TIP3    H254356   2.966   0.537  14.521 -2.9721 -0.8712  1.6229
10981TIP3   OH254357   0.607   1.349  14.207  0.0603 -0.3255  0.1703
10981TIP3    H154358   0.574   1.312  14.125 -1.8669  2.0552 -0.2554
10981TIP3    H254359   0.689   1.393  14.182  0.6504 -1.4589  0.0319
10982TIP3   OH254360   1.928   6.339   2.681 -0.8828 -0.5211 -0.5502
10982TIP3    H154361   1.897   6.312   2.594 -0.5090 -0.2580 -0.7718
10982TIP3    H254362   1.918   6.434   2.681 -1.0415 -0.5365 -0.2377
10983TIP3   OH254363   4.372   1.929  13.707  0.0684 -0.2967  0.5231
10983TIP3    H154364   4.306   1.881  13.757  1.1967  0.9648  3.4557
10983TIP3    H254365   4.384   2.011  13.755  1.5229  0.9051 -1.6973
10984TIP3   OH254366   1.139   5.434   6.154  0.3306  0.3229  0.1126
10984TIP3    H154367   1.172   5.399   6.237 -0.3473 -1.0542 -0.1744
10984TIP3    H254368   1.083   5.507   6.180 -1.7058 -1.4802  1.0939
10985TIP3   OH254369   1.696   4.529   5.369 -0.3517  0.2417  0.2282
10985TIP3    H154370   1.630   4.558   5.432 -1.2347 -0.3222 -0.4100
10985TIP3    H254371   1.769   4.500   5.423 -1.6171 -1.5308  1.0887
10986TIP3   OH254372   4.691   0.496  11.488  0.0036  0.0166  0.2535
10986TIP3    H154373   4.628   0.425  11.473 -0.9134  1.1253 -1.5272
10986TIP3    H254374   4.664   0.535  11.571 -0.4825 -0.7027  0.4463
10987TIP3   OH254375   3.269   5.441  16.836  0.0495  0.6859  0.4930
10987TIP3    H154376   3.312   5.417  16.918 -0.4160 -1.8836  0.0536
10987TIP3    H254377   3.339   5.479  16.783  1.0283 -0.3741  0.9903
10988TIP3   OH254378   3.530   2.557   0.666 -0.2235  0.0946  0.4286
10988TIP3    H154379   3.456   2.608   0.699 -1.0791 -2.0502  2.0761
10988TIP3    H254380   3.607   2.611   0.685 -1.1699  1.3625  0.8104
10989TIP3   OH254381   2.606   0.498   0.061 -0.3114  0.6028 -0.1087
10989TIP3    H154382   2.558   0.426   0.102  0.3028  0.4098  0.2796
10989TIP3    H254383   2.544   0.571   0.062 -0.3930  0.5380  0.9425
10990TIP3   OH254384   0.519   1.941  14.229  0.4143 -0.0567  0.2104
10990TIP3    H154385   0.494   1.873  14.166 -2.4131  0.5100  0.5885
10990TIP3    H254386   0.541   2.017  14.175 -3.8479  1.0565 -0.3240
10991TIP3   OH254387   4.097   0.514   1.617  0.7187  0.6755  0.0963
10991TIP3    H154388   4.143   0.586   1.576  0.9186  0.8907  0.6840
10991TIP3    H254389   4.046   0.474   1.546  1.5854  0.6002 -0.4997
10992TIP3   OH254390   1.964   6.250   1.977 -0.0416  0.4597  0.3268
10992TIP3    H154391   1.973   6.156   1.966  1.0176  0.5984 -0.1147
10992TIP3    H254392   2.049   6.279   2.012  0.4845  1.5222 -1.6028
10993TIP3   OH254393   0.534   0.583  12.969 -0.0994 -0.4769  0.1569
10993TIP3    H154394   0.532   0.492  12.940  1.1135 -0.1887 -0.9287
10993TIP3    H254395   0.606   0.587  13.032  0.3001 -0.1414 -0.3117
10994TIP3   OH254396   4.141   5.288   1.288 -0.3179 -0.0741  0.4480
10994TIP3    H154397   4.104   5.238   1.215  2.1588 -1.2359 -0.1148
10994TIP3    H254398   4.118   5.379   1.268 -1.2577 -0.5433 -0.7908
10995TIP3   OH254399   0.185   1.850   6.676 -1.0325  0.4584 -0.0414
10995TIP3    H154400   0.233   1.825   6.754 -1.5508 -0.5041 -0.0181
10995TIP3    H254401   0.159   1.941   6.692  0.8011  1.0239 -0.0860
10996TIP3   OH254402   6.726   6.068  13.224 -0.6327 -0.4256  0.2835
10996TIP3    H154403   6.743   5.988  13.175  2.8089  2.4158 -3.8330
10996TIP3    H254404   6.656   6.112  13.175 -1.0975  0.0087  1.3040
10997TIP3   OH254405   5.463   5.862   2.204 -1.0211 -0.3686 -0.4307
10997TIP3    H154406   5.519   5.860   2.126 -0.4553  1.8681 -0.1499
10997TIP3    H254407   5.432   5.952   2.209  0.8043  0.2271  3.1908
10998TIP3   OH254408   6.347   1.306  17.301  0.1194  0.1115  0.2001
10998TIP3    H154409   6.276   1.243  17.314  1.2414 -1.1180  0.6671
10998TIP3    H254410   6.404   1.294  17.378  0.3522  1.7315  0.3079
10999TIP3   OH254411   3.793   0.130   5.227 -0.4076 -0.6717 -0.1764
10999TIP3    H154412   3.777   0.045   5.188 -1.0986 -1.6679  2.0662
10999TIP3    H254413   3.856   0.173   5.169 -2.7138 -1.1996 -3.3220
11000TIP3   OH254414   2.079   3.113   2.166  0.0978 -0.1829  0.3609
11000TIP3    H154415   2.102   3.145   2.079  2.5720  0.1728  1.0801
11000TIP3    H254416   1.991   3.075   2.155 -1.3822  3.2780 -1.4151
11001TIP3   OH254417   0.436   3.821   4.970 -0.0260  0.4525  0.3361
11001TIP3    H154418   0.429   3.734   4.931  1.5785 -0.0463  1.1335
11001TIP3    H254419   0.453   3.879   4.895 -1.9722  0.2646 -0.3169
11002TIP3   OH254420   6.407   1.735  15.015  0.0475 -0.4439  0.6309
11002TIP3    H154421   6.452   1.740  15.100  0.4018  0.6493  0.4046
11002TIP3    H254422   6.316   1.759  15.035  0.6831  2.6542  0.3567
11003TIP3   OH254423   3.542   0.277   0.612  0.5055 -0.2755 -0.1706
11003TIP3    H154424   3.602   0.291   0.685 -2.4676 -1.5020  2.7637
11003TIP3    H254425   3.569   0.193   0.574 -0.2619 -1.7623  2.3028
11004TIP3   OH254426   4.538   3.167  14.844  0.2926  0.3794 -0.0519
11004TIP3    H154427   4.445   3.190  14.835  0.0056 -1.0283 -0.8152
11004TIP3    H254428   4.581   3.252  14.858 -1.0343  1.1094 -0.1484
11005TIP3   OH254429   5.224   3.138   2.360  0.4775  0.2928  0.5748
11005TIP3    H154430   5.176   3.217   2.334  1.3763  0.6258 -0.1272
11005TIP3    H254431   5.316   3.161   2.348  0.7281 -1.6059 -1.8539
11006TIP3   OH254432   6.751   0.978  15.496  0.0038  0.4332 -0.0345
11006TIP3    H154433   6.824   0.922  15.522  0.6690  1.8851  1.4364
11006TIP3    H254434   6.751   0.975  15.400  0.3798 -1.5590  0.0007
11007TIP3   OH254435   0.607   4.621  13.930  0.0379  0.2941  0.1313
11007TIP3    H154436   0.581   4.529  13.928 -0.7926  0.3898  2.6885
11007TIP3    H254437   0.698   4.619  13.959 -0.1868  0.2824  0.8518
11008TIP3   OH254438   2.385   0.920   6.276 -0.1507 -0.0837  0.3111
11008TIP3    H154439   2.320   0.863   6.236  0.2957 -0.5793  0.2743
11008TIP3    H254440   2.335   0.994   6.310 -0.6203 -0.0185 -0.5072
11009TIP3   OH254441   0.284   4.144  14.729  0.1024  0.2962  0.0601
11009TIP3    H154442   0.286   4.127  14.823 -0.3661 -2.6346 -0.3642
11009TIP3    H254443   0.372   4.124  14.698 -0.3505 -1.1688 -0.4019
11010TIP3   OH254444   4.700   6.242   5.514  0.6903 -0.2801  0.3015
11010TIP3    H154445   4.639   6.217   5.444 -1.0927 -1.7881  2.2652
11010TIP3    H254446   4.764   6.171   5.516 -0.4121 -1.2968  1.4122
11011TIP3   OH254447   2.893   1.499  16.112 -0.2190 -0.5300 -0.2298
11011TIP3    H154448   2.834   1.429  16.083 -1.5633 -0.1165  1.3682
11011TIP3    H254449   2.924   1.471  16.198 -0.9812  0.9236  0.5515
11012TIP3   OH254450   3.701   6.034   3.714 -0.4105 -0.2344  0.4598
11012TIP3    H154451   3.709   5.944   3.745 -0.5054  0.0412  1.3379
11012TIP3    H254452   3.611   6.059   3.734 -0.4342 -0.0023  0.0680
11013TIP3   OH254453   4.314   0.265  14.527  0.1415 -0.4222 -0.5209
11013TIP3    H154454   4.353   0.199  14.585  0.6966 -0.8215 -1.3305
11013TIP3    H254455   4.373   0.269  14.452  0.3450  1.3064 -0.3016
11014TIP3   OH254456   6.260   5.296   5.603  0.4900 -0.2782  0.0776
11014TIP3    H154457   6.215   5.367   5.559  0.0378 -1.5441 -1.5927
11014TIP3    H254458   6.227   5.299   5.693  0.1071  1.2718 -0.0853
11015TIP3   OH254459   3.916   1.535   0.329 -0.2929  0.4104  0.1772
11015TIP3    H154460   3.995   1.539   0.276  0.9627  2.0949  2.0583
11015TIP3    H254461   3.938   1.477   0.401 -0.0714  2.3265  1.7129
11016TIP3   OH254462   2.391   4.628  12.730 -0.0985  0.4073  0.3628
11016TIP3    H154463   2.403   4.714  12.689 -1.5758  0.6809  0.4619
11016TIP3    H254464   2.476   4.610  12.771 -0.0347  2.2486  1.1517
11017TIP3   OH254465   3.027   4.617   1.352 -0.5027  0.7336 -0.4864
11017TIP3    H154466   3.039   4.709   1.377  0.3555  0.1628  1.3463
11017TIP3    H254467   3.084   4.606   1.276  1.2263  1.1697  0.6959
11018TIP3   OH254468   0.660   0.789   2.841 -0.4324 -0.7645 -0.1157
11018TIP3    H154469   0.678   0.761   2.751  1.4097 -0.7411  0.1991
11018TIP3    H254470   0.734   0.756   2.891 -0.6666  0.5013  1.1243
11019TIP3   OH254471   2.164   5.855   5.047  0.5899  0.3769  0.1518
11019TIP3    H154472   2.133   5.835   5.135  0.9964  0.5944  0.3438
11019TIP3    H254473   2.130   5.943   5.029 -0.3654 -0.0634 -0.3141
11020TIP3   OH254474   1.303   1.923  13.135 -0.4121 -0.5438  0.8985
11020TIP3    H154475   1.277   1.932  13.226  0.3899  0.7375  1.0213
11020TIP3    H254476   1.221   1.910  13.088 -1.1546  1.6831  1.4767
11021TIP3   OH254477   3.960   1.661   1.291 -0.1822  0.6359 -0.7644
11021TIP3    H154478   3.988   1.570   1.303  0.9057  0.9883 -0.5290
11021TIP3    H254479   3.941   1.692   1.380 -1.8419  0.2639 -0.9553
11022TIP3   OH254480   2.403   3.228  13.017 -0.7345  0.6931  0.2230
11022TIP3    H154481   2.468   3.294  12.991  0.0061 -0.1419 -0.0881
11022TIP3    H254482   2.411   3.224  13.112  2.5398 -2.1665  0.0237
11023TIP3   OH254483   1.005   2.696   4.284  0.7072  0.2667 -0.2467
11023TIP3    H154484   1.021   2.629   4.217 -1.1625  0.4732 -0.9771
11023TIP3    H254485   1.034   2.656   4.366  0.9957 -0.8641 -0.8830
11024TIP3   OH254486   4.210   5.335  13.578 -0.7915  0.1729  0.7807
11024TIP3    H154487   4.235   5.277  13.507  0.6363  1.1860  0.4202
11024TIP3    H254488   4.115   5.326  13.584 -0.8057 -0.7554 -0.5112
11025TIP3   OH254489   5.734   1.681   5.647 -0.5233 -0.3273  0.4278
11025TIP3    H154490   5.647   1.711   5.624 -1.1756 -1.9238  0.7200
11025TIP3    H254491   5.729   1.586   5.643  1.5688 -0.4466 -0.8413
11026TIP3   OH254492   5.655   5.696   6.121 -0.2088 -0.2447 -0.4594
11026TIP3    H154493   5.724   5.634   6.145  0.4811  0.3360 -0.8922
11026TIP3    H254494   5.574   5.645   6.124  0.3714 -1.2281 -1.0476
11027TIP3   OH254495   3.204   5.767  17.095  0.5172  0.4287 -0.0598
11027TIP3    H154496   3.294   5.759  17.127  0.4946 -0.5113 -0.1920
11027TIP3    H254497   3.171   5.847  17.135  0.9030 -0.0488  1.2879
11028TIP3   OH254498   2.377   2.803  12.961 -0.3181  0.0041  0.1283
11028TIP3    H154499   2.455   2.776  13.010 -1.2323 -1.7354  0.6792
11028TIP3    H254500   2.315   2.832  13.027 -0.0021  1.8586 -0.3437
11029TIP3   OH254501   5.389   5.954   4.879 -0.3564 -0.4827 -0.0733
11029TIP3    H154502   5.468   5.930   4.928 -0.1721 -0.5674 -0.4077
11029TIP3    H254503   5.317   5.918   4.930 -0.2418  0.3779  0.7113
11030TIP3   OH254504   1.396   5.947  12.378  0.0862 -0.4698  0.0795
11030TIP3    H154505   1.331   5.880  12.361  1.2291 -1.6124  0.0890
11030TIP3    H254506   1.480   5.901  12.376  1.2058  1.4141 -2.9024
11031TIP3   OH254507   3.489   3.641   2.744 -0.2854  0.1145 -0.3665
11031TIP3    H154508   3.476   3.734   2.724 -0.5103 -0.3106 -2.5626
11031TIP3    H254509   3.583   3.627   2.740 -0.2328  0.2858  0.2183
11032TIP3   OH254510   5.598   2.378  17.086 -0.4307 -0.1667 -0.2911
11032TIP3    H154511   5.578   2.446  17.150 -0.2002 -1.2363  0.9626
11032TIP3    H254512   5.527   2.384  17.021 -0.2284  1.4534 -0.3969
11033TIP3   OH254513   5.585   5.873   2.752  0.2281 -0.1168  0.7190
11033TIP3    H154514   5.509   5.844   2.802 -0.0008  1.0215  1.0615
11033TIP3    H254515   5.565   5.963   2.727  1.6200  0.3475  1.1552
11034TIP3   OH254516   5.045   3.658  15.478 -0.3597 -0.0995  0.3882
11034TIP3    H154517   5.001   3.582  15.517 -0.9898 -0.0824 -0.2678
11034TIP3    H254518   5.062   3.716  15.552 -2.2845  0.3001  0.5635
11035TIP3   OH254519   3.746   2.331   6.107 -0.9947  0.5412  0.3690
11035TIP3    H154520   3.689   2.408   6.107 -0.8756  0.6312  0.0657
11035TIP3    H254521   3.824   2.360   6.060 -0.5373  0.5383  1.1160
11036TIP3   OH254522   0.536   5.163  13.215  0.1787 -0.4865  0.0330
11036TIP3    H154523   0.594   5.196  13.284 -1.8760  1.1727  1.0796
11036TIP3    H254524   0.533   5.233  13.151 -0.5069 -0.6223 -0.0948
11037TIP3   OH254525   2.738   5.072  13.177  0.2900 -0.1855 -0.6101
11037TIP3    H154526   2.662   5.016  13.158  0.1965  0.1424 -1.2320
11037TIP3    H254527   2.790   5.022  13.240 -1.0826  0.1297  0.8296
11038TIP3   OH254528   0.650   3.442   5.045  0.2968 -0.4578 -0.8425
11038TIP3    H154529   0.607   3.439   5.131  0.4958  0.0354 -0.7189
11038TIP3    H254530   0.661   3.351   5.020 -1.3229 -0.6082 -1.1266
11039TIP3   OH254531   6.665   5.927   4.888 -0.8170  1.2284 -0.4728
11039TIP3    H154532   6.754   5.897   4.868 -0.6251  0.9138  0.8036
11039TIP3    H254533   6.669   5.955   4.979 -2.7039 -1.5179  0.5766
11040TIP3   OH254534   3.571   2.915  13.605 -0.2258 -0.0413  0.4362
11040TIP3    H154535   3.519   2.988  13.573  0.0316 -0.3209 -0.6323
11040TIP3    H254536   3.646   2.909  13.546 -0.8864 -1.9344 -0.3022
11041TIP3   OH254537   4.876   6.425   6.048 -0.2539  0.3879  0.4640
11041TIP3    H154538   4.822   6.459   5.977 -0.2394 -1.9524 -0.7749
11041TIP3    H254539   4.813   6.390   6.111 -0.2709 -0.8449 -0.1967
11042TIP3   OH254540   4.141   0.266  15.034  0.2523 -0.5136 -0.4653
11042TIP3    H154541   4.090   0.255  14.954  0.0548 -0.1142 -0.3976
11042TIP3    H254542   4.181   0.353  15.025 -1.3318  0.3810  0.7286
11043TIP3   OH254543   3.550   4.780  15.542 -0.1197  0.3480  0.0888
11043TIP3    H154544   3.613   4.826  15.596 -0.6322 -0.0847  1.0832
11043TIP3    H254545   3.553   4.689  15.573  0.4923 -0.2009 -1.4670
11044TIP3   OH254546   2.987   1.562  15.718  0.2955 -1.2056  0.0889
11044TIP3    H154547   3.043   1.488  15.694  0.8435 -0.8068  0.1109
11044TIP3    H254548   2.970   1.607  15.635  1.2799 -0.4544  0.2843
11045TIP3   OH254549   0.539   4.120  14.654 -0.2795  0.2326 -0.1698
11045TIP3    H154550   0.507   4.035  14.623  1.9694 -1.4363  1.7290
11045TIP3    H254551   0.555   4.170  14.574  1.5436 -2.3837 -1.5953
11046TIP3   OH254552   3.751   5.013  15.370  0.1669  0.3010 -0.5825
11046TIP3    H154553   3.816   5.059  15.317 -0.9934 -0.4974 -2.7817
11046TIP3    H254554   3.692   5.082  15.400  1.1696  0.8350  0.2697
11047TIP3   OH254555   2.490   2.951  11.233 -0.2837  0.3999  0.6106
11047TIP3    H154556   2.442   2.871  11.215  0.1013  0.3433 -0.1814
11047TIP3    H254557   2.582   2.930  11.214 -0.1884  1.0467  0.3162
11048TIP3   OH254558   2.286   2.613   4.828 -0.4770  0.1978 -0.1830
11048TIP3    H154559   2.316   2.690   4.876  1.1896 -0.5479  0.0186
11048TIP3    H254560   2.311   2.539   4.883  0.0237 -0.5991 -1.4377
11049TIP3   OH254561   3.778   5.605  13.736  0.1334  0.4418 -0.2908
11049TIP3    H154562   3.826   5.569  13.810  0.1858 -0.4301 -0.7386
11049TIP3    H254563   3.702   5.547  13.726  0.9034 -0.3490 -1.8326
11050TIP3   OH254564   6.032   2.703   3.979 -0.2114 -0.4924  0.1656
11050TIP3    H154565   5.961   2.764   3.962  0.5690  0.4876  0.3686
11050TIP3    H254566   6.100   2.755   4.021  1.7569 -0.7623 -2.4275
11051TIP3   OH254567   6.365   5.986  13.759 -0.0036 -0.2398  0.2993
11051TIP3    H154568   6.287   6.010  13.809  0.6387 -0.2360  1.3210
11051TIP3    H254569   6.391   5.900  13.793  0.1530 -0.4752 -0.3884
11052TIP3   OH254570   1.670   4.533   3.116  0.3422  0.2539  0.4600
11052TIP3    H154571   1.715   4.564   3.038  1.0875 -0.9500  0.3956
11052TIP3    H254572   1.578   4.530   3.091  0.4745  0.7032 -0.0908
11053TIP3   OH254573   4.926   2.529   0.429 -0.4015 -0.0015  0.2933
11053TIP3    H154574   4.997   2.527   0.365 -0.9602 -1.5020 -0.3234
11053TIP3    H254575   4.945   2.459   0.490 -0.7711  0.3090  0.7715
11054TIP3   OH254576   5.280   3.364   1.121 -0.3470 -0.0984  0.4086
11054TIP3    H154577   5.347   3.304   1.154 -1.4291 -0.5934  1.8252
11054TIP3    H254578   5.283   3.438   1.182 -0.0978  0.5704 -0.4013
11055TIP3   OH254579   0.178   4.034   3.872  0.3755 -0.2842  0.1305
11055TIP3    H154580   0.099   4.006   3.825 -0.3902  0.6404  0.8142
11055TIP3    H254581   0.233   4.075   3.805  0.2161 -0.8073 -0.3258
11056TIP3   OH254582   6.118   2.347   4.688  0.1861 -0.5101  0.1593
11056TIP3    H154583   6.077   2.291   4.754 -1.1113  0.0446 -0.1439
11056TIP3    H254584   6.170   2.409   4.739  0.8362 -1.3524  0.5453
11057TIP3   OH254585   0.684   4.008   0.550 -0.1742 -0.3568  0.2241
11057TIP3    H154586   0.709   3.932   0.603  1.4913 -0.1464 -0.2028
11057TIP3    H254587   0.766   4.057   0.539 -1.2195  1.5807  0.5895
11058TIP3   OH254588   5.924   2.351  14.874 -0.4171  0.2654 -0.2156
11058TIP3    H154589   5.982   2.428  14.876  0.8863 -0.6553 -0.9133
11058TIP3    H254590   5.840   2.386  14.843  1.0335  0.9667 -3.9368
11059TIP3   OH254591   2.788   3.613  13.865 -0.5429 -0.3926 -0.3214
11059TIP3    H154592   2.694   3.629  13.870 -0.4097  0.6721 -0.8788
11059TIP3    H254593   2.816   3.604  13.957 -1.4990 -2.9697 -0.1876
11060TIP3   OH254594   4.003   5.390  15.087 -0.1231 -0.5219 -0.2923
11060TIP3    H154595   4.093   5.381  15.119 -0.7701 -1.2591  1.4538
11060TIP3    H254596   4.005   5.468  15.031  1.1989  0.5873  1.2206
11061TIP3   OH254597   5.752   4.353   2.810  0.3536  0.3589  0.1631
11061TIP3    H154598   5.725   4.266   2.780 -3.0747  1.2872  0.1008
11061TIP3    H254599   5.814   4.336   2.880 -0.3213 -2.1646  0.2552
11062TIP3   OH254600   1.516   2.801  10.569 -0.1559  0.4538 -0.5206
11062TIP3    H154601   1.459   2.838  10.637  0.7076  1.3343 -0.2457
11062TIP3    H254602   1.603   2.834  10.591  0.6645 -1.6833 -0.3281
11063TIP3   OH254603   2.643   6.304   0.207 -0.0418  0.0330  0.0869
11063TIP3    H154604   2.729   6.263   0.213 -0.6763 -1.1525  1.5773
11063TIP3    H254605   2.641   6.343   0.119  0.5150 -3.3752 -1.6069
11064TIP3   OH254606   4.205   0.375  10.706 -0.6289  0.2354  0.1747
11064TIP3    H154607   4.112   0.386  10.724 -0.3874  3.4340 -0.0325
11064TIP3    H254608   4.209   0.301  10.646 -3.3056  1.5036 -1.7374
11065TIP3   OH254609   4.537   3.382   2.322  0.1594  0.2774 -0.3310
11065TIP3    H154610   4.486   3.451   2.365 -0.0142  0.5450 -0.9582
11065TIP3    H254611   4.614   3.372   2.377 -0.6677 -0.2963  0.7721
11066TIP3   OH254612   5.765   0.697   3.587 -0.2785  0.4932  0.5507
11066TIP3    H154613   5.681   0.740   3.571 -1.4915 -0.8908  2.6880
11066TIP3    H254614   5.787   0.720   3.677  0.3891 -1.1200  0.8308
11067TIP3   OH254615   5.610   2.235   6.112  0.4324 -0.7351  0.3288
11067TIP3    H154616   5.684   2.188   6.151  1.9612  0.9147 -0.4519
11067TIP3    H254617   5.567   2.278   6.186  1.7590  0.2863  0.5389
11068TIP3   OH254618   0.191   4.646  11.599  0.0255 -0.3367  0.1866
11068TIP3    H154619   0.257   4.708  11.628 -0.8207  0.1613  1.1430
11068TIP3    H254620   0.213   4.564  11.644  0.2201 -0.2827  0.1886
11069TIP3   OH254621   0.972   0.286  13.221  0.2336  0.1838  0.3045
11069TIP3    H154622   0.949   0.209  13.168 -1.2807  0.1685  0.9161
11069TIP3    H254623   0.933   0.360  13.173 -0.3099  0.2824  0.8942
11070TIP3   OH254624   0.643   3.432  12.452 -0.2722  0.2840 -0.3420
11070TIP3    H154625   0.589   3.502  12.415 -0.8362 -0.1391 -0.3464
11070TIP3    H254626   0.721   3.476  12.484 -1.8828  1.4034  2.3912
11071TIP3   OH254627   2.532   6.085  12.010 -0.9746  0.4800  0.3691
11071TIP3    H154628   2.597   6.015  12.021 -0.1453  1.1034 -0.3889
11071TIP3    H254629   2.545   6.115  11.920 -0.2841  2.5987  1.1173
11072TIP3   OH254630   0.320   4.370  16.205  0.3099 -0.3756 -0.7545
11072TIP3    H154631   0.225   4.356  16.204  0.4433 -1.4014 -0.5055
11072TIP3    H254632   0.331   4.463  16.185 -0.8215  0.2830  1.3755
11073TIP3   OH254633   0.796   5.474  15.308 -0.3875 -0.0197  0.2619
11073TIP3    H154634   0.726   5.440  15.252 -1.7214 -0.1373  1.9370
11073TIP3    H254635   0.852   5.523  15.248 -0.9021 -1.4052 -1.4363
11074TIP3   OH254636   2.959   0.470  16.500  0.1531  1.0813 -0.2778
11074TIP3    H154637   2.982   0.396  16.444 -0.1911 -0.2109  1.2236
11074TIP3    H254638   3.015   0.460  16.577 -1.1546  1.3379  0.7464
11075TIP3   OH254639   0.929   4.518  12.143  0.1680 -0.1668 -0.3038
11075TIP3    H154640   1.008   4.544  12.096 -1.6722  0.2738 -3.4650
11075TIP3    H254641   0.923   4.579  12.216  1.7794  0.9959 -1.0909
11076TIP3   OH254642   4.807   2.572   2.617 -0.1072 -0.4331  0.9196
11076TIP3    H154643   4.822   2.661   2.586  0.4086 -0.6113  0.6344
11076TIP3    H254644   4.817   2.578   2.712 -2.1007  0.1886  1.1238
11077TIP3   OH254645   1.535   6.044   4.707  0.2517 -0.3423  0.3764
11077TIP3    H154646   1.546   5.958   4.748  0.9046 -0.5613 -0.2210
11077TIP3    H254647   1.622   6.065   4.672  0.1518  0.6641  0.6989
11078TIP3   OH254648   4.751   5.888   0.636 -0.0285  0.1542 -0.0930
11078TIP3    H154649   4.686   5.956   0.650 -1.6248 -1.3997  0.4506
11078TIP3    H254650   4.702   5.806   0.647  1.9878 -1.0777  0.1296
11079TIP3   OH254651   5.997   3.310   3.429  0.3477 -0.3054 -0.0988
11079TIP3    H154652   5.946   3.231   3.449 -0.2039 -0.0030 -0.2795
11079TIP3    H254653   6.087   3.288   3.453  1.0018 -2.4168 -3.8130
11080TIP3   OH254654   1.309   2.043  11.253  0.3116  0.6109 -0.4083
11080TIP3    H154655   1.402   2.024  11.245  0.3804  1.7974 -3.5911
11080TIP3    H254656   1.274   2.031  11.165 -2.4932  0.5633  0.6229
11081TIP3   OH254657   1.860   5.581  11.187 -0.1709  0.1084  0.1968
11081TIP3    H154658   1.790   5.614  11.130 -1.8660 -3.3731  0.0615
11081TIP3    H254659   1.828   5.596  11.276 -0.4353 -0.1840  0.1513
11082TIP3   OH254660   2.217   2.443  12.653  0.5194 -0.7080  1.5161
11082TIP3    H154661   2.153   2.490  12.706  0.2672 -0.8516  1.3434
11082TIP3    H254662   2.211   2.352  12.683 -0.2224 -0.9515  0.6842
11083TIP3   OH254663   0.866   1.981   1.301  0.6805 -0.0079  0.5247
11083TIP3    H154664   0.891   1.902   1.349  1.2253  0.3964  0.9111
11083TIP3    H254665   0.880   2.053   1.362 -0.9491  0.2981  0.5906
11084TIP3   OH254666   6.253   2.939  12.747 -0.1124 -0.4485  0.4899
11084TIP3    H154667   6.282   2.851  12.770  3.8223  0.6947  0.7357
11084TIP3    H254668   6.251   2.986  12.830  0.0509  0.1972  0.1386
11085TIP3   OH254669   2.848   1.689   4.008  0.4156 -0.0328 -0.1963
11085TIP3    H154670   2.800   1.772   4.017  0.2745 -0.2794  1.7353
11085TIP3    H254671   2.836   1.645   4.092 -0.1094 -2.3720 -1.4131
11086TIP3   OH254672   6.134   4.360   4.039  0.5620 -0.1916 -0.0453
11086TIP3    H154673   6.102   4.385   3.952 -0.1261 -1.2205 -0.1126
11086TIP3    H254674   6.072   4.293   4.068  0.0704  0.9797  1.7560
11087TIP3   OH254675   5.991   5.378  16.956  1.0463 -0.3980  0.2867
11087TIP3    H154676   5.932   5.449  16.981 -1.0446 -1.0348 -2.3730
11087TIP3    H254677   6.079   5.418  16.957  0.2138  1.5294  1.1501
11088TIP3   OH254678   3.042   6.370   5.662 -0.3912  0.1168  0.0102
11088TIP3    H154679   3.047   6.457   5.701 -2.3319  0.1782  0.2173
11088TIP3    H254680   2.950   6.357   5.642  0.0422 -1.3390 -1.3481
11089TIP3   OH254681   5.230   4.424  17.051  0.2226  0.3596 -0.2312
11089TIP3    H154682   5.231   4.515  17.081  1.1505  0.0686  0.6682
11089TIP3    H254683   5.137   4.401  17.046  0.0168  0.8319  1.1638
11090TIP3   OH254684   2.078   6.175   4.748 -0.3281 -0.0908  0.1188
11090TIP3    H154685   2.167   6.148   4.723 -0.5734 -0.3129 -0.5477
11090TIP3    H254686   2.068   6.144   4.838  1.2063  2.2243  1.1775
11091TIP3   OH254687   0.711   2.386   4.351  0.3491 -0.2015 -0.0128
11091TIP3    H154688   0.741   2.459   4.405 -0.5142  0.7462 -0.7540
11091TIP3    H254689   0.652   2.336   4.408 -1.0498  1.1376 -0.2026
11092TIP3   OH254690   3.000   1.410   4.364 -0.6342 -0.1079  0.2866
11092TIP3    H154691   3.037   1.466   4.432 -0.9228  1.0012 -0.4379
11092TIP3    H254692   2.929   1.462   4.326  0.3463 -0.1656 -1.7407
11093TIP3   OH254693   3.286   2.934   4.889  0.3577 -0.4934  0.0132
11093TIP3    H154694   3.276   2.991   4.966  1.5688  1.0154 -0.9064
11093TIP3    H254695   3.253   2.986   4.816  1.2082 -1.0845 -0.8153
11094TIP3   OH254696   0.636   6.002   4.181 -0.1125 -0.5765 -0.2368
11094TIP3    H154697   0.666   6.093   4.177 -0.3909 -0.3510  1.6010
11094TIP3    H254698   0.707   5.951   4.141  0.0852  0.4237 -1.2091
11095TIP3   OH254699   6.485   5.882  16.538  0.2198  0.1723  0.7087
11095TIP3    H154700   6.416   5.941  16.568 -1.4831 -0.1312 -2.2062
11095TIP3    H254701   6.544   5.937  16.486  0.1335 -0.2096  0.1972
11096TIP3   OH254702   0.510   3.114   1.004 -0.4248  0.1044 -0.0643
11096TIP3    H154703   0.429   3.135   0.958 -0.4893  3.3409  1.2221
11096TIP3    H254704   0.483   3.076   1.087 -0.4603 -1.6115 -0.8300
11097TIP3   OH254705   6.605   3.488   4.805  0.3387 -0.1806 -0.5716
11097TIP3    H154706   6.560   3.538   4.737 -0.7889 -0.1558  0.1736
11097TIP3    H254707   6.626   3.553   4.873 -2.4222 -0.8408  1.0778
11098TIP3   OH254708   0.725   1.682   5.044 -0.4245 -0.5461  0.0613
11098TIP3    H154709   0.751   1.642   5.127 -2.0784  3.4635  2.8260
11098TIP3    H254710   0.630   1.670   5.040 -0.6041  0.8016 -0.2965
11099TIP3   OH254711   3.034   1.516   1.823  0.1088 -0.0643 -0.1001
11099TIP3    H154712   3.008   1.606   1.803  1.0066 -0.0084 -1.1003
11099TIP3    H254713   3.086   1.523   1.903  1.1412  0.4668 -0.8070
11100TIP3   OH254714   5.238   0.157  13.750 -0.1052  0.3448  0.1694
11100TIP3    H154715   5.331   0.168  13.765 -0.2236 -0.1969  1.4022
11100TIP3    H254716   5.231   0.069  13.713 -0.1826  0.0843  0.7860
11101TIP3   OH254717   1.597   4.705  11.014 -0.1213  0.3891  0.2223
11101TIP3    H154718   1.654   4.634  11.043  0.0195  0.3255 -0.1916
11101TIP3    H254719   1.655   4.782  11.011  0.0082  0.2779 -0.4141
11102TIP3   OH254720   2.217   4.165   6.716  0.4069  0.0607 -0.0053
11102TIP3    H154721   2.299   4.166   6.667 -0.6548 -1.6213 -1.9508
11102TIP3    H254722   2.162   4.231   6.673  0.4202  0.6024  0.7734
11103TIP3   OH254723   6.194   5.766   4.016 -0.1160 -0.4264  0.8997
11103TIP3    H154724   6.262   5.773   3.950 -0.7522 -0.4322  0.2235
11103TIP3    H254725   6.220   5.827   4.085 -0.2289  0.7759 -0.0806
11104TIP3   OH254726   1.755   4.512  13.062 -0.4946 -0.0677  0.2234
11104TIP3    H154727   1.769   4.607  13.060  0.1148 -0.1363  1.0065
11104TIP3    H254728   1.661   4.502  13.044 -0.9782  0.8077  2.0478
11105TIP3   OH254729   1.391   3.726   3.439 -0.7760 -0.3544 -0.2693
11105TIP3    H154730   1.389   3.804   3.384 -0.7488 -0.4822 -0.4523
11105TIP3    H254731   1.423   3.757   3.523  1.0242 -0.4844 -0.8681
11106TIP3   OH254732   1.558   4.801  13.010  0.4689 -0.5144  0.3672
11106TIP3    H154733   1.528   4.879  12.963  0.9549 -1.2071 -1.1316
11106TIP3    H254734   1.644   4.825  13.045  0.4798 -0.2760  0.1763
11107TIP3   OH254735   1.133   6.020  16.981  0.3268  0.5595 -0.1409
11107TIP3    H154736   1.069   5.982  17.041 -0.6332 -0.0954 -1.5330
11107TIP3    H254737   1.184   5.946  16.950  0.0562  0.7211 -0.9978
11108TIP3   OH254738   3.294   1.705  14.572  0.1594  0.7536  0.1682
11108TIP3    H154739   3.211   1.713  14.526  0.4168 -1.8258 -0.9353
11108TIP3    H254740   3.351   1.770  14.530 -0.7175  1.1301 -0.4622
11109TIP3   OH254741   2.471   4.792  13.371 -0.5165 -0.8563  0.2715
11109TIP3    H154742   2.436   4.749  13.449 -0.6323 -1.0206  0.1289
11109TIP3    H254743   2.403   4.782  13.305 -0.4474 -0.6565  0.1693
11110TIP3   OH254744   5.262   4.602  16.292  0.2819 -0.3104  0.7998
11110TIP3    H154745   5.183   4.599  16.237 -0.5286 -0.6437  1.9425
11110TIP3    H254746   5.280   4.510  16.312  0.9928 -0.2373  0.5152
11111TIP3   OH254747   6.728   0.671   2.611 -0.3851 -0.0522 -0.4342
11111TIP3    H154748   6.636   0.650   2.596  0.0617 -1.1323 -1.9871
11111TIP3    H254749   6.776   0.595   2.575  1.0744 -0.0872  1.4450
11112TIP3   OH254750   2.547   5.346  15.271  0.3145 -0.2438 -0.0829
11112TIP3    H154751   2.622   5.400  15.296  0.1570 -0.7250  1.5430
11112TIP3    H254752   2.476   5.374  15.328 -0.2717 -0.9295 -0.4511
11113TIP3   OH254753   3.745   3.031   4.121 -0.2412 -0.1457 -0.2466
11113TIP3    H154754   3.811   3.041   4.189  2.0141  0.6998 -2.4171
11113TIP3    H254755   3.665   3.067   4.160  0.2617 -1.9123  2.7422
11114TIP3   OH254756   4.272   5.384  15.145 -0.3890 -0.2160  0.2523
11114TIP3    H154757   4.320   5.368  15.226 -0.8202  0.9822  0.7779
11114TIP3    H254758   4.337   5.377  15.075 -0.2041 -2.2270  0.5916
11115TIP3   OH254759   1.018   4.378   6.257 -0.2819 -0.0676 -0.5112
11115TIP3    H154760   0.995   4.291   6.291 -0.3229  0.4128  0.7355
11115TIP3    H254761   1.032   4.364   6.164 -1.7370 -1.1419 -0.6040
11116TIP3   OH254762   0.594   5.981  11.086 -0.2574  0.6227 -0.1134
11116TIP3    H154763   0.563   5.928  11.159 -1.2990  1.0414 -0.2432
11116TIP3    H254764   0.549   5.946  11.010 -1.5699  2.1440 -0.0971
11117TIP3   OH254765   2.272   3.239   5.145  0.2603  0.0138 -0.4801
11117TIP3    H154766   2.219   3.167   5.181  0.8036 -0.1606 -0.0018
11117TIP3    H254767   2.238   3.253   5.057 -1.4320  0.7608  0.2647
11118TIP3   OH254768   3.010   4.777   5.497  0.2457 -0.1798  0.4721
11118TIP3    H154769   2.981   4.829   5.572 -0.7968 -0.5219  0.3253
11118TIP3    H254770   3.017   4.688   5.531 -0.6292 -0.4075  0.0741
11119TIP3   OH254771   1.903   5.412  11.700 -0.2811  0.2791  0.0326
11119TIP3    H154772   1.816   5.430  11.736 -1.1683 -0.7724 -1.4655
11119TIP3    H254773   1.888   5.399  11.607  1.6485  1.0116 -0.4339
11120TIP3   OH254774   1.780   5.905   5.562 -0.4864  0.0361 -0.5036
11120TIP3    H154775   1.803   5.992   5.528 -0.4624 -0.3200 -1.4299
11120TIP3    H254776   1.862   5.872   5.599 -0.5840  0.5502  0.1907
11121TIP3   OH254777   0.481   6.116  11.526 -1.0117  0.5670 -0.6539
11121TIP3    H154778   0.471   6.167  11.607 -0.3614 -0.1109 -0.1347
11121TIP3    H254779   0.549   6.162  11.477 -0.0119 -0.0944  0.0726
11122TIP3   OH254780   0.610   4.011  14.914  0.1653 -0.2592  0.1623
11122TIP3    H154781   0.519   4.032  14.933  0.7648  1.0865  1.7460
11122TIP3    H254782   0.611   3.992  14.820 -1.5883  0.5681 -0.0603
11123TIP3   OH254783   5.872   5.217   5.090 -0.0029 -0.0625  0.4808
11123TIP3    H154784   5.901   5.131   5.060 -0.1689 -0.3649  1.1748
11123TIP3    H254785   5.873   5.211   5.185 -1.3456  0.2535  0.5365
11124TIP3   OH254786   4.146   1.163  16.379 -0.2875  0.4136 -0.7730
11124TIP3    H154787   4.161   1.142  16.471 -0.7753  0.2630 -0.7251
11124TIP3    H254788   4.057   1.133  16.361  0.2658 -0.8028 -1.6567
11125TIP3   OH254789   3.150   4.857  16.136  0.0765 -0.4295  0.4316
11125TIP3    H154790   3.234   4.831  16.098  0.1406 -0.1218  0.3544
11125TIP3    H254791   3.084   4.819  16.078  0.1225 -1.9044  1.3010
11126TIP3   OH254792   3.901   6.487  16.549  0.1979 -1.0363  0.0402
11126TIP3    H154793   3.995   6.480  16.532  0.7481  1.8566  1.2632
11126TIP3    H254794   3.895   6.533  16.633 -2.3626 -2.7969  0.9590
11127TIP3   OH254795   1.943   1.610  11.271 -0.2501  0.0220 -0.8715
11127TIP3    H154796   2.037   1.625  11.259 -0.1080  0.3459  0.4710
11127TIP3    H254797   1.935   1.584  11.363 -1.3746 -0.8883 -1.2045
11128TIP3   OH254798   4.314   5.673  15.976 -0.2454 -0.8310  0.0761
11128TIP3    H154799   4.371   5.596  15.982 -0.2630 -0.8394  0.1370
11128TIP3    H254800   4.246   5.657  16.042  0.8196  0.1173  1.4724
11129TIP3   OH254801   0.481   1.561   2.208  0.4026  0.2567  0.0046
11129TIP3    H154802   0.454   1.598   2.292  1.3881 -0.7367  0.8039
11129TIP3    H254803   0.400   1.552   2.158  0.1010  3.2802 -0.1939
11130TIP3   OH254804   4.315   2.102   2.919 -0.1356 -0.2162  0.0862
11130TIP3    H154805   4.240   2.066   2.872 -0.1419 -1.0363  0.7206
11130TIP3    H254806   4.276   2.151   2.992 -0.0969  0.5491 -0.3854
11131TIP3   OH254807   4.494   5.459  17.314  0.1019  0.7241 -0.1947
11131TIP3    H154808   4.579   5.446  17.355 -0.9506  1.6159  2.4727
11131TIP3    H254809   4.508   5.533  17.255  0.9203  1.6667  1.1312
11132TIP3   OH254810   0.574   0.390  15.843  0.3559  0.5682  0.3989
11132TIP3    H154811   0.551   0.406  15.752 -0.7235  0.7175  0.6813
11132TIP3    H254812   0.599   0.476  15.877 -1.6948  1.0108  0.8935
11133TIP3   OH254813   4.804   2.455   5.216 -0.4991  0.1462 -0.2484
11133TIP3    H154814   4.862   2.525   5.245 -0.8256 -0.2835  1.6138
11133TIP3    H254815   4.829   2.438   5.126  1.2609  0.9742  0.0446
11134TIP3   OH254816   3.632   6.270   5.784 -0.3257 -0.2215  0.1197
11134TIP3    H154817   3.689   6.343   5.763 -2.8053  1.2514 -2.1766
11134TIP3    H254818   3.684   6.192   5.764  1.7593  0.9256  0.8444
11135TIP3   OH254819   1.654   1.226  14.290 -0.7134 -0.4935 -0.5003
11135TIP3    H154820   1.659   1.135  14.261 -1.0360 -0.1633 -1.6194
11135TIP3    H254821   1.674   1.277  14.212 -1.8369  0.4253 -0.2136
11136TIP3   OH254822   1.742   0.023  13.851  0.1414 -0.0511 -0.5873
11136TIP3    H154823   1.785   0.092  13.901 -2.6634 -0.3389  2.5588
11136TIP3    H254824   1.768  -0.058  13.894 -0.7824 -0.4920 -0.8359
11137TIP3   OH254825   3.758   1.016  13.464 -0.1234  0.5184  0.1008
11137TIP3    H154826   3.674   0.976  13.442 -0.3163  0.6738  0.5540
11137TIP3    H254827   3.736   1.091  13.520  0.3143  0.5297  0.2644
11138TIP3   OH254828   6.077   4.556  14.124  0.7126 -0.2562  0.2405
11138TIP3    H154829   6.031   4.618  14.067 -0.9585 -0.9591  0.7358
11138TIP3    H254830   6.096   4.607  14.203 -1.2533 -0.4682  0.9185
11139TIP3   OH254831   6.614   0.727   3.372  0.0942 -0.5541 -0.4997
11139TIP3    H154832   6.604   0.808   3.323 -0.7257 -0.3622 -0.0266
11139TIP3    H254833   6.526   0.690   3.377 -0.4745  0.8197  3.1677
11140TIP3   OH254834   3.518   3.362   4.634 -0.6305 -0.0114  0.1967
11140TIP3    H154835   3.522   3.427   4.704  1.1858  1.5081 -1.2022
11140TIP3    H254836   3.547   3.281   4.676  0.4589  0.8595  1.2262
11141TIP3   OH254837   5.780   5.225   6.450  0.3267 -0.2175 -0.1845
11141TIP3    H154838   5.805   5.175   6.528  2.1593  2.1566  0.8909
11141TIP3    H254839   5.863   5.253   6.412 -0.5756  1.7034 -0.8798
11142TIP3   OH254840   5.806   3.469  12.974 -0.4973 -0.2275  0.4359
11142TIP3    H154841   5.846   3.493  13.057 -0.9235 -0.7374  0.7966
11142TIP3    H254842   5.713   3.490  12.984 -0.7993 -1.5239  0.5899
11143TIP3   OH254843   6.501   1.564  15.652  0.3438  0.7533 -0.0430
11143TIP3    H154844   6.440   1.528  15.588 -0.2771  0.5888  0.6228
11143TIP3    H254845   6.499   1.501  15.724  1.0575  0.9153  0.1253
11144TIP3   OH254846   3.143   4.185  14.715 -0.0188 -0.9040 -0.0222
11144TIP3    H154847   3.180   4.134  14.642  0.7332 -1.0691  0.4582
11144TIP3    H254848   3.069   4.232  14.677  1.6079  0.6616 -1.4257
11145TIP3   OH254849   5.366   3.950   0.834 -0.3976  0.0988 -0.5362
11145TIP3    H154850   5.401   3.996   0.758 -1.2182 -0.6285 -1.3853
11145TIP3    H254851   5.386   3.858   0.817 -1.0179 -0.1201 -0.1011
11146TIP3   OH254852   5.596   5.864   5.055  0.3602 -0.0674 -0.4120
11146TIP3    H154853   5.518   5.861   5.110 -0.3884  2.6397 -1.1667
11146TIP3    H254854   5.624   5.773   5.047 -1.2189 -0.8410  1.9649
11147TIP3   OH254855   1.810   3.667   4.907  0.4382 -0.1925  0.4019
11147TIP3    H154856   1.715   3.665   4.915  0.4295 -2.6706  0.5135
11147TIP3    H254857   1.842   3.644   4.994  1.0857 -0.5815  0.0682
11148TIP3   OH254858   6.326   0.599   5.652  0.2000  0.6279  0.2561
11148TIP3    H154859   6.360   0.675   5.699 -0.5500  1.3346 -0.3307
11148TIP3    H254860   6.373   0.524   5.690 -1.9057  0.8686  3.7234
11149TIP3   OH254861   6.398   5.010  12.630  0.2627 -0.8837 -0.2997
11149TIP3    H154862   6.483   4.982  12.596  0.9793 -0.8741  1.3803
11149TIP3    H254863   6.349   5.039  12.552  1.2197 -2.3201 -1.4869
11150TIP3   OH254864   1.839   2.957  14.183 -0.2208 -0.2978  0.7690
11150TIP3    H154865   1.768   2.906  14.221 -0.6286  0.8901  1.6647
11150TIP3    H254866   1.817   3.048  14.204  0.5775  0.2481 -0.6080
11151TIP3   OH254867   2.816   2.814  13.942 -0.0722  0.1329 -0.0122
11151TIP3    H154868   2.734   2.835  13.987  0.3790  1.9473  0.0552
11151TIP3    H254869   2.812   2.865  13.861  1.2003  0.6650  0.2357
11152TIP3   OH254870   3.862   1.721  13.948 -0.0098  0.3156  0.0928
11152TIP3    H154871   3.892   1.780  14.017  0.1290  1.4815 -0.9307
11152TIP3    H254872   3.890   1.763  13.867  0.7445 -1.5427 -0.6556
11153TIP3   OH254873   6.491   4.255  13.575 -0.2075 -0.0542  0.1655
11153TIP3    H154874   6.489   4.205  13.493 -0.3522  0.4072 -0.1108
11153TIP3    H254875   6.559   4.211  13.627 -0.0171 -0.2624 -0.2535
11154TIP3   OH254876   0.658   0.508  14.263 -0.1412  0.1655 -0.4881
11154TIP3    H154877   0.615   0.431  14.225  0.1874 -0.8608  1.1719
11154TIP3    H254878   0.587   0.556  14.306  0.1141 -0.9342  1.2609
11155TIP3   OH254879   6.118   0.836   4.348  0.2509  0.2159 -0.3591
11155TIP3    H154880   6.095   0.838   4.441  1.9984  0.3067  0.1010
11155TIP3    H254881   6.058   0.771   4.311 -0.4133  0.1040  0.8332
11156TIP3   OH254882   5.334   3.626  13.157 -0.2562  0.3162  0.0081
11156TIP3    H154883   5.396   3.678  13.209  0.1817 -0.5397  0.3592
11156TIP3    H254884   5.261   3.610  13.217 -0.3559  0.4609 -0.0742
11157TIP3   OH254885   0.364   4.545  15.721  0.5649  0.6555  0.2235
11157TIP3    H154886   0.343   4.636  15.704  1.5172  1.3091  2.2223
11157TIP3    H254887   0.395   4.511  15.637 -1.7915  1.5296 -1.0915
11158TIP3   OH254888   0.401   3.892  15.776  0.0310  0.2337 -0.1385
11158TIP3    H154889   0.433   3.831  15.709 -0.2699 -0.3851  0.2649
11158TIP3    H254890   0.480   3.934  15.810  0.2515  0.0372 -0.4015
11159TIP3   OH254891   3.765   4.841   5.480  0.2812  0.1679 -0.3184
11159TIP3    H154892   3.732   4.870   5.565  1.6167 -0.4019  0.4259
11159TIP3    H254893   3.823   4.768   5.501 -0.2545 -0.7443 -1.8290
11160TIP3   OH254894   5.400   5.961   3.137 -0.0743  0.2401 -0.1456
11160TIP3    H154895   5.448   5.893   3.090 -1.2795 -0.1611 -0.8120
11160TIP3    H254896   5.316   5.967   3.093 -0.9541  0.3854  1.4783
11161TIP3   OH254897   5.511   0.892   3.915 -0.0525 -0.2568  0.3372
11161TIP3    H154898   5.482   0.813   3.962 -1.2575 -0.3592 -0.5247
11161TIP3    H254899   5.494   0.964   3.977  0.1390 -0.5742  0.7619
11162TIP3   OH254900   3.932   2.362   0.814  0.0402  0.2041 -0.1206
11162TIP3    H154901   3.845   2.355   0.773 -0.1585 -2.1165  0.5187
11162TIP3    H254902   3.993   2.346   0.743  0.0365  2.7259 -0.7556
11163TIP3   OH254903   5.832   6.001   2.222  0.8512 -0.1566  0.2305
11163TIP3    H154904   5.862   5.933   2.162 -1.8235  0.2769 -1.7787
11163TIP3    H254905   5.777   5.955   2.286  0.4421 -0.1253 -0.0942
11164TIP3   OH254906   1.609   0.362   2.163 -0.2661  0.3621  0.0473
11164TIP3    H154907   1.694   0.320   2.149 -0.7002 -0.3419 -0.5562
11164TIP3    H254908   1.557   0.296   2.209 -0.7257  0.5067 -0.2592
11165TIP3   OH254909   0.663   3.092   0.355 -0.3225 -0.3006  0.4428
11165TIP3    H154910   0.749   3.058   0.379  0.7916  1.3242 -0.9944
11165TIP3    H254911   0.636   3.143   0.432  0.4005 -0.0970  0.5699
11166TIP3   OH254912   1.213   6.720   6.297  0.1079  0.4803 -0.0285
11166TIP3    H154913   1.225   6.641   6.244  1.1631  2.6356 -3.3059
11166TIP3    H254914   1.133   6.703   6.348 -0.6609 -2.0236 -1.8657
11167TIP3   OH254915   2.292   2.771   1.790  0.0368  0.1187  0.2531
11167TIP3    H154916   2.206   2.806   1.812 -0.0664  1.2218 -1.7060
11167TIP3    H254917   2.348   2.796   1.863 -1.3803 -1.1243  1.8545
11168TIP3   OH254918   5.311   4.455   3.342  0.3243 -0.0428 -0.0983
11168TIP3    H154919   5.226   4.482   3.379  0.8799 -0.3388  1.4966
11168TIP3    H254920   5.375   4.483   3.407  1.4005 -0.4257 -0.9648
11169TIP3   OH254921   0.065   5.158  12.583 -0.0312 -0.5581 -0.2114
11169TIP3    H154922   0.133   5.181  12.520  0.9173  1.3482  1.3910
11169TIP3    H254923   0.107   5.093  12.640  0.1788 -0.0466  0.2325
11170TIP3   OH254924   0.029   2.906  16.311  0.4270  0.0778 -0.1632
11170TIP3    H154925   0.012   2.868  16.397  0.1795  0.4017 -0.0661
11170TIP3    H254926  -0.055   2.898  16.264  0.3452  0.5733 -0.1121
11171TIP3   OH254927   5.743   1.508   1.383  0.2472  0.2974 -0.0079
11171TIP3    H154928   5.806   1.489   1.453  0.6087  0.6901 -0.2213
11171TIP3    H254929   5.679   1.437   1.389  1.7851 -1.2435 -1.0562
11172TIP3   OH254930   5.292   5.636  14.280 -0.0484 -0.5199  0.4197
11172TIP3    H154931   5.324   5.683  14.357 -0.7587  2.3976 -0.9329
11172TIP3    H254932   5.371   5.611  14.233  0.4756  2.5196 -0.5533
11173TIP3   OH254933   3.150   0.719  14.170 -0.4573 -0.1576 -0.6061
11173TIP3    H154934   3.091   0.790  14.196 -0.3097  0.2659 -1.3995
11173TIP3    H254935   3.214   0.715  14.241 -1.7062 -0.9613  0.5272
11174TIP3   OH254936   3.946   3.603   4.411  0.3649 -0.2274  0.0416
11174TIP3    H154937   3.986   3.617   4.325  0.6559 -0.4651  0.1353
11174TIP3    H254938   3.855   3.581   4.392 -0.0678  1.5813 -0.1179
11175TIP3   OH254939   3.738   4.752   5.009  0.1369  0.0914  0.3829
11175TIP3    H154940   3.659   4.794   4.976  1.0639 -0.0715 -2.3098
11175TIP3    H254941   3.716   4.659   5.013  0.1507  0.0577 -0.2665
11176TIP3   OH254942   2.215   3.994  11.423  0.0379 -0.3911  0.1837
11176TIP3    H154943   2.170   3.933  11.364 -1.6109  0.2301  0.7476
11176TIP3    H254944   2.306   3.990  11.396 -0.7876  0.7622 -3.2488
11177TIP3   OH254945   6.096   4.963  15.357 -0.3059 -0.4714 -0.2681
11177TIP3    H154946   6.095   4.907  15.435 -0.1428  0.1326  0.1782
11177TIP3    H254947   6.028   4.927  15.301  1.3302 -2.5499 -1.0354
11178TIP3   OH254948   5.023   1.724   5.661 -0.0965  0.2317  0.3906
11178TIP3    H154949   5.090   1.659   5.680  0.4726  1.0400  1.2647
11178TIP3    H254950   5.043   1.753   5.572  0.4627  0.1439  0.4812
11179TIP3   OH254951   5.460   5.389   4.800 -0.8324  0.3059  0.3452
11179TIP3    H154952   5.457   5.347   4.886  0.8279  0.0337  0.3060
11179TIP3    H254953   5.551   5.376   4.770 -1.0636  1.4112 -0.9345
11180TIP3   OH254954   3.382   4.167  11.797  0.3389 -0.8889 -0.0543
11180TIP3    H154955   3.477   4.164  11.790  0.3380 -0.7243 -0.1222
11180TIP3    H254956   3.350   4.169  11.707  0.2213 -2.5363 -0.0829
11181TIP3   OH254957   1.697   4.842  15.343  0.3801 -0.2422 -0.0613
11181TIP3    H154958   1.733   4.761  15.376  1.0022  0.4375  0.9748
11181TIP3    H254959   1.689   4.828  15.248  0.8286 -1.3529  0.0515
11182TIP3   OH254960   2.603   1.253  12.105  0.0564  0.0906  0.0855
11182TIP3    H154961   2.663   1.260  12.031 -1.4845 -0.6409 -1.2654
11182TIP3    H254962   2.660   1.233  12.180  1.4909 -0.5383 -1.1335
11183TIP3   OH254963   4.300   0.964  12.013  0.2835 -0.1367  0.9117
11183TIP3    H154964   4.337   0.907  12.081  0.0243  0.4906  1.6009
11183TIP3    H254965   4.347   1.047  12.023  0.2051 -0.0239  0.3601
11184TIP3   OH254966   1.760   5.742  16.262  0.1642 -0.5400 -1.0272
11184TIP3    H154967   1.731   5.762  16.172  1.1812  2.1189 -0.8415
11184TIP3    H254968   1.826   5.808  16.281 -2.1713  1.0522  2.7691
11185TIP3   OH254969   1.527   3.811   1.355  0.2920  0.5263 -0.7610
11185TIP3    H154970   1.462   3.797   1.424  0.4144  1.4492 -0.4451
11185TIP3    H254971   1.607   3.836   1.401  0.9081 -0.6911 -1.1437
11186TIP3   OH254972   2.240   0.255  13.584  0.0948  0.2069 -0.0699
11186TIP3    H154973   2.175   0.196  13.546 -0.6658  1.0257 -0.0562
11186TIP3    H254974   2.300   0.197  13.631  1.0294 -0.8312 -2.4321
11187TIP3   OH254975   4.395   1.916  14.676  0.1264  0.4468 -0.5260
11187TIP3    H154976   4.482   1.946  14.703  0.0050  0.4671 -0.1529
11187TIP3    H254977   4.334   1.976  14.720 -0.0529  1.0659 -1.5779
11188TIP3   OH254978   6.276   0.254   5.621 -0.6401 -0.3786  0.3949
11188TIP3    H154979   6.285   0.161   5.644  3.7431 -0.3801 -0.4254
11188TIP3    H254980   6.352   0.295   5.662  0.8155  1.7350 -3.9462
11189TIP3   OH254981   5.633   3.260  11.886 -0.0928 -0.1446  0.3978
11189TIP3    H154982   5.646   3.298  11.799 -0.3633  0.2331  0.5233
11189TIP3    H254983   5.588   3.328  11.936 -0.1528 -0.4500  0.7634
11190TIP3   OH254984   1.840   1.099   2.870  0.4578 -0.4149  0.5748
11190TIP3    H154985   1.844   1.021   2.926  0.8808 -1.1175 -0.3954
11190TIP3    H254986   1.799   1.166   2.925  0.0580 -1.3232  1.4244
11191TIP3   OH254987   1.887   4.434  15.215  0.0774  0.1618 -0.2306
11191TIP3    H154988   1.823   4.425  15.144 -0.3514 -2.5680  0.3833
11191TIP3    H254989   1.969   4.457  15.171 -0.8670  1.8057 -1.2228
11192TIP3   OH254990   4.950   4.427  17.068 -0.9999  0.5527  0.5933
11192TIP3    H154991   4.867   4.467  17.095 -1.2800 -1.1301  2.4443
11192TIP3    H254992   4.925   4.340  17.037 -0.0742  0.6027 -0.3209
11193TIP3   OH254993   0.680   6.439   3.930  0.5710 -0.4076 -0.3577
11193TIP3    H154994   0.729   6.496   3.989  0.0459 -1.3604  1.0553
11193TIP3    H254995   0.707   6.467   3.842 -0.1582  2.4586  0.2093
11194TIP3   OH254996   5.253   4.253   5.811 -1.0172  0.1860 -0.2702
11194TIP3    H154997   5.306   4.173   5.819 -0.9967  0.2350  0.0835
11194TIP3    H254998   5.234   4.260   5.717 -2.8374 -1.4288 -0.0966
11195TIP3   OH254999   5.450   4.295   1.071 -0.2559  0.3915  0.1132
11195TIP3    H155000   5.439   4.386   1.044  1.1191  0.3748 -0.6323
11195TIP3    H255001   5.362   4.258   1.068 -0.5686  1.1320 -1.7165
11196TIP3   OH255002   4.077   2.231   0.035  0.3093  0.2352 -0.2721
11196TIP3    H155003   3.989   2.256   0.007  0.4364  2.9782  1.3507
11196TIP3    H255004   4.127   2.223  -0.046 -1.1786 -0.4295 -1.1620
11197TIP3   OH255005   6.324   3.800  16.147  0.2437  0.2588  0.1302
11197TIP3    H155006   6.376   3.730  16.108  3.1209  1.5839  1.3210
11197TIP3    H255007   6.350   3.800  16.239 -0.7257  1.9915  0.4370
11198TIP3   OH255008   4.671   5.064   2.118  0.2003  0.4827 -0.0350
11198TIP3    H155009   4.606   5.128   2.089  0.4427  0.3425 -0.9173
11198TIP3    H255010   4.622   5.008   2.178 -0.6854  0.0258 -1.1252
11199TIP3   OH255011   4.964   2.248   4.016  0.3271  0.2396 -0.3174
11199TIP3    H155012   4.990   2.321   3.959 -0.8976  0.1678 -0.9994
11199TIP3    H255013   4.877   2.223   3.985 -0.2968  0.0477  1.4453
11200TIP3   OH255014   0.534   2.889  15.534  0.4248  0.1146 -0.0085
11200TIP3    H155015   0.589   2.851  15.466 -1.2053 -3.3217  0.3701
11200TIP3    H255016   0.456   2.920  15.488 -0.2402 -1.2875  0.1449
11201TIP3   OH255017   5.582   3.668  17.265 -0.2022  0.3950 -0.2300
11201TIP3    H155018   5.543   3.630  17.186  1.4468 -1.6088 -0.1674
11201TIP3    H255019   5.649   3.727  17.232 -0.3382  0.4936 -0.3297
11202TIP3   OH255020   1.371   6.461   3.140  0.4276 -0.2271 -0.3475
11202TIP3    H155021   1.316   6.469   3.218  1.0904 -0.6316  0.1744
11202TIP3    H255022   1.381   6.550   3.108  0.6024  0.0105  0.3518
11203TIP3   OH255023   1.858   4.251  13.030  0.7052 -0.9705  0.4251
11203TIP3    H155024   1.804   4.322  12.995  1.8889 -1.2798 -2.2577
11203TIP3    H255025   1.795   4.185  13.058 -0.3862 -0.7017 -1.2199
11204TIP3   OH255026   3.877   1.042  16.273  0.1008  0.1720  0.4410
11204TIP3    H155027   3.829   0.960  16.277  0.6663 -0.1381  1.0590
11204TIP3    H255028   3.937   1.032  16.199  0.3956 -0.0972  0.7162
11205TIP3   OH255029   6.072   1.896   0.861  0.1100 -0.3934 -0.1775
11205TIP3    H155030   6.093   1.875   0.952  0.2423 -1.1174 -0.3768
11205TIP3    H255031   6.022   1.978   0.868 -1.0450 -1.1245  0.6618
11206TIP3   OH255032   3.687   2.090  13.487  0.2263  0.0306  0.0524
11206TIP3    H155033   3.605   2.051  13.518 -2.2264  1.5668 -3.7105
11206TIP3    H255034   3.706   2.160  13.549 -1.6914 -0.0057  0.7590
11207TIP3   OH255035   1.209   6.386   2.133  0.8588  0.7730  0.2727
11207TIP3    H155036   1.153   6.372   2.056  0.2173  0.7810  0.7347
11207TIP3    H255037   1.292   6.417   2.096  0.1426  2.0206 -0.3485
11208TIP3   OH255038   1.960   6.224  11.204  0.3426  0.2193  0.2758
11208TIP3    H155039   1.906   6.242  11.127  0.9597 -1.0777 -0.5017
11208TIP3    H255040   2.022   6.297  11.208 -1.8668  2.1482  1.6388
11209TIP3   OH255041   2.065   3.687  12.037  0.0476  0.1437 -0.0509
11209TIP3    H155042   2.148   3.721  12.070  0.2485 -2.0753  2.0834
11209TIP3    H255043   2.091   3.612  11.983 -0.5394 -0.0087 -0.1220
11210TIP3   OH255044   2.540   1.591  12.459 -0.2634  0.3206 -0.4785
11210TIP3    H155045   2.598   1.624  12.390  2.3891 -1.9415  0.4731
11210TIP3    H255046   2.584   1.614  12.541  1.4506 -4.5170  0.2552
11211TIP3   OH255047   2.971   3.059  14.361  0.0108 -0.5545 -0.3395
11211TIP3    H155048   3.066   3.052  14.351  0.1779  1.4659 -0.6639
11211TIP3    H255049   2.957   3.068  14.455  0.2787  0.3001 -0.3676
11212TIP3   OH255050   4.459   3.593   2.467  0.1635 -0.8054 -0.2469
11212TIP3    H155051   4.526   3.563   2.527  1.8924 -0.0025 -1.6916
11212TIP3    H255052   4.408   3.657   2.518  0.9036 -0.9265  0.6675
11213TIP3   OH255053   6.144   5.388   6.695  0.1373 -0.0625 -0.5267
11213TIP3    H155054   6.062   5.365   6.652  0.7049 -1.1204 -1.0870
11213TIP3    H255055   6.202   5.313   6.677  1.4374  0.9650 -0.7264
11214TIP3   OH255056   1.920   0.613  13.483  0.5151  0.4625 -0.0455
11214TIP3    H155057   1.911   0.518  13.489 -0.5035  0.5508  0.1402
11214TIP3    H255058   1.950   0.640  13.569  2.5291  0.1717 -0.6006
11215TIP3   OH255059   6.364   2.068  15.651 -0.4189  0.1773  0.2571
11215TIP3    H155060   6.375   2.129  15.724  0.0515  0.5159 -0.0884
11215TIP3    H255061   6.380   1.982  15.688 -4.1351 -0.1399  1.5025
11216TIP3   OH255062   1.313   1.089  12.799 -0.2817  0.4739 -0.1000
11216TIP3    H155063   1.374   1.096  12.726 -0.2588 -2.0180 -0.3917
11216TIP3    H255064   1.359   1.038  12.865 -1.3631  0.1883  0.4551
11217TIP3   OH255065   5.286   5.887   1.880  0.1694 -0.4361  0.3457
11217TIP3    H155066   5.365   5.890   1.935  0.3879  2.2621  0.0391
11217TIP3    H255067   5.303   5.819   1.816  2.6836  0.6326 -0.2381
11218TIP3   OH255068   4.697   1.442   5.072  0.4426  0.1154 -0.5544
11218TIP3    H155069   4.774   1.469   5.121  0.9612  0.8788 -1.7455
11218TIP3    H255070   4.661   1.368   5.122 -0.0474  1.8691  1.8815
11219TIP3   OH255071   3.532   3.307  11.466 -0.2636 -0.1190  0.1453
11219TIP3    H155072   3.496   3.314  11.378 -2.4396 -1.5075  0.8338
11219TIP3    H255073   3.510   3.391  11.508 -0.4498  0.0161 -0.2178
11220TIP3   OH255074   5.962   4.624  11.798  0.2625  0.0133 -0.0798
11220TIP3    H155075   6.058   4.622  11.801  0.3016  1.4074  0.1766
11220TIP3    H255076   5.941   4.652  11.709  0.1033  0.2613  0.0357
11221TIP3   OH255077   6.178   6.142   5.289 -0.5837  0.1952  0.6945
11221TIP3    H155078   6.118   6.204   5.247  0.2021 -0.1274 -0.9554
11221TIP3    H255079   6.166   6.060   5.241  1.8809  0.3953 -0.3944
11222TIP3   OH255080   1.338   5.626  12.606  0.0601  0.5677 -0.5948
11222TIP3    H155081   1.407   5.605  12.669  1.6853 -1.3741 -2.8511
11222TIP3    H255082   1.257   5.608  12.653  1.0670  1.3991  1.6249
11223TIP3   OH255083   5.449   4.046   5.636 -0.0276  1.0405 -0.2359
11223TIP3    H155084   5.401   4.037   5.554 -0.5016  1.4235 -0.0058
11223TIP3    H255085   5.422   3.970   5.688  0.7770  0.4413 -0.6790
11224TIP3   OH255086   2.755   1.380   3.511  0.0865  0.3681 -0.4850
11224TIP3    H155087   2.786   1.465   3.541 -1.0072  0.5658  0.1376
11224TIP3    H255088   2.665   1.395   3.483  0.7475  0.0133 -3.1406
11225TIP3   OH255089   3.023   0.424  16.216  0.5789 -0.0552  0.4965
11225TIP3    H155090   3.010   0.341  16.261 -0.5372 -1.0410 -1.5102
11225TIP3    H255091   3.099   0.408  16.159  0.6271  0.4499  0.4171
11226TIP3   OH255092   4.757   5.057  14.213  0.0500 -0.1830 -0.9316
11226TIP3    H155093   4.770   5.004  14.291  0.1238 -0.0144 -0.8286
11226TIP3    H255094   4.845   5.074  14.180  0.0848  0.7039 -0.4029
11227TIP3   OH255095   3.400   4.177   4.569  0.3867  0.7082 -0.1940
11227TIP3    H155096   3.421   4.212   4.482  0.2167 -0.4009 -0.6922
11227TIP3    H255097   3.474   4.206   4.624  0.5110  1.3892 -0.7009
11228TIP3   OH255098   2.568   2.596   0.332 -0.2853  0.0328 -0.7334
11228TIP3    H155099   2.588   2.612   0.424  1.0612 -1.4899 -0.7097
11228TIP3    H255100   2.477   2.565   0.332  0.5665 -2.8338  0.5346
11229TIP3   OH255101   3.962   4.926  15.134  0.0971  0.1534 -0.4785
11229TIP3    H155102   4.035   4.922  15.071  0.1595 -1.6313 -0.3376
11229TIP3    H255103   3.939   5.019  15.137  1.5531  0.5940 -1.4579
11230TIP3   OH255104   2.695   6.120   5.071  0.0980 -0.2571 -0.5575
11230TIP3    H155105   2.785   6.102   5.100  0.3434 -0.4206 -1.4107
11230TIP3    H255106   2.644   6.121   5.152  0.6627 -1.4051 -0.1658
11231TIP3   OH255107   6.482   0.859  12.373  0.1727  0.1658  0.1801
11231TIP3    H155108   6.546   0.788  12.365 -0.8271 -1.0305  2.1545
11231TIP3    H255109   6.424   0.847  12.298  0.3297 -0.7909  0.1921
11232TIP3   OH255110   2.375   5.833  11.345 -0.3477  0.0656  0.1106
11232TIP3    H155111   2.461   5.873  11.355  0.8309 -1.8033 -1.8609
11232TIP3    H255112   2.351   5.806  11.434  1.3179  0.2124  0.6465
11233TIP3   OH255113   6.007   2.802   4.430  0.6817 -0.0613  0.1806
11233TIP3    H155114   5.912   2.789   4.429  0.8274 -1.1789 -0.1751
11233TIP3    H255115   6.040   2.729   4.483  1.4095 -0.1653 -0.4101
11234TIP3   OH255116   3.816   5.412  14.251  0.3570  0.5496 -0.1171
11234TIP3    H155117   3.729   5.412  14.212  0.2494 -1.0810  0.0799
11234TIP3    H255118   3.800   5.407  14.345  0.6674  1.7286  0.0217
11235TIP3   OH255119   4.033   1.796  16.874 -0.7175  0.2534 -0.0213
11235TIP3    H155120   3.941   1.780  16.892 -0.7174  0.9477  0.6229
11235TIP3    H255121   4.069   1.709  16.857 -1.6842  0.0729 -1.3017
11236TIP3   OH255122   6.290   6.044   2.030  0.7508 -0.4661  0.2130
11236TIP3    H155123   6.381   6.023   2.051  0.6135 -2.1687 -0.7055
11236TIP3    H255124   6.242   5.963   2.046 -0.4641  0.1495 -0.1465
11237TIP3   OH255125   6.525   1.653  15.256 -0.1549  0.4016 -0.3296
11237TIP3    H155126   6.587   1.712  15.301  2.6026 -0.7479 -2.3704
11237TIP3    H255127   6.559   1.565  15.273 -1.3582 -0.3022 -1.4146
11238TIP3   OH255128   4.541   6.613   5.314 -0.1207 -0.1146  0.2160
11238TIP3    H155129   4.483   6.683   5.284  1.5244  0.9828 -0.6244
11238TIP3    H255130   4.577   6.645   5.396  2.2360  1.1166 -1.1732
11239TIP3   OH255131   1.305   0.755  12.514 -0.2012 -0.2314  0.6628
11239TIP3    H155132   1.222   0.802  12.517 -0.4948 -0.7632  2.5605
11239TIP3    H255133   1.301   0.704  12.433 -1.6310 -0.0664  0.6080
11240TIP3   OH255134   1.392   3.754  15.245 -0.1493 -0.3239  0.2358
11240TIP3    H155135   1.394   3.838  15.290  1.3643  0.7986 -1.7765
11240TIP3    H255136   1.364   3.774  15.156  0.3355 -1.9249 -0.3203
11241TIP3   OH255137   1.822   3.362   0.951  0.9760 -0.0569  0.1317
11241TIP3    H155138   1.893   3.299   0.955  2.4842  1.3894 -1.7707
11241TIP3    H255139   1.865   3.446   0.932 -1.1609  1.0071 -0.3283
11242TIP3   OH255140   5.021   1.639  12.989  0.3222  0.6928  0.3532
11242TIP3    H155141   4.986   1.600  13.069  0.5177 -0.1338  0.0446
11242TIP3    H255142   5.012   1.571  12.923 -0.3751  1.5642 -0.4788
11243TIP3   OH255143   5.148   4.536  16.750  0.0946  0.0011  0.1196
11243TIP3    H155144   5.231   4.553  16.704  0.3553  0.2515  0.6736
11243TIP3    H255145   5.150   4.594  16.826 -1.7244  1.8604 -1.1760
11244TIP3   OH255146   5.005   0.538  16.713  0.2294 -0.3780  0.4784
11244TIP3    H155147   4.910   0.536  16.696  0.2393 -0.3532  0.4199
11244TIP3    H255148   5.012   0.520  16.807  0.1711 -0.4529  0.4688
11245TIP3   OH255149   0.275   1.673  11.852  0.1857 -0.2027 -0.0272
11245TIP3    H155150   0.241   1.708  11.770 -1.6029  0.3786  0.9254
11245TIP3    H255151   0.314   1.589  11.827 -0.8448 -0.3166 -1.3812
11246TIP3   OH255152   6.193   4.199   1.595 -0.5741 -0.1539 -0.1850
11246TIP3    H155153   6.259   4.247   1.644  0.3296 -2.2104  0.6913
11246TIP3    H255154   6.110   4.241   1.620  0.0646  0.1963  1.4964
11247TIP3   OH255155   3.091   5.017  16.398 -0.1183 -0.0282  0.1497
11247TIP3    H155156   3.161   4.954  16.381 -0.1732 -0.2940  0.8763
11247TIP3    H255157   3.039   4.976  16.467 -0.1305  0.8351  0.6592
11248TIP3   OH255158   1.654   5.441   1.942 -0.4501 -0.0808 -0.5259
11248TIP3    H155159   1.744   5.473   1.951 -0.7340  0.5020  0.3249
11248TIP3    H255160   1.622   5.482   1.862 -0.5719  1.2346  0.1688
11249TIP3   OH255161   3.795   5.812   2.069  0.3803 -0.3570  0.2486
11249TIP3    H155162   3.706   5.828   2.036  0.0920  0.8384  1.5069
11249TIP3    H255163   3.839   5.897   2.062 -0.0012  0.2806  3.6789
11250TIP3   OH255164   1.589   4.204  16.479  0.0306  0.1441 -0.4539
11250TIP3    H155165   1.540   4.229  16.400 -0.6208 -0.9451 -0.4265
11250TIP3    H255166   1.521   4.184  16.544  0.5620  0.9211  0.3579
11251TIP3   OH255167   3.862   4.421  16.619  0.2915 -0.0805  0.8021
11251TIP3    H155168   3.804   4.413  16.544  2.2149  1.1966 -0.9378
11251TIP3    H255169   3.804   4.440  16.693 -1.4802  2.8988 -1.1212
11252TIP3   OH255170   5.881   1.240  13.626 -0.8869 -0.1952 -0.0410
11252TIP3    H155171   5.805   1.223  13.571  0.0191  0.4484 -1.5540
11252TIP3    H255172   5.908   1.329  13.604  0.5239 -0.5300  0.1905
11253TIP3   OH255173   6.662   3.004  13.177 -0.0421  0.3312 -0.5991
11253TIP3    H155174   6.739   2.978  13.126 -0.2758 -0.7686 -0.4057
11253TIP3    H255175   6.608   3.053  13.115  1.3457  2.2217 -0.4315
11254TIP3   OH255176   1.618   4.922  14.794  0.2131  0.4399 -0.0783
11254TIP3    H155177   1.683   4.956  14.856  0.4594 -0.0688 -0.0466
11254TIP3    H255178   1.534   4.938  14.836  0.4044 -0.4815  0.6974
11255TIP3   OH255179   3.509   5.127   5.298 -1.1950 -0.5716  0.6151
11255TIP3    H155180   3.520   5.034   5.317  1.0491 -0.3400  0.7117
11255TIP3    H255181   3.572   5.171   5.356 -0.5891  0.8183 -1.0071
11256TIP3   OH255182   4.459   6.361  15.072  0.4054 -0.0856  0.0457
11256TIP3    H155183   4.417   6.446  15.057  1.3970  0.7041  1.5445
11256TIP3    H255184   4.503   6.342  14.989 -0.9710  0.1504 -0.7904
11257TIP3   OH255185   0.581   4.014  16.446  0.3136 -0.8632  0.0227
11257TIP3    H155186   0.507   3.960  16.419  0.3382 -0.7059 -0.3633
11257TIP3    H255187   0.579   4.089  16.387 -0.2642  0.0283  1.1255
11258TIP3   OH255188   6.480   3.636  16.036 -0.3406 -0.0323 -0.2474
11258TIP3    H155189   6.534   3.570  15.994  0.6564 -1.1590  2.6161
11258TIP3    H255190   6.513   3.719  16.001  1.6915 -0.8072 -0.2858
11259TIP3   OH255191   2.795   2.115   2.061  0.0185 -0.1457 -0.4559
11259TIP3    H155192   2.842   2.035   2.086 -0.1787  0.0525  0.5762
11259TIP3    H255193   2.758   2.094   1.974 -0.6013 -1.4346  0.0854
11260TIP3   OH255194   3.316   6.683  12.390  1.1100  0.6323  0.1232
11260TIP3    H155195   3.248   6.636  12.342  1.6070  0.6628 -0.6330
11260TIP3    H255196   3.372   6.719  12.322  0.7740  2.2893  0.6816
11261TIP3   OH255197   2.151   1.595   1.848 -0.0138  0.2428 -0.4615
11261TIP3    H155198   2.107   1.626   1.769  1.2037 -1.1603 -1.7521
11261TIP3    H255199   2.092   1.528   1.883 -0.6340  0.9828 -0.0605
11262TIP3   OH255200   2.498   3.889   0.472  0.2897 -0.2183 -0.7980
11262TIP3    H155201   2.570   3.941   0.508  1.0190  0.0262 -2.5284
11262TIP3    H255202   2.435   3.953   0.439 -0.4439 -0.4369  0.1276
11263TIP3   OH255203   5.825   5.303  12.404 -0.2515  0.0748  0.4796
11263TIP3    H155204   5.795   5.391  12.427 -1.3290 -0.1220 -0.0842
11263TIP3    H255205   5.792   5.248  12.475 -2.3505 -0.3191 -0.7105
11264TIP3   OH255206   6.546   4.698   1.262 -0.8542  0.1223  0.1157
11264TIP3    H155207   6.640   4.693   1.281 -1.0190  0.9562  1.2009
11264TIP3    H255208   6.530   4.623   1.204  0.0487 -1.3601  1.6857
11265TIP3   OH255209   4.100   3.525  16.279 -0.7213  0.2275  0.1260
11265TIP3    H155210   4.148   3.560  16.204 -0.0695  0.1519  0.4971
11265TIP3    H255211   4.008   3.529  16.253 -0.6915  2.1458  0.1106
11266TIP3   OH255212   3.297   6.729  13.079 -0.0462 -0.2708  0.5845
11266TIP3    H155213   3.227   6.776  13.032 -0.3167 -0.4009  0.8504
11266TIP3    H255214   3.256   6.703  13.162  0.5228  0.2263  1.0270
11267TIP3   OH255215   5.221   4.922  16.160  0.0259 -0.8617  0.5474
11267TIP3    H155216   5.228   5.006  16.207 -0.4876 -0.1393 -0.6264
11267TIP3    H255217   5.312   4.897  16.144  0.1934 -0.7175  1.2193
11268TIP3   OH255218   2.093   2.206  13.860  0.0531  0.4305  0.7800
11268TIP3    H155219   2.033   2.245  13.797 -1.1643 -0.2958  1.4535
11268TIP3    H255220   2.172   2.260  13.856 -0.9880  1.9731  0.5481
11269TIP3   OH255221   3.891   6.042   4.937 -0.3991 -0.0568 -0.0184
11269TIP3    H155222   3.806   6.082   4.921  0.5596  1.6639 -1.2067
11269TIP3    H255223   3.871   5.956   4.974 -2.6175  0.4963  0.2154
11270TIP3   OH255224   5.557   1.896   6.247  0.2359 -0.1813 -0.1540
11270TIP3    H155225   5.555   1.837   6.322  0.1663  2.0495  1.7244
11270TIP3    H255226   5.639   1.945   6.256 -1.1485  2.2185  0.2751
11271TIP3   OH255227   4.426   2.291  12.210  0.1400  0.4490 -0.0269
11271TIP3    H155228   4.516   2.258  12.202  0.0076  0.4779 -2.6442
11271TIP3    H255229   4.372   2.222  12.171 -0.7706  1.1843 -0.0914
11272TIP3   OH255230   3.217   2.442  15.174  0.1087 -0.4606 -0.0642
11272TIP3    H155231   3.219   2.404  15.262  0.1209  4.0800  2.1774
11272TIP3    H255232   3.126   2.432  15.146 -0.4078 -0.1896  1.4311
11273TIP3   OH255233   1.670   0.237   0.554 -0.0635 -0.0076  0.0965
11273TIP3    H155234   1.753   0.202   0.521 -0.4502 -0.1005 -0.8170
11273TIP3    H255235   1.661   0.322   0.510 -0.3017  0.1470  0.4388
11274TIP3   OH255236   2.884   4.694  15.446 -0.2807 -0.5756 -0.6069
11274TIP3    H155237   2.857   4.602  15.443  0.9210 -0.9655  0.1570
11274TIP3    H255238   2.820   4.739  15.390 -1.9966 -1.5860  0.4385
11275TIP3   OH255239   2.756   4.919  16.194 -0.1811  0.1797  0.2555
11275TIP3    H155240   2.812   4.865  16.138  0.9249  1.6959 -0.1534
11275TIP3    H255241   2.688   4.951  16.135 -0.5821 -0.3816  0.4021
11276TIP3   OH255242   3.227   6.619   4.816  0.0077 -0.2285 -0.1887
11276TIP3    H155243   3.284   6.561   4.766 -1.0119 -0.9647 -0.5078
11276TIP3    H255244   3.232   6.703   4.770  1.3758 -0.0687  0.1964
11277TIP3   OH255245   1.675   1.053   3.572  0.8211 -0.1781 -0.0775
11277TIP3    H155246   1.615   1.075   3.501 -0.0214  0.6644  0.8594
11277TIP3    H255247   1.632   0.979   3.616  0.3147  0.5833  0.7430
11278TIP3   OH255248   5.868   6.110   5.262 -0.2570 -0.2311 -0.1661
11278TIP3    H155249   5.893   6.030   5.308 -1.6315 -0.5179  0.1520
11278TIP3    H255250   5.803   6.151   5.319 -1.3974 -0.1779 -1.4282
11279TIP3   OH255251   4.871   5.885   5.299 -0.1932  0.4785  0.3967
11279TIP3    H155252   4.867   5.924   5.386  0.6886 -1.6060  1.4416
11279TIP3    H255253   4.921   5.947   5.247  0.5379  1.0960  1.7774
11280TIP3   OH255254   3.988   5.189  14.303 -0.3671 -0.6060 -0.4002
11280TIP3    H155255   3.933   5.166  14.377 -2.9856 -1.2845 -2.4310
11280TIP3    H255256   3.968   5.282  14.287  1.3905  0.0049  0.6127
11281TIP3   OH255257   3.640   4.512  15.445  0.1617  0.2251 -0.5636
11281TIP3    H155258   3.692   4.521  15.364  1.3165  1.2458  0.2535
11281TIP3    H255259   3.705   4.507  15.515 -0.8363  0.4782  0.4124
11282TIP3   OH255260   6.665   0.543  14.668 -0.0375  1.1491 -0.1642
11282TIP3    H155261   6.724   0.486  14.717 -0.5567  0.2182 -0.5774
11282TIP3    H255262   6.609   0.583  14.735  0.3525  1.2002  0.1360
11283TIP3   OH255263   1.107   5.754   3.443  1.0488 -0.2898  0.0413
11283TIP3    H155264   1.154   5.692   3.498  1.3441  2.0677  2.6519
11283TIP3    H255265   1.041   5.792   3.500  1.6150  2.5863 -1.0685
11284TIP3   OH255266   3.529   0.747  11.358 -0.0232  0.1899 -0.2967
11284TIP3    H155267   3.538   0.833  11.400  1.3213 -0.0475 -0.0396
11284TIP3    H255268   3.443   0.749  11.316 -1.0633  0.7702  1.7290
11285TIP3   OH255269   5.531   6.090  11.082 -0.3017 -0.5991  0.1146
11285TIP3    H155270   5.554   5.999  11.062  0.2211 -0.2564 -0.9664
11285TIP3    H255271   5.490   6.122  11.001 -1.0220 -0.0416  0.6862
11286TIP3   OH255272   5.854   6.539   1.098  0.2585 -0.6858  0.5316
11286TIP3    H155273   5.924   6.528   1.163  1.2567 -0.5920 -0.4911
11286TIP3    H255274   5.776   6.559   1.150  0.7281 -1.9459  1.7745
11287TIP3   OH255275   4.153   1.338  15.176  0.7168 -0.6010  0.0324
11287TIP3    H155276   4.207   1.337  15.255 -0.6198 -0.8143  0.9705
11287TIP3    H255277   4.148   1.430  15.150 -0.8334 -0.1724  1.6439
11288TIP3   OH255278   4.609   1.235  15.690  0.0859 -0.3664 -0.0752
11288TIP3    H155279   4.522   1.274  15.697  0.4306  0.3253  0.5284
11288TIP3    H255280   4.669   1.310  15.690  0.6208 -0.7565 -1.8644
11289TIP3   OH255281   5.949   1.565  14.400 -0.5094  0.3710 -0.6502
11289TIP3    H155282   5.900   1.624  14.343 -3.1719 -0.7483  0.3076
11289TIP3    H255283   5.921   1.477  14.372  2.9687 -0.5702 -1.7327
11290TIP3   OH255284   4.806   1.544  10.736  0.5087 -0.1804 -0.3043
11290TIP3    H155285   4.817   1.504  10.650  0.1310 -0.5314 -0.1914
11290TIP3    H255286   4.712   1.543  10.751  0.6276 -0.8700  0.4704
11291TIP3   OH255287   5.697   3.016  16.161  0.0272  0.1162 -0.5389
11291TIP3    H155288   5.757   3.083  16.130  0.0127 -0.3025 -1.4931
11291TIP3    H255289   5.752   2.940  16.178  0.0461  0.3544  0.5580
11292TIP3   OH255290   5.079   4.570  16.093 -0.0609 -0.4316  0.1144
11292TIP3    H155291   5.110   4.498  16.039  0.8596  1.1688 -1.6079
11292TIP3    H255292   5.079   4.646  16.034 -1.7456  0.8313  1.6234
11293TIP3   OH255293   4.634   3.776   5.726  0.2255  0.3529 -0.1277
11293TIP3    H155294   4.584   3.705   5.768 -0.4133  0.7176 -0.2640
11293TIP3    H255295   4.567   3.832   5.686  0.6899  1.3061  0.3984
11294TIP3   OH255296   0.367   3.427  13.998 -0.3387  0.4334  0.1817
11294TIP3    H155297   0.352   3.517  14.025 -0.7691 -0.4387  3.2004
11294TIP3    H255298   0.288   3.380  14.026  0.3104 -1.0579 -0.3871
11295TIP3   OH255299   4.932   2.171  15.048 -0.0719  0.2806 -0.5919
11295TIP3    H155300   4.993   2.229  15.095 -1.5437  0.2993  1.4188
11295TIP3    H255301   4.978   2.148  14.967  1.1699  3.0475 -0.7657
11296TIP3   OH255302   1.441   3.895   2.253 -0.2298 -0.3211  0.2302
11296TIP3    H155303   1.422   3.916   2.345  0.0684 -1.6771  0.6167
11296TIP3    H255304   1.517   3.837   2.257 -0.4033 -0.6395 -0.8673
11297TIP3   OH255305   3.276   1.255  14.259 -0.5639  0.4751  0.1368
11297TIP3    H155306   3.345   1.295  14.312 -0.5955  2.2285 -1.0528
11297TIP3    H255307   3.308   1.261  14.169 -1.6936  0.1045 -0.3152
11298TIP3   OH255308   0.508   0.148   1.354 -0.5377  0.2161 -0.0203
11298TIP3    H155309   0.595   0.144   1.393 -0.1118  1.5972 -0.7398
11298TIP3    H255310   0.523   0.184   1.266 -1.7813  0.0118 -0.3351
11299TIP3   OH255311   0.935   2.382  13.528  0.1314 -0.1577  0.5568
11299TIP3    H155312   0.926   2.356  13.620 -0.4024 -1.2117  0.2217
11299TIP3    H255313   1.004   2.449  13.528 -0.8441  0.9072  1.9097
11300TIP3   OH255314   1.759   2.133   3.897 -0.0512 -0.1566 -0.2564
11300TIP3    H155315   1.852   2.152   3.900 -0.3564  1.7835 -1.4109
11300TIP3    H255316   1.742   2.082   3.976  1.8022  0.2434  0.4437
11301TIP3   OH255317   1.200   5.576  13.790  0.4119  0.1381  0.4073
11301TIP3    H155318   1.139   5.576  13.716  1.8737 -2.2286 -0.9447
11301TIP3    H255319   1.170   5.505  13.847  1.1199 -0.1958  0.3843
11302TIP3   OH255320   3.394   5.984  15.863  0.3571 -0.4366  0.0459
11302TIP3    H155321   3.474   6.031  15.883  1.4860 -1.4221 -1.8608
11302TIP3    H255322   3.422   5.910  15.809 -1.7256 -1.3960  0.1694
11303TIP3   OH255323   4.353   5.665  15.340  0.3259 -0.3159 -0.1316
11303TIP3    H155324   4.312   5.580  15.357  0.7385 -0.4004  0.5029
11303TIP3    H255325   4.384   5.694  15.426 -0.8159  1.0136 -0.1461
11304TIP3   OH255326   2.160   4.867   0.434  0.7177  0.0610 -0.4173
11304TIP3    H155327   2.207   4.839   0.513  1.5407  1.8080 -0.2608
11304TIP3    H255328   2.096   4.931   0.466  2.3042  2.1951 -1.3541
11305TIP3   OH255329   5.007   2.317  12.649 -0.1844 -0.3071 -0.1181
11305TIP3    H155330   5.071   2.369  12.601 -1.0469  1.9086  0.9895
11305TIP3    H255331   4.923   2.358  12.629 -1.2390 -2.6169 -0.8529
11306TIP3   OH255332   1.124   1.908   6.618  0.1578 -0.2631 -0.0200
11306TIP3    H155333   1.033   1.923   6.645  0.4366 -0.4710  1.0752
11306TIP3    H255334   1.172   1.983   6.651  0.4027 -0.1810 -0.5516
11307TIP3   OH255335   6.341   4.391  12.319  0.6002 -0.0348  0.3365
11307TIP3    H155336   6.368   4.438  12.397  1.5773  1.1052 -0.6583
11307TIP3    H255337   6.394   4.311  12.320  1.0079  0.2329  0.5549
11308TIP3   OH255338   3.154   4.272   2.533 -0.0552  0.3783  0.5485
11308TIP3    H155339   3.222   4.214   2.564 -1.1009 -2.1120 -1.4540
11308TIP3    H255340   3.188   4.307   2.450 -0.8446 -0.2353 -0.0496
11309TIP3   OH255341   1.392   4.242  12.792  0.4621 -0.3737 -0.1444
11309TIP3    H155342   1.340   4.169  12.759  0.7719 -1.0208  0.7641
11309TIP3    H255343   1.431   4.209  12.873  1.2600  0.5274 -0.1431
11310TIP3   OH255344   1.256   2.708  15.272  0.1829  0.4210  0.3193
11310TIP3    H155345   1.242   2.686  15.180 -0.5806 -1.0141  0.7510
11310TIP3    H255346   1.285   2.800  15.270 -0.9530  0.7924 -1.2514
11311TIP3   OH255347   3.152   1.826   4.796 -0.1372  0.2854  0.3951
11311TIP3    H155348   3.166   1.734   4.775  0.1241  0.1226  1.2485
11311TIP3    H255349   3.180   1.835   4.887  1.3356  1.5399 -0.1322
11312TIP3   OH255350   2.222   5.875  16.037 -0.6533  0.0349  0.1777
11312TIP3    H155351   2.152   5.832  15.989 -0.5563 -0.3808  0.4035
11312TIP3    H255352   2.303   5.835  16.004 -0.6535 -1.4722  1.8269
11313TIP3   OH255353   3.250   5.768  13.922  0.5120 -0.4586 -0.4635
11313TIP3    H155354   3.231   5.782  14.015  0.4703  1.6576 -0.7379
11313TIP3    H255355   3.165   5.747  13.884  0.0962  0.8814 -0.3476
11314TIP3   OH255356   6.220   0.755  14.806 -0.1663 -0.1215 -0.5603
11314TIP3    H155357   6.147   0.816  14.795  0.3368  0.4100 -1.1019
11314TIP3    H255358   6.185   0.684  14.860 -0.6206  0.9191  0.5716
11315TIP3   OH255359   5.475   2.102  15.564 -0.1856 -0.1040  0.0368
11315TIP3    H155360   5.528   2.047  15.506 -1.9650  1.7771 -3.7661
11315TIP3    H255361   5.516   2.188  15.559 -0.6375  0.1996  1.3033
11316TIP3   OH255362   4.689   2.821   6.601  0.0318  0.2250  0.2288
11316TIP3    H155363   4.677   2.728   6.581 -1.1326  0.6093 -1.0188
11316TIP3    H255364   4.602   2.859   6.592  0.8405  1.8125 -1.4244
11317TIP3   OH255365   3.724   0.431  16.470 -0.4621  0.0409  0.4245
11317TIP3    H155366   3.718   0.491  16.545  2.7950  0.2688  0.6542
11317TIP3    H255367   3.767   0.353  16.504 -2.7827 -1.7096 -0.3508
11318TIP3   OH255368   3.489   4.356   4.794 -0.4073  0.2210  0.2288
11318TIP3    H155369   3.496   4.405   4.712 -0.1781  0.4393  0.3761
11318TIP3    H255370   3.551   4.399   4.853  2.7748 -2.5761 -0.7629
11319TIP3   OH255371   3.007   5.338  12.790 -0.0123 -0.7889 -0.6562
11319TIP3    H155372   3.065   5.310  12.860 -0.5896  1.2133  0.6906
11319TIP3    H255373   2.955   5.260  12.770 -0.8448 -1.0760  2.1843
11320TIP3   OH255374   1.471   0.395   0.045 -0.4606  0.2145 -0.3974
11320TIP3    H155375   1.492   0.473  -0.007  0.0846 -0.8097 -1.7786
11320TIP3    H255376   1.556   0.362   0.073 -0.5636 -0.7130 -1.1137
11321TIP3   OH255377   3.906   2.815  12.867  0.1203  0.7028 -0.5153
11321TIP3    H155378   3.930   2.723  12.868  0.4449  0.7847  0.5317
11321TIP3    H255379   3.944   2.849  12.786  0.6222  0.0743 -0.5489
11322TIP3   OH255380   4.206   0.090  12.904 -0.5416 -0.2333  0.1683
11322TIP3    H155381   4.267   0.024  12.870  0.2057  0.1385  0.7809
11322TIP3    H255382   4.155   0.044  12.970  1.1440  0.1975  1.8471
11323TIP3   OH255383   1.413   5.483  13.104  0.2500 -0.0585 -0.1008
11323TIP3    H155384   1.340   5.504  13.162  0.9772  1.1037  0.4434
11323TIP3    H255385   1.482   5.452  13.162  1.3063  1.9718 -0.1591
11324TIP3   OH255386   1.046   3.485   6.185 -0.6742 -0.5072 -0.3933
11324TIP3    H155387   1.069   3.444   6.268 -0.7328  0.5751  0.1879
11324TIP3    H255388   1.078   3.425   6.118  1.5172 -0.2972  0.3815
11325TIP3   OH255389   5.949   5.354  16.677 -0.0870  0.5062  0.2021
11325TIP3    H155390   5.904   5.438  16.683  1.1221  1.1510  0.6202
11325TIP3    H255391   5.999   5.348  16.758 -0.8026 -1.0247  0.5726
11326TIP3   OH255392   2.919   2.701  11.960  0.4273  0.1608  0.5958
11326TIP3    H155393   2.895   2.794  11.953  1.0415  0.1766 -2.7319
11326TIP3    H255394   3.006   2.702  11.999  1.1295  1.1416 -0.9172
11327TIP3   OH255395   2.714   1.510  17.175  0.0715 -0.2413  0.0798
11327TIP3    H155396   2.753   1.439  17.124  1.0011 -0.0551  0.4992
11327TIP3    H255397   2.633   1.532  17.129 -0.6073 -2.0409  0.3418
11328TIP3   OH255398   2.603   4.639   3.583 -0.1397 -0.6288 -0.3083
11328TIP3    H155399   2.658   4.714   3.561  0.8302 -1.5745 -1.2562
11328TIP3    H255400   2.595   4.643   3.679  0.5705  0.2184 -0.2666
11329TIP3   OH255401   2.082   4.819  17.240 -0.8174 -0.1456  0.3947
11329TIP3    H155402   2.110   4.786  17.154 -0.7281  0.1006  0.3261
11329TIP3    H255403   2.106   4.750  17.301 -0.5928 -0.1917  0.2576
11330TIP3   OH255404   6.578   6.178  15.026 -0.0137  0.1149 -0.2030
11330TIP3    H155405   6.667   6.188  14.993  0.2409  2.4961  0.9796
11330TIP3    H255406   6.523   6.176  14.947  1.0040 -0.6673 -0.9207
11331TIP3   OH255407   3.441   2.313   0.481  0.4553  0.1738 -0.0646
11331TIP3    H155408   3.369   2.251   0.495  1.6540 -1.0225  1.1269
11331TIP3    H255409   3.427   2.381   0.546 -0.4703  0.8378 -0.9139
11332TIP3   OH255410   2.592   6.716  16.083 -0.0633  0.0378  0.3826
11332TIP3    H155411   2.501   6.714  16.114 -0.5937 -1.0923 -1.1365
11332TIP3    H255412   2.589   6.768  16.003  0.5860 -0.2972  0.1380
11333TIP3   OH255413   2.553   5.418   4.755  0.1028 -0.5574 -0.1676
11333TIP3    H155414   2.467   5.395   4.791  0.5957 -0.8326  0.8454
11333TIP3    H255415   2.614   5.402   4.826  0.7696  1.5648 -0.2225
11334TIP3   OH255416   0.637   3.059  12.932 -0.3255  0.3659 -0.2485
11334TIP3    H155417   0.550   3.061  12.971  0.6591 -0.8194  2.2609
11334TIP3    H255418   0.625   3.016  12.848 -2.1885  0.4560 -0.0705
11335TIP3   OH255419   5.034   0.081  17.166  0.5343 -0.0570  0.1061
11335TIP3    H155420   5.050   0.155  17.224  0.9640 -0.3910  0.4241
11335TIP3    H255421   5.095   0.013  17.197  2.3496  0.4720 -2.0580
11336TIP3   OH255422   1.713   6.251  13.937  0.4127  0.2990  0.1039
11336TIP3    H155423   1.662   6.180  13.976  0.4711  0.4969  0.5522
11336TIP3    H255424   1.673   6.266  13.852  1.4463 -1.4375 -0.7477
11337TIP3   OH255425   4.356   3.267  16.385 -0.5183  0.3616  0.0310
11337TIP3    H155426   4.377   3.191  16.440  1.8316  0.8864 -0.0175
11337TIP3    H255427   4.357   3.341  16.445 -0.0803  0.6740 -0.3597
11338TIP3   OH255428   3.825   3.534   6.483 -0.5309  0.5050  0.4233
11338TIP3    H155429   3.776   3.456   6.510 -0.6486  0.4062 -0.0632
11338TIP3    H255430   3.766   3.607   6.499 -0.1951  0.5572  1.4544
11339TIP3   OH255431   2.300   6.315   3.156 -0.8095 -0.0680 -0.3300
11339TIP3    H155432   2.277   6.293   3.247  0.2412 -0.6352 -0.1688
11339TIP3    H255433   2.229   6.370   3.125 -0.4888  1.3798  1.3255
11340TIP3   OH255434   3.737   3.781   1.929 -0.0834 -0.2807 -0.7749
11340TIP3    H155435   3.831   3.792   1.912  0.2898  0.4767  1.5221
11340TIP3    H255436   3.695   3.841   1.868  1.0812  1.3169 -0.0704
11341TIP3   OH255437   2.372   3.054   0.300  0.0810  0.0090  0.7827
11341TIP3    H155438   2.413   2.971   0.276 -2.5727 -0.9369 -0.9057
11341TIP3    H255439   2.286   3.029   0.334 -1.5348  2.0501 -1.4971
11342TIP3   OH255440   1.180   3.202  14.896 -0.0955 -0.0032 -0.0166
11342TIP3    H155441   1.131   3.131  14.855 -0.1960 -0.2865  0.5750
11342TIP3    H255442   1.113   3.260  14.933  0.0021 -0.2965  0.6355
11343TIP3   OH255443   5.294   5.202   6.815 -0.1967 -0.4974  0.3598
11343TIP3    H155444   5.346   5.146   6.758 -0.3518 -1.4961  1.1687
11343TIP3    H255445   5.337   5.197   6.900 -1.2652 -0.8830  0.8997
11344TIP3   OH255446   2.139   3.646  17.337 -0.1093  0.0070 -0.7262
11344TIP3    H155447   2.045   3.627  17.336 -0.5121  1.7940 -1.0340
11344TIP3    H255448   2.174   3.596  17.264 -0.6950 -1.1944 -0.2068
11345TIP3   OH255449   2.243   1.183   2.569  0.0454  0.0619  0.2099
11345TIP3    H155450   2.320   1.240   2.571  0.0449  0.0408  1.1105
11345TIP3    H255451   2.175   1.233   2.613 -0.2226 -0.2460  0.1500
11346TIP3   OH255452   2.946   0.133   2.077 -0.1907  0.4327  0.0305
11346TIP3    H155453   2.924   0.221   2.109 -0.3108  0.7506 -0.8822
11346TIP3    H255454   3.030   0.113   2.117  0.0708  1.1770 -0.1350
11347TIP3   OH255455   2.054   3.106  14.852  0.8786 -0.3664 -0.1209
11347TIP3    H155456   2.077   3.120  14.760  1.1188  0.3298  0.0363
11347TIP3    H255457   2.124   3.050  14.886  0.5895 -0.9345 -0.4514
11348TIP3   OH255458   0.084   2.977  15.960  0.3287 -0.5858 -0.3037
11348TIP3    H155459   0.125   2.999  16.044  1.3710 -2.5630 -0.2477
11348TIP3    H255460   0.136   3.024  15.895  1.2777 -1.2518 -0.0459
11349TIP3   OH255461   2.950   5.186   3.393  0.7927 -0.9254 -0.5663
11349TIP3    H155462   2.967   5.193   3.487  0.3603 -0.4208 -0.5222
11349TIP3    H255463   2.957   5.276   3.361  2.4158 -1.2638 -1.2860
11350TIP3   OH255464   3.625   3.790   5.717  0.6339 -0.1775 -0.7227
11350TIP3    H155465   3.691   3.839   5.668 -0.3490  1.1846 -0.7357
11350TIP3    H255466   3.656   3.793   5.808  1.1955 -0.5934 -0.8922
11351TIP3   OH255467   3.644   6.138  14.566 -0.4580  0.0735  0.2734
11351TIP3    H155468   3.645   6.055  14.614 -0.6433  0.2370  0.5639
11351TIP3    H255469   3.670   6.115  14.477  2.0468  0.0597  0.9268
11352TIP3   OH255470   3.417   0.264  17.072 -0.6394  0.2665 -0.3368
11352TIP3    H155471   3.451   0.318  17.000  0.3413 -1.7000 -1.4182
11352TIP3    H255472   3.386   0.185  17.030 -0.3968 -0.7916  1.3807
11353TIP3   OH255473   4.972   3.975   1.116  0.2756  0.7743  0.2106
11353TIP3    H155474   5.061   3.941   1.101  1.1324  1.8785  2.2725
11353TIP3    H255475   4.975   4.007   1.207 -2.1032  1.2990  0.1475
11354TIP3   OH255476   5.192   0.613   0.782 -0.6376 -0.5014 -0.0636
11354TIP3    H155477   5.285   0.619   0.764 -0.6883 -1.0557 -0.5242
11354TIP3    H255478   5.185   0.551   0.855 -0.6813 -0.8251 -0.3428
11355TIP3   OH255479   2.997   3.070   5.117  0.2649  0.0198 -0.0952
11355TIP3    H155480   2.961   3.156   5.139 -0.0565  0.1954 -1.2603
11355TIP3    H255481   3.091   3.087   5.107  0.1635  0.2912 -0.5965
11356TIP3   OH255482   5.201   1.507   5.675  0.1574  0.8315 -1.1402
11356TIP3    H155483   5.185   1.413   5.681 -0.5925  1.0425  1.6635
11356TIP3    H255484   5.260   1.517   5.601 -0.1653 -1.7690 -1.8463
11357TIP3   OH255485   4.710   2.852   2.460 -0.1785  0.2827  0.4248
11357TIP3    H155486   4.649   2.786   2.492 -1.0086  0.3587 -0.9324
11357TIP3    H255487   4.688   2.931   2.510 -1.5569  0.4457 -0.3819
11358TIP3   OH255488   5.007   6.338   0.526 -0.1594  0.3147 -0.1533
11358TIP3    H155489   5.087   6.305   0.567 -0.2181  0.3481 -0.0105
11358TIP3    H255490   4.984   6.415   0.578 -0.3149  0.2724 -0.1594
11359TIP3   OH255491   3.477   6.238  11.296  0.7540  0.1927 -0.1091
11359TIP3    H155492   3.458   6.324  11.260 -0.0922 -0.0994 -0.4012
11359TIP3    H255493   3.423   6.232  11.374  0.4264 -0.2519 -0.3620
11360TIP3   OH255494   4.086   0.844   3.827 -0.2916 -0.6533 -0.2327
11360TIP3    H155495   4.090   0.752   3.853 -0.7401 -0.2490  1.4573
11360TIP3    H255496   4.176   0.867   3.804 -0.4502 -1.9045 -2.3035
11361TIP3   OH255497   0.337   0.055  15.248  0.6509  0.2079 -0.1431
11361TIP3    H155498   0.411   0.008  15.211  1.2004  1.7431 -1.0965
11361TIP3    H255499   0.287   0.085  15.172 -0.8400 -0.5977  0.4826
11362TIP3   OH255500   3.410   5.434  14.730 -0.2156 -0.3802 -0.0778
11362TIP3    H155501   3.329   5.486  14.739 -1.1913 -1.6695 -0.9993
11362TIP3    H255502   3.415   5.415  14.636 -0.0488 -2.1887  0.2797
11363TIP3   OH255503   2.774   2.419  17.237 -0.0356 -0.1438 -0.0092
11363TIP3    H155504   2.691   2.428  17.285  0.6050 -0.5603  1.2250
11363TIP3    H255505   2.757   2.351  17.172  0.2763 -2.9068  2.5720
11364TIP3   OH255506   1.260   6.089   1.890  0.2668 -0.5863 -0.0261
11364TIP3    H155507   1.206   6.161   1.921  0.6793 -0.2314 -0.1188
11364TIP3    H255508   1.281   6.039   1.969  0.3936 -0.3165  0.1155
11365TIP3   OH255509   6.143   1.923  12.035  0.2115 -0.5093  0.4185
11365TIP3    H155510   6.189   1.950  12.114  0.4612  3.0013 -0.7563
11365TIP3    H255511   6.178   1.836  12.015  1.6211 -0.6316  2.9826
11366TIP3   OH255512   4.421   0.034  15.431 -0.1693 -0.0681  0.4325
11366TIP3    H155513   4.426  -0.062  15.437  1.0975  0.0245  0.9543
11366TIP3    H255514   4.357   0.049  15.360 -1.4042 -1.2742  1.2258
11367TIP3   OH255515   0.264   2.674   1.495  0.0975  0.2963  0.0751
11367TIP3    H155516   0.239   2.766   1.504  0.1179  0.6743 -2.7992
11367TIP3    H255517   0.360   2.675   1.489 -0.0021  0.3998 -2.1622
11368TIP3   OH255518   0.060   4.139  16.208 -0.1459  0.2184  0.0748
11368TIP3    H155519   0.066   4.142  16.113  0.3303  1.2072  0.1197
11368TIP3    H255520  -0.021   4.092  16.226 -0.7133  0.8183 -0.8381
11369TIP3   OH255521   2.478   2.338   3.522 -0.0089  0.4110  0.1285
11369TIP3    H155522   2.476   2.386   3.440 -2.3111 -0.6824 -0.5266
11369TIP3    H255523   2.452   2.249   3.499  0.5924 -0.2728  1.8624
11370TIP3   OH255524   1.120   2.238   0.343 -0.0576  0.2369  0.3892
11370TIP3    H155525   1.196   2.238   0.400  1.3003  0.1147 -1.3485
11370TIP3    H255526   1.146   2.184   0.269 -2.0084 -0.1667 -0.0609
11371TIP3   OH255527   0.535   3.477   2.259 -0.3498  0.5699 -0.4085
11371TIP3    H155528   0.499   3.480   2.171  0.1880  1.3511 -0.6115
11371TIP3    H255529   0.619   3.523   2.253  1.1241 -1.8948 -0.1457
11372TIP3   OH255530   3.453   6.000  11.809 -0.6218  0.0342 -0.2359
11372TIP3    H155531   3.527   5.950  11.844  0.7621  1.9838 -0.1868
11372TIP3    H255532   3.385   5.993  11.875  0.6213  0.6208  1.1480
11373TIP3   OH255533   4.007   2.810   0.867 -0.3944  0.8293 -0.4027
11373TIP3    H155534   3.973   2.775   0.784  1.7640 -1.1829 -0.5421
11373TIP3    H255535   4.010   2.734   0.925  1.6901  1.3531  0.2678
11374TIP3   OH255536   0.272   6.109  16.203  0.2709 -0.2194  0.3742
11374TIP3    H155537   0.274   6.161  16.283  3.8570  1.3317 -0.5346
11374TIP3    H255538   0.317   6.028  16.226  0.9605  0.0661  0.0473
11375TIP3   OH255539   4.260   2.189  17.141 -0.3238 -0.3558  0.1943
11375TIP3    H155540   4.343   2.221  17.178  0.4469 -0.5816 -1.2830
11375TIP3    H255541   4.279   2.099  17.113 -0.1736  0.5032 -2.7652
11376TIP3   OH255542   3.487   6.585   4.653  0.0652  0.0258 -0.1059
11376TIP3    H155543   3.558   6.644   4.678  1.1116 -0.5685 -1.5174
11376TIP3    H255544   3.504   6.505   4.702 -0.0922  0.1425  0.1428
11377TIP3   OH255545   5.249   1.033  15.718  0.1451  0.3258 -1.0753
11377TIP3    H155546   5.287   1.119  15.698 -1.2458  1.2280 -0.0263
11377TIP3    H255547   5.245   1.031  15.814  1.4080 -1.5057 -1.0068
11378TIP3   OH255548   1.747   5.705  11.652 -0.2732 -0.1835 -0.4653
11378TIP3    H155549   1.813   5.690  11.719 -0.0396 -0.9321 -0.8467
11378TIP3    H255550   1.709   5.790  11.673  2.5014  1.4709 -1.6220
11379TIP3   OH255551   3.585   2.025   3.597 -0.1146  0.1786 -0.6317
11379TIP3    H155552   3.502   2.000   3.557  0.2704 -3.2863  0.3997
11379TIP3    H255553   3.560   2.067   3.680 -0.8551 -0.1101 -0.7054
11380TIP3   OH255554   3.293   1.606   2.559  0.1581 -0.5799  0.1254
11380TIP3    H155555   3.332   1.558   2.632 -1.4980 -2.0936  0.0948
11380TIP3    H255556   3.206   1.631   2.590 -0.2203 -0.4192 -1.0038
11381TIP3   OH255557   1.764   3.768   5.369  0.6109 -0.2982 -0.1218
11381TIP3    H155558   1.788   3.688   5.415 -1.0263 -0.8278 -0.1226
11381TIP3    H255559   1.751   3.832   5.438  4.6293  0.8984 -0.1956
11382TIP3   OH255560   1.900   5.181   5.680 -0.1737 -0.1240  0.0033
11382TIP3    H155561   1.924   5.230   5.601 -0.0723  1.0607  0.7338
11382TIP3    H255562   1.823   5.226   5.714  0.0611 -0.3152  0.8250
11383TIP3   OH255563   4.957   6.733   5.461 -0.1526  0.3790 -0.4555
11383TIP3    H155564   4.911   6.785   5.526  0.5057  3.8923 -2.5162
11383TIP3    H255565   4.894   6.664   5.437 -2.0959  1.6187  0.7642
11384TIP3   OH255566   1.365   2.522   4.149  0.2848 -0.2101 -0.5464
11384TIP3    H155567   1.326   2.462   4.086 -1.4889 -0.1890  0.4588
11384TIP3    H255568   1.357   2.609   4.108  0.9092 -0.3932 -1.0827
11385TIP3   OH255569   5.238   5.191  14.330 -0.0932  0.1124  0.4355
11385TIP3    H155570   5.183   5.170  14.255  1.8098  0.2386 -1.0542
11385TIP3    H255571   5.258   5.107  14.370  0.9364 -0.2130 -0.7239
11386TIP3   OH255572   4.579   0.341   4.000 -0.0823  0.8670 -0.4533
11386TIP3    H155573   4.674   0.353   3.995  0.2392 -0.3642  1.5107
11386TIP3    H255574   4.564   0.252   3.969 -0.1737 -0.0459  1.9830
11387TIP3   OH255575   5.101   4.136  11.121 -0.1091  0.1613  0.6785
11387TIP3    H155576   5.037   4.071  11.091  0.2154  0.2932 -0.3084
11387TIP3    H255577   5.051   4.217  11.131  0.1997  0.7333 -1.8209
11388TIP3   OH255578   6.053   2.257   1.359 -0.8058 -0.4505  0.3519
11388TIP3    H155579   5.972   2.266   1.409 -0.6877 -1.9548  0.8435
11388TIP3    H255580   6.065   2.163   1.348 -0.5507 -0.2088 -2.0857
11389TIP3   OH255581   0.438   5.442   2.871  0.4276  0.2576  0.9915
11389TIP3    H155582   0.505   5.374   2.862  1.5229  1.1797  1.8597
11389TIP3    H255583   0.453   5.478   2.959  0.4336  2.1857  0.2479
11390TIP3   OH255584   5.258   0.953   1.890  0.0984  0.0080  0.0156
11390TIP3    H155585   5.334   0.993   1.846  0.2074 -0.3589 -0.1298
11390TIP3    H255586   5.292   0.920   1.973 -0.0289  0.3661  0.2129
11391TIP3   OH255587   4.401   3.998   3.700 -0.6036 -0.5512  0.1919
11391TIP3    H155588   4.333   3.995   3.767 -1.3336  2.0066 -0.3357
11391TIP3    H255589   4.483   3.992   3.749 -1.1554 -1.4099  1.0434
11392TIP3   OH255590   6.157   4.892   4.903  0.5644 -0.6149 -0.0201
11392TIP3    H155591   6.064   4.887   4.880  0.6098  0.3558 -0.4815
11392TIP3    H255592   6.201   4.842   4.836  0.3474 -1.4393  0.4405
11393TIP3   OH255593   4.818   5.932  12.415 -0.1963  0.1183  0.3404
11393TIP3    H155594   4.883   5.908  12.348 -0.1443 -1.8447  1.0255
11393TIP3    H255595   4.870   5.948  12.493 -0.5099 -1.6589  0.9455
11394TIP3   OH255596   3.313   2.232  14.482  0.8634 -0.6613  0.3667
11394TIP3    H155597   3.314   2.324  14.455  0.4382 -1.2533 -1.8030
11394TIP3    H255598   3.353   2.233  14.569  1.0561  1.5446  0.3115
11395TIP3   OH255599   2.210   2.849   2.946 -0.1020 -0.2227  0.3879
11395TIP3    H155600   2.188   2.793   3.021 -0.3313  1.2226  1.4594
11395TIP3    H255601   2.255   2.791   2.885 -0.3855 -1.5775  1.4127
11396TIP3   OH255602   3.875   0.580  11.727  0.1440 -0.0387 -0.0513
11396TIP3    H155603   3.823   0.651  11.764  0.9869 -0.0101  1.1716
11396TIP3    H255604   3.873   0.594  11.633 -1.9987 -0.0339 -0.0527
11397TIP3   OH255605   5.008   0.035  16.485 -0.6111  0.6030  0.0643
11397TIP3    H155606   5.092   0.074  16.462 -1.1472  0.5121 -2.3237
11397TIP3    H255607   5.024  -0.008  16.569  1.9046  0.1026 -0.5793
11398TIP3   OH255608   2.043   1.749  11.725  0.1434 -0.7521  0.1037
11398TIP3    H155609   2.014   1.703  11.804 -1.7382 -1.2672 -0.8256
11398TIP3    H255610   1.987   1.827  11.720 -1.1651 -1.7356 -1.7094
11399TIP3   OH255611   3.879   6.468  15.418  0.0414  0.5484 -0.4232
11399TIP3    H155612   3.871   6.397  15.354  0.9253  0.0966 -0.0386
11399TIP3    H255613   3.833   6.542  15.377 -2.5350 -0.7258 -0.0670
11400TIP3   OH255614   3.921   0.398   4.202 -0.4232 -0.4951  0.2884
11400TIP3    H155615   3.857   0.343   4.246  0.3287 -2.8427 -1.3939
11400TIP3    H255616   3.999   0.343   4.194  0.3319  0.7396 -1.5969
11401TIP3   OH255617   2.420   6.284  15.649  0.3420 -0.4196  0.7301
11401TIP3    H155618   2.364   6.261  15.575  2.2116  0.1196 -0.9504
11401TIP3    H255619   2.490   6.218  15.648  1.3919  0.6446  0.8280
11402TIP3   OH255620   1.967   0.681  12.580 -0.6171  0.7514  0.0272
11402TIP3    H155621   1.908   0.665  12.505  1.2945  1.5390 -1.7413
11402TIP3    H255622   1.955   0.774  12.599  1.2375  1.3599 -1.5024
11403TIP3   OH255623   4.411   6.578   0.618 -0.2354  0.5056 -0.4213
11403TIP3    H155624   4.428   6.506   0.678 -2.4705 -1.0862 -1.5661
11403TIP3    H255625   4.498   6.603   0.586  0.8330  0.1166  1.9145
11404TIP3   OH255626   6.326   6.336  12.105  0.5954  0.0530  0.4865
11404TIP3    H155627   6.253   6.377  12.152  0.3281  1.4856 -1.0615
11404TIP3    H255628   6.284   6.275  12.045  0.6590  0.6120 -0.1474
11405TIP3   OH255629   4.821   2.006   1.043  0.0163 -0.0918 -0.2804
11405TIP3    H155630   4.857   2.092   1.021  1.4370 -0.5961  0.0092
11405TIP3    H255631   4.880   1.943   1.001 -0.1214 -0.9498  0.7658
11406TIP3   OH255632   1.875   4.585   2.557  0.0403  0.3850 -0.9393
11406TIP3    H155633   1.784   4.593   2.588 -0.7965 -0.5777 -2.9439
11406TIP3    H255634   1.875   4.625   2.471  0.8976 -1.7307 -1.9937
11407TIP3   OH255635   5.876   5.279   3.895  0.3813  0.2229  0.1722
11407TIP3    H155636   5.828   5.333   3.957  0.9291 -0.5789  1.3219
11407TIP3    H255637   5.811   5.218   3.861 -0.2326  1.5126 -1.1042
11408TIP3   OH255638   0.422   2.552  14.692 -0.2566 -0.3601 -0.4198
11408TIP3    H155639   0.432   2.508  14.608 -2.0056 -0.0723 -0.8101
11408TIP3    H255640   0.336   2.525  14.724  0.0994  0.0510  0.9835
11409TIP3   OH255641   3.279   2.199  17.273  0.6441  0.5998  0.0523
11409TIP3    H155642   3.193   2.224  17.239  0.6295 -0.9746 -1.1799
11409TIP3    H255643   3.337   2.270  17.245 -0.3004  1.9617  1.3775
11410TIP3   OH255644   6.008   5.971   0.998  0.2585 -0.3595 -0.3145
11410TIP3    H155645   6.085   5.954   0.944 -0.7234 -3.4627 -0.9663
11410TIP3    H255646   5.935   5.938   0.947 -0.9936 -1.2697  1.9044
11411TIP3   OH255647   6.748   2.307  14.510  0.7588  0.2428 -0.3532
11411TIP3    H155648   6.714   2.291  14.421  1.9228  1.1748 -0.9986
11411TIP3    H255649   6.836   2.268  14.509  1.0619  0.8949  0.1484
11412TIP3   OH255650   4.572   1.257  15.316  0.3842 -0.4443 -0.1398
11412TIP3    H155651   4.564   1.344  15.356  0.5026 -0.5674  0.1608
11412TIP3    H255652   4.631   1.210  15.375 -0.5610 -1.0910  0.3356
11413TIP3   OH255653   3.709   0.274   4.348 -0.0522  0.2285 -0.2912
11413TIP3    H155654   3.628   0.321   4.366 -0.5352  0.3012 -2.4561
11413TIP3    H255655   3.681   0.186   4.322  0.5868  0.0902 -0.5344
11414TIP3   OH255656   5.865   0.374   4.490 -0.0016  0.3909 -0.1930
11414TIP3    H155657   5.884   0.449   4.433  1.3031 -0.1785 -0.5284
11414TIP3    H255658   5.777   0.347   4.464  0.3065  0.5660 -1.4898
11415TIP3   OH255659   2.649   0.090   1.928 -0.1582  0.0065 -0.2505
11415TIP3    H155660   2.615   0.177   1.952 -0.9798 -0.4022  0.1217
11415TIP3    H255661   2.726   0.079   1.983 -1.1000 -0.2424  1.0766
11416TIP3   OH255662   2.450   3.849  13.917 -0.7829 -0.2737  0.5503
11416TIP3    H155663   2.492   3.839  14.003  0.8850  0.4845 -0.1344
11416TIP3    H255664   2.449   3.943  13.901 -1.9147 -0.3453  0.1184
11417TIP3   OH255665   4.595   6.159  16.032 -0.2200 -0.1065  0.0503
11417TIP3    H155666   4.567   6.199  15.949  1.3137  1.1550  0.0820
11417TIP3    H255667   4.521   6.171  16.091 -0.6328  0.6976 -0.6123
11418TIP3   OH255668   2.855   2.923  11.805  0.3514 -0.6089 -0.0208
11418TIP3    H155669   2.942   2.891  11.781  1.1519  1.2545  0.2111
11418TIP3    H255670   2.872   3.003  11.855 -1.4901 -0.4268  0.3808
11419TIP3   OH255671   4.065   5.365  10.082 -0.2638  0.1406 -0.4172
11419TIP3    H155672   4.072   5.444  10.136  0.2647  0.1538 -0.4953
11419TIP3    H255673   3.971   5.345  10.079 -0.1967 -0.9390  2.0692
11420TIP3   OH255674   0.776   1.571   4.688 -0.5903  0.1361 -0.0548
11420TIP3    H155675   0.825   1.507   4.636  1.9239  0.8182  1.2766
11420TIP3    H255676   0.750   1.638   4.626  1.9055  0.6976 -0.6158
11421TIP3   OH255677   5.176   6.589   3.713  0.6076 -0.3624  0.0724
11421TIP3    H155678   5.157   6.534   3.637 -0.1397  0.2690 -0.2148
11421TIP3    H255679   5.238   6.538   3.765 -3.7539 -3.9311  2.5140
11422TIP3   OH255680   6.128   3.559   6.666  0.4636  0.5666 -0.2221
11422TIP3    H155681   6.114   3.614   6.588  0.2641  1.5534  0.4973
11422TIP3    H255682   6.151   3.621   6.735 -1.0187 -0.1039  0.9345
11423TIP3   OH255683   4.916   2.456  14.699 -0.2102  0.5154  0.5245
11423TIP3    H155684   4.891   2.364  14.683 -2.2714  0.9970  0.6531
11423TIP3    H255685   4.841   2.506  14.668  0.6348  2.1471  1.0237
11424TIP3   OH255686   2.887   3.877  11.527  0.6401  0.1218 -0.0461
11424TIP3    H155687   2.911   3.823  11.451 -0.2660  2.4009 -2.0678
11424TIP3    H255688   2.840   3.951  11.490 -0.6022  0.9310  2.8638
11425TIP3   OH255689   4.863   0.667  13.135  0.3903  0.6809 -0.2342
11425TIP3    H155690   4.911   0.701  13.210 -0.2905  1.7985 -0.2706
11425TIP3    H255691   4.914   0.694  13.059  0.6640  0.2448 -0.2068
11426TIP3   OH255692   1.438   2.011  13.653  0.1242  0.2617 -0.3126
11426TIP3    H155693   1.518   1.961  13.635  0.5272  0.5284  0.6897
11426TIP3    H255694   1.463   2.103  13.640  0.6229  0.5330  2.1011
11427TIP3   OH255695   6.736   0.502   3.463 -0.1964  0.0650  0.1457
11427TIP3    H155696   6.664   0.462   3.513  0.6665 -2.0629 -0.1887
11427TIP3    H255697   6.694   0.572   3.412 -1.6040  0.3518  1.6261
11428TIP3   OH255698   3.549   3.575  16.434 -0.0642 -0.1280  0.4732
11428TIP3    H155699   3.517   3.634  16.502 -0.0172 -1.0062  1.2827
11428TIP3    H255700   3.513   3.609  16.353  0.2154  1.1860  0.8816
11429TIP3   OH255701   6.085   5.077   3.194 -0.0144 -0.0478  0.4559
11429TIP3    H155702   6.136   5.105   3.270 -0.4451  1.2450  0.2975
11429TIP3    H255703   6.029   5.007   3.227 -0.0536  0.3629  1.2886
11430TIP3   OH255704   0.999   3.131   0.072 -0.5016 -0.1772 -0.2087
11430TIP3    H155705   1.016   3.184  -0.006 -1.1648 -0.8240 -0.8051
11430TIP3    H255706   0.955   3.053   0.039  1.1970 -1.5339  0.5306
11431TIP3   OH255707   0.767   1.877  13.911 -0.3291 -0.1234  0.0785
11431TIP3    H155708   0.723   1.812  13.856  0.4130 -1.1979  0.7176
11431TIP3    H255709   0.860   1.856  13.902  0.1302  2.0186 -1.1683
11432TIP3   OH255710   1.289   1.264   1.728  0.0439 -0.6357 -0.5619
11432TIP3    H155711   1.196   1.283   1.715 -0.3627 -2.4574 -0.7136
11432TIP3    H255712   1.333   1.303   1.652 -1.2469 -3.7794 -3.1604
11433TIP3   OH255713   2.995   2.823   2.894 -0.2157  0.4129 -0.1722
11433TIP3    H155714   2.905   2.826   2.862 -0.0855  0.5960 -0.5354
11433TIP3    H255715   2.989   2.780   2.979 -0.6192  0.2392 -0.2853
11434TIP3   OH255716   0.956   6.178  15.859  0.0851  0.1369 -0.1476
11434TIP3    H155717   0.866   6.203  15.879  0.3816  0.8964  0.2538
11434TIP3    H255718   1.004   6.190  15.941  0.8334  1.0686 -0.6936
11435TIP3   OH255719   6.471   5.189  13.844 -0.0278 -0.3057  0.3000
11435TIP3    H155720   6.510   5.187  13.757  1.1289 -2.8081  0.7791
11435TIP3    H255721   6.396   5.248  13.836  0.5931  0.2515 -2.1190
11436TIP3   OH255722   2.999   1.620  12.077  0.3854 -0.0023 -0.2191
11436TIP3    H155723   2.904   1.610  12.073  0.2536  1.3479 -1.1478
11436TIP3    H255724   3.031   1.578  11.997  0.4148  0.9027 -0.6965
11437TIP3   OH255725   0.807   1.129  17.169 -0.4484  0.4947  0.6014
11437TIP3    H155726   0.756   1.135  17.088  0.7095  0.1088 -0.1878
11437TIP3    H255727   0.748   1.162  17.237 -0.6498  3.1089 -0.7106
11438TIP3   OH255728   3.219   1.618   1.079 -0.3552  0.5505  0.7674
11438TIP3    H155729   3.300   1.607   1.129  0.1746  0.3168 -0.1104
11438TIP3    H255730   3.191   1.707   1.099  1.3815  1.4921 -0.6592
11439TIP3   OH255731   4.247   4.017   2.284  0.2581 -0.4874  0.4564
11439TIP3    H155732   4.152   4.007   2.281 -0.0195  1.6710  0.8371
11439TIP3    H255733   4.268   4.018   2.377  0.4278  0.7340  0.4160
11440TIP3   OH255734   5.821   5.829  13.824 -0.2144  0.3059 -0.3940
11440TIP3    H155735   5.811   5.897  13.891 -0.5789 -0.8171  0.7209
11440TIP3    H255736   5.780   5.751  13.861  0.0834 -0.5122 -1.6942
11441TIP3   OH255737   4.556   5.693   4.929 -0.4966  0.3558 -0.1273
11441TIP3    H155738   4.474   5.732   4.898 -0.5987  1.2495  1.1765
11441TIP3    H255739   4.624   5.757   4.906 -0.2979  0.0757 -0.3240
11442TIP3   OH255740   5.239   2.537  13.923 -0.3620 -0.3663  0.3032
11442TIP3    H155741   5.154   2.507  13.955 -1.2874  2.1472  0.4311
11442TIP3    H255742   5.222   2.564  13.833  0.1693  0.6349  0.4931
11443TIP3   OH255743   5.790   2.677  13.993  0.2954 -0.0991 -0.0641
11443TIP3    H155744   5.713   2.636  13.952 -0.6757  2.3456 -0.8703
11443TIP3    H255745   5.761   2.766  14.013  2.5025  0.4408  0.9419
11444TIP3   OH255746   6.154   2.883   5.673  0.0551 -0.0193 -0.4504
11444TIP3    H155747   6.094   2.881   5.748 -0.3188 -0.7322 -0.7503
11444TIP3    H255748   6.241   2.873   5.711  0.2581  3.1670  0.1976
11445TIP3   OH255749   4.127   5.728   2.864 -0.4355  0.3648  0.5228
11445TIP3    H155750   4.177   5.675   2.926 -1.6699  0.2261  1.4417
11445TIP3    H255751   4.107   5.668   2.792  0.4413  0.3400  0.2891
11446TIP3   OH255752   0.430   1.896  11.816 -0.0679  0.0003 -0.8035
11446TIP3    H155753   0.393   1.808  11.814 -2.0354  0.8057 -1.6197
11446TIP3    H255754   0.496   1.896  11.746  0.6656 -1.0722 -0.1530
11447TIP3   OH255755   4.369   4.420  14.487  0.5495  0.1281 -0.2125
11447TIP3    H155756   4.279   4.388  14.489  0.4016  0.4570 -1.0790
11447TIP3    H255757   4.369   4.490  14.421  0.8115  2.0654  1.6968
11448TIP3   OH255758   6.688   2.065   1.178  0.4449 -0.5857 -0.2755
11448TIP3    H155759   6.742   2.112   1.242 -0.1662  1.4115 -1.1460
11448TIP3    H255760   6.752   2.014   1.127  1.0233 -1.5302  1.3128
11449TIP3   OH255761   1.481   2.366  14.498  0.0523  0.4647 -0.1196
11449TIP3    H155762   1.520   2.300  14.441  0.8951  0.9678 -0.1439
11449TIP3    H255763   1.389   2.369  14.471  0.6910  1.6780 -2.4821
11450TIP3   OH255764   1.963   6.714  14.845 -0.3995  0.2329 -0.1348
11450TIP3    H155765   2.051   6.690  14.815 -0.5942  0.8393 -1.2485
11450TIP3    H255766   1.949   6.802  14.808 -1.6570 -0.0510 -0.3648
11451TIP3   OH255767   0.248   5.978  11.462 -0.5558  1.0056 -0.6768
11451TIP3    H155768   0.231   6.010  11.373  0.8821  0.8650 -1.0297
11451TIP3    H255769   0.326   6.025  11.490 -0.0067 -0.1741 -0.1387
11452TIP3   OH255770   4.783   3.321  14.893 -0.0726  0.0680 -0.3585
11452TIP3    H155771   4.841   3.261  14.941  2.2798  1.9271 -0.7270
11452TIP3    H255772   4.758   3.387  14.957 -1.0080 -0.1707 -0.4646
11453TIP3   OH255773   1.166   3.791   2.451 -0.3415 -0.1646  0.0287
11453TIP3    H155774   1.114   3.792   2.371 -0.8060 -0.6427  0.3241
11453TIP3    H255775   1.239   3.732   2.432  0.8037  1.4304 -0.8119
11454TIP3   OH255776   4.050   0.445  11.134  0.1860 -0.0326  1.0062
11454TIP3    H155777   4.067   0.537  11.111  1.1934 -0.6196 -0.7692
11454TIP3    H255778   3.955   0.442  11.147 -0.1906  0.8531 -1.0621
11455TIP3   OH255779   5.850   3.558   0.409  0.1308 -0.4324  0.4585
11455TIP3    H155780   5.759   3.565   0.380  0.0770 -1.6145  0.2538
11455TIP3    H255781   5.875   3.469   0.384  1.4884  0.0267  0.1046
11456TIP3   OH255782   2.064   0.090   4.735 -0.2831 -0.2130 -0.4704
11456TIP3    H155783   2.045   0.044   4.816 -0.2050  0.0040 -0.3268
11456TIP3    H255784   2.158   0.075   4.720 -0.3823 -0.5709 -0.7225
11457TIP3   OH255785   6.506   0.477  16.703  0.2353 -0.6802 -0.2251
11457TIP3    H155786   6.472   0.567  16.703 -1.8587 -1.4289 -0.4257
11457TIP3    H255787   6.587   0.482  16.754 -1.8913  0.5790  3.3902
11458TIP3   OH255788   6.576   2.921  12.748 -0.2144  0.3297 -0.2489
11458TIP3    H155789   6.539   2.925  12.659 -0.2734 -0.3760 -0.2665
11458TIP3    H255790   6.529   2.989  12.797 -0.2157  0.6907 -0.7449
11459TIP3   OH255791   0.306   6.756   0.106  0.5179 -0.5204 -0.3667
11459TIP3    H155792   0.373   6.819   0.130  2.7155 -2.0343 -2.0715
11459TIP3    H255793   0.223   6.799   0.127  1.9353  0.6139  3.8467
11460TIP3   OH255794   4.446   4.499   2.442  0.0230  0.4181 -0.3677
11460TIP3    H155795   4.530   4.518   2.485 -0.5324 -0.7337  1.3270
11460TIP3    H255796   4.455   4.536   2.354  1.3454  2.6310  0.6005
11461TIP3   OH255797   2.265   3.661  12.659 -0.0972 -0.4254  0.6095
11461TIP3    H155798   2.193   3.658  12.595  1.2005  1.7775 -1.1026
11461TIP3    H255799   2.247   3.740  12.711  0.7111 -0.2576  0.6411
11462TIP3   OH255800   1.551   1.502   0.662  0.6078  0.4360 -0.3726
11462TIP3    H155801   1.581   1.586   0.629  1.3766  0.3579  0.1009
11462TIP3    H255802   1.518   1.456   0.585 -0.1497  1.2933 -0.5851
11463TIP3   OH255803   1.165   2.202  17.150  0.1961  0.9850 -0.2449
11463TIP3    H155804   1.073   2.228  17.140 -0.9208 -1.2396  2.7445
11463TIP3    H255805   1.175   2.127  17.091 -0.8004 -0.4490  1.3125
11464TIP3   OH255806   0.797   0.214  14.139 -0.2738 -0.0273  0.3767
11464TIP3    H155807   0.742   0.174  14.207 -2.4285  0.4258 -1.0066
11464TIP3    H255808   0.735   0.254  14.078  1.5157 -0.6832 -2.0563
11465TIP3   OH255809   2.045   5.471   4.026  0.0661  0.2267  0.3602
11465TIP3    H155810   1.996   5.440   4.102  1.5816 -1.9141  0.5703
11465TIP3    H255811   2.068   5.391   3.978  1.9115  1.2587 -0.6101
11466TIP3   OH255812   1.563   6.152  12.328 -0.5651  0.1346 -0.2828
11466TIP3    H155813   1.611   6.092  12.271 -0.7089 -0.5248  0.2817
11466TIP3    H255814   1.491   6.100  12.364 -1.7334  1.1113 -1.1184
11467TIP3   OH255815   2.285   4.510   4.781  0.8980  0.2104  0.0938
11467TIP3    H155816   2.268   4.515   4.687  1.1371  0.7405  0.0697
11467TIP3    H255817   2.358   4.448   4.789  1.3790  0.7332 -0.1482
11468TIP3   OH255818   5.643   2.203  15.993 -0.2325 -0.1608 -0.2914
11468TIP3    H155819   5.582   2.145  15.948 -0.8417 -0.3487  0.7719
11468TIP3    H255820   5.679   2.150  16.064 -0.9948  0.8351  0.8589
11469TIP3   OH255821   0.123   0.593   1.185  0.3849 -0.5484 -0.0543
11469TIP3    H155822   0.119   0.571   1.091 -0.9425  1.7231 -0.5912
11469TIP3    H255823   0.075   0.522   1.227 -1.0872 -0.3973 -1.3727
11470TIP3   OH255824   4.050   3.300   0.083  0.0496  0.1929  0.5687
11470TIP3    H155825   4.069   3.219   0.037  1.2850 -0.1400  1.5808
11470TIP3    H255826   3.961   3.324   0.057  0.4381 -0.3616 -1.3478
11471TIP3   OH255827   0.103   5.912   5.690 -0.0140 -0.0558  0.1008
11471TIP3    H155828   0.061   5.924   5.776 -0.3203  0.0703 -0.0626
11471TIP3    H255829   0.064   5.981   5.636 -0.2891 -0.5379 -0.3123
11472TIP3   OH255830   2.608   2.145  11.119  0.0161 -0.0671  0.0442
11472TIP3    H155831   2.702   2.146  11.102  0.2969 -0.4403  1.4811
11472TIP3    H255832   2.579   2.233  11.096  0.2558 -0.5616 -2.5777
11473TIP3   OH255833   1.710   5.473  13.602  0.4510  0.4027 -0.1537
11473TIP3    H155834   1.799   5.482  13.568  0.9175  0.3029  0.9849
11473TIP3    H255835   1.692   5.555  13.646 -0.1496  0.5364 -0.6299
11474TIP3   OH255836   6.657   2.416  16.524  0.3752  0.0193  0.4760
11474TIP3    H155837   6.693   2.331  16.497 -1.5520 -1.0810  1.1651
11474TIP3    H255838   6.635   2.404  16.616 -0.6165  1.0269  0.3794
11475TIP3   OH255839   5.494   0.702  12.089 -0.6111 -0.5436 -0.4515
11475TIP3    H155840   5.472   0.658  12.007 -0.8309 -1.7245  0.2167
11475TIP3    H255841   5.565   0.649  12.126 -1.6439 -1.0490  0.9130
11476TIP3   OH255842   4.539   3.212  15.529  0.1172 -0.0236  0.5027
11476TIP3    H155843   4.633   3.195  15.532  0.1228  0.0153  0.5611
11476TIP3    H255844   4.498   3.133  15.564  0.0298 -0.8101 -1.2704
11477TIP3   OH255845   1.956   3.426   5.291 -0.3205  0.0715 -0.1854
11477TIP3    H155846   1.909   3.464   5.365 -0.6860 -1.3146  0.3301
11477TIP3    H255847   2.034   3.386   5.330 -0.5260 -0.6890 -0.5295
11478TIP3   OH255848   6.680   5.437  13.859  0.4921  1.0948  0.2425
11478TIP3    H155849   6.652   5.361  13.910 -0.2516  1.9749  1.2044
11478TIP3    H255850   6.622   5.508  13.888  0.2082  1.7080 -1.6529
11479TIP3   OH255851   1.998   4.853  10.329 -0.0909 -0.2581 -0.0375
11479TIP3    H155852   2.042   4.771  10.305 -2.2928 -1.6220  0.2729
11479TIP3    H255853   2.043   4.881  10.409  1.5763 -0.4011 -0.8732
11480TIP3   OH255854   1.191   3.627  15.591 -0.1386  0.5356 -0.2042
11480TIP3    H155855   1.138   3.666  15.522 -0.4536  0.8359  0.2045
11480TIP3    H255856   1.148   3.653  15.672 -0.0760 -0.2557  0.0930
11481TIP3   OH255857   0.797   5.500   1.802 -0.0501  0.2770  0.5215
11481TIP3    H155858   0.833   5.463   1.882 -0.7908  0.0233  0.7391
11481TIP3    H255859   0.818   5.435   1.734 -0.4736 -0.0747  0.7247
11482TIP3   OH255860   0.819   5.109  14.190 -0.2659  0.0109  0.3332
11482TIP3    H155861   0.809   5.047  14.262  0.8596 -1.7954 -0.9883
11482TIP3    H255862   0.796   5.059  14.112 -0.1763  1.5342 -0.7057
11483TIP3   OH255863   1.870   5.935  14.668 -0.0847  0.5999 -0.1126
11483TIP3    H155864   1.962   5.960  14.660 -0.4966  3.3488  2.0370
11483TIP3    H255865   1.823   6.018  14.676 -2.7121 -0.7291 -0.4744
11484TIP3   OH255866   1.786   4.903  13.636 -0.4802  0.4804  0.0846
11484TIP3    H155867   1.767   4.874  13.547  1.2429 -1.6640  0.3183
11484TIP3    H255868   1.782   4.824  13.689  1.3509  1.1792  1.3864
11485TIP3   OH255869   2.551   5.933   2.346 -0.0706  0.1692  0.6448
11485TIP3    H155870   2.560   6.028   2.339  1.1888  0.1306  1.4358
11485TIP3    H255871   2.456   5.917   2.342 -0.4483  1.6352  2.3814
11486TIP3   OH255872   1.409   0.612   5.679 -0.1068 -0.2898  0.7198
11486TIP3    H155873   1.497   0.594   5.648 -0.4344 -0.0200 -0.4059
11486TIP3    H255874   1.390   0.701   5.647 -0.5967 -0.1461  1.3843
11487TIP3   OH255875   2.872   1.618  12.517 -0.0206  0.2175 -0.2804
11487TIP3    H155876   2.963   1.608  12.491  0.0907  1.7908 -0.6046
11487TIP3    H255877   2.821   1.587  12.442  0.1947 -1.9092  0.3973
11488TIP3   OH255878   3.851   3.545  10.536 -0.2884 -0.6108 -0.0172
11488TIP3    H155879   3.807   3.620  10.576  0.1435 -0.9377  1.1068
11488TIP3    H255880   3.923   3.583  10.485 -0.6287 -0.2120 -0.2088
11489TIP3   OH255881   2.729   3.384  17.190  0.4995 -0.3676  0.0013
11489TIP3    H155882   2.776   3.430  17.120  0.5959 -1.8408 -0.9560
11489TIP3    H255883   2.641   3.369  17.154  0.7847 -1.8257 -0.1557
11490TIP3   OH255884   2.564   4.705   2.578 -0.7106  0.1252 -0.2345
11490TIP3    H155885   2.623   4.635   2.607  0.1456  1.1898  0.6827
11490TIP3    H255886   2.486   4.659   2.547  0.5490 -1.3430 -1.4508
11491TIP3   OH255887   2.691   6.754   2.591  0.6207  0.2826  0.1019
11491TIP3    H155888   2.767   6.700   2.613  0.1906 -0.5882 -0.5041
11491TIP3    H255889   2.693   6.761   2.496 -0.2245 -0.0002  0.0546
11492TIP3   OH255890   0.746   0.042   4.196  0.3381  0.1673  0.1693
11492TIP3    H155891   0.662   0.088   4.206 -1.1186 -2.3055  0.0123
11492TIP3    H255892   0.772   0.058   4.106 -0.8676 -0.4611 -0.3029
11493TIP3   OH255893   3.297   4.216   4.971  0.1143  0.5262 -0.3690
11493TIP3    H155894   3.374   4.258   4.933  0.4101  1.6119  1.3311
11493TIP3    H255895   3.302   4.125   4.941  1.6482  0.7600 -0.8925
11494TIP3   OH255896   2.022   5.205  10.980 -0.7097 -0.2948  0.1739
11494TIP3    H155897   2.045   5.254  10.901 -1.2487  0.8271  0.6856
11494TIP3    H255898   2.058   5.118  10.965 -1.1455 -0.2401 -1.4830
11495TIP3   OH255899   4.478   1.874   3.411  0.4600  0.1657  1.0632
11495TIP3    H155900   4.529   1.938   3.461  0.0032 -0.0145  1.7750
11495TIP3    H255901   4.456   1.806   3.474  3.1483 -2.1085 -0.1990
11496TIP3   OH255902   4.907   5.355  14.127  0.0970 -0.1944 -0.3847
11496TIP3    H155903   4.961   5.433  14.139 -1.2395  0.6498  0.4256
11496TIP3    H255904   4.969   5.285  14.110  1.3307  1.1177 -1.6121
11497TIP3   OH255905   5.226   6.615   6.102  0.0046 -0.0089  0.5993
11497TIP3    H155906   5.195   6.527   6.122 -3.0994  0.6986 -0.5809
11497TIP3    H255907   5.236   6.617   6.007  0.1396  0.9072  0.6186
11498TIP3   OH255908   3.387   0.303  12.304  0.3901 -0.0771 -0.1065
11498TIP3    H155909   3.369   0.352  12.224 -0.2539 -1.6292 -0.9502
11498TIP3    H255910   3.474   0.266  12.291  1.2069  1.3876  0.8541
11499TIP3   OH255911   5.869   3.462  13.550  0.4807 -0.2936 -0.1785
11499TIP3    H155912   5.936   3.473  13.618  0.2979 -1.9855  0.3194
11499TIP3    H255913   5.803   3.528  13.571  0.5435 -0.6246  1.1462
11500TIP3   OH255914   6.485   0.762  16.102  0.3971  0.3091  0.8100
11500TIP3    H155915   6.537   0.684  16.120 -0.4399 -0.4025  0.2157
11500TIP3    H255916   6.530   0.832  16.149  0.3112 -0.7952  2.6309
11501TIP3   OH255917   0.679   4.125   4.031 -0.0209  0.0333  0.2981
11501TIP3    H155918   0.619   4.052   4.021  1.7616 -1.4702  0.0286
11501TIP3    H255919   0.705   4.122   4.123  0.3434  0.0820  0.1996
11502TIP3   OH255920   4.887   2.007   2.883  0.1100 -0.1012 -0.1435
11502TIP3    H155921   4.945   1.937   2.913 -1.2476 -1.2477 -0.0837
11502TIP3    H255922   4.944   2.067   2.835  0.9665 -2.4674 -2.2870
11503TIP3   OH255923   3.687   0.203   5.915  0.4947  0.1784  0.7879
11503TIP3    H155924   3.764   0.146   5.915  0.3354 -0.0910  2.7273
11503TIP3    H255925   3.669   0.219   6.007 -1.4671  0.6982  0.3521
11504TIP3   OH255926   2.453   0.070   5.717  0.1964 -0.5173 -0.9464
11504TIP3    H155927   2.495   0.015   5.651  0.5623  0.4837 -1.5739
11504TIP3    H255928   2.395   0.011   5.765  1.1163 -1.5851 -1.1250
11505TIP3   OH255929   5.451   3.301  16.390  0.3211  0.6470  0.7974
11505TIP3    H155930   5.431   3.379  16.442  2.3203  0.1948  2.3687
11505TIP3    H255931   5.448   3.229  16.453 -1.0551 -0.5458 -0.5318
11506TIP3   OH255932   6.186   4.232  13.810  0.4807  0.1761  0.6637
11506TIP3    H155933   6.237   4.312  13.824  1.6684 -0.7249  1.6584
11506TIP3    H255934   6.145   4.214  13.895  1.0948 -0.8470  0.7613
11507TIP3   OH255935   6.419   0.757   0.253  0.0767  0.4775 -0.2086
11507TIP3    H155936   6.380   0.699   0.318  3.0750  0.8677  2.2193
11507TIP3    H255937   6.385   0.844   0.274 -0.6576  0.3032 -0.6485
11508TIP3   OH255938   4.973   2.503   6.508  0.0871 -0.1790 -0.7952
11508TIP3    H155939   4.991   2.524   6.600 -0.1091 -0.6226 -0.6519
11508TIP3    H255940   4.974   2.408   6.505 -2.1912 -0.2575 -0.7757
11509TIP3   OH255941   5.172   1.278   0.552  0.1606  0.5636  0.0120
11509TIP3    H155942   5.237   1.213   0.523  2.0228  1.9284  0.9040
11509TIP3    H255943   5.175   1.346   0.485 -1.8525 -0.2257 -0.9688
11510TIP3   OH255944   0.471   1.679  10.851 -0.6725 -0.6738 -0.1527
11510TIP3    H155945   0.481   1.620  10.777  0.1601 -1.6410  0.7005
11510TIP3    H255946   0.560   1.691  10.885 -0.9542  0.2928  0.2754
11511TIP3   OH255947   6.461   0.409  12.932 -0.3552 -0.1465  0.5951
11511TIP3    H155948   6.412   0.353  12.993  0.9023  1.0767  2.8715
11511TIP3    H255949   6.481   0.488  12.983 -0.0542  1.3946 -1.7631
11512TIP3   OH255950   1.136   0.678   2.124 -0.2314 -0.4396 -0.1348
11512TIP3    H155951   1.194   0.611   2.088  0.3124  0.2963 -0.6791
11512TIP3    H255952   1.141   0.750   2.060  0.2078  0.6207  1.0570
11513TIP3   OH255953   0.316   4.100   3.164  0.2041 -0.1756 -0.2484
11513TIP3    H155954   0.276   4.110   3.251  2.0909  0.6508  0.5857
11513TIP3    H255955   0.245   4.069   3.108 -0.8336 -1.7541  1.8142
11514TIP3   OH255956   3.832   0.127   4.563  0.0744  0.0058 -0.3282
11514TIP3    H155957   3.924   0.154   4.566 -0.0911  0.5363  0.7274
11514TIP3    H255958   3.795   0.174   4.489  0.6638 -0.2457 -0.7877
11515TIP3   OH255959   0.691   1.575  16.201  0.0550 -0.2960  0.1697
11515TIP3    H155960   0.737   1.658  16.187 -2.4367  1.6036  2.2531
11515TIP3    H255961   0.693   1.562  16.296 -1.4441 -1.4842  0.0873
11516TIP3   OH255962   6.750   6.251   0.344  0.5506  0.0894  0.1564
11516TIP3    H155963   6.776   6.159   0.342  0.6775  0.1288 -0.1507
11516TIP3    H255964   6.654   6.249   0.341  0.5732 -0.0065 -1.8285
11517TIP3   OH255965   4.189   2.819   0.001  0.0684  0.3025 -0.2100
11517TIP3    H155966   4.105   2.818  -0.044 -1.1112 -2.0759  1.8273
11517TIP3    H255967   4.170   2.787   0.089  2.9314  0.8271  0.7020
11518TIP3   OH255968   5.481   5.663   0.965  0.7720 -0.4345  0.5215
11518TIP3    H155969   5.408   5.698   0.914 -0.2881 -1.3222  1.3871
11518TIP3    H255970   5.440   5.608   1.032  2.2944 -2.2836  0.0360
11519TIP3   OH255971   3.231   1.901   0.540  0.7557 -0.1427 -0.4019
11519TIP3    H155972   3.173   1.842   0.492 -1.6006  0.7203  1.2431
11519TIP3    H255973   3.296   1.843   0.579  0.4135 -1.2699 -1.4284
11520TIP3   OH255974   4.562   6.305   3.518  0.0185 -0.5396  0.0668
11520TIP3    H155975   4.640   6.333   3.566 -0.9532 -0.0746  1.4143
11520TIP3    H255976   4.513   6.252   3.581 -0.7366 -0.8756 -0.7823
11521TIP3   OH255977   1.089   0.862  15.585 -0.2662 -0.1883 -0.7762
11521TIP3    H155978   1.184   0.858  15.591 -0.0424  3.0145 -0.5057
11521TIP3    H255979   1.072   0.866  15.490 -0.2300 -1.4373 -0.8545
11522TIP3   OH255980   5.725   0.746  12.292  0.3573  0.6911 -0.3436
11522TIP3    H155981   5.670   0.821  12.271 -1.2100  0.0556  1.2548
11522TIP3    H255982   5.804   0.785  12.331 -0.2708  1.5216  0.1306
11523TIP3   OH255983   1.974   2.234  13.301  1.0205 -0.5722  0.1762
11523TIP3    H155984   2.057   2.270  13.269 -0.3823  1.3258 -1.6154
11523TIP3    H255985   1.948   2.170  13.236 -0.2278  0.8908 -0.8400
11524TIP3   OH255986   3.739   3.388  16.406 -0.1513  0.2361  0.3184
11524TIP3    H155987   3.676   3.451  16.441  0.1699  0.4418  0.5413
11524TIP3    H255988   3.800   3.441  16.354  2.7378  0.9341  3.9674
11525TIP3   OH255989   4.517   5.633   5.232 -0.2777  0.0173 -0.3133
11525TIP3    H155990   4.464   5.575   5.177  1.8971 -3.5643  1.0649
11525TIP3    H255991   4.603   5.633   5.191  0.8329 -1.1012  1.8435
11526TIP3   OH255992   1.740   5.842  14.350 -0.0534 -0.2744  0.7942
11526TIP3    H155993   1.667   5.793  14.313  0.8579 -1.6370  0.7207
11526TIP3    H255994   1.762   5.796  14.431  0.5157  0.2899  0.9733
11527TIP3   OH255995   2.825   1.637   3.576  0.6675  0.9151  0.1496
11527TIP3    H155996   2.774   1.717   3.585 -0.1718  0.2434  1.8479
11527TIP3    H255997   2.912   1.660   3.611  1.0273  1.5721 -1.1178
11528TIP3   OH255998   0.509   5.274  17.280 -0.1692 -0.2191 -0.5692
11528TIP3    H155999   0.443   5.205  17.286 -0.7931  0.4463  0.3724
11528TIP3    H256000   0.466   5.346  17.233  0.4170 -0.3720 -1.3790
11529TIP3   OH256001   6.369   4.841   3.366  0.0381  0.1565 -0.5901
11529TIP3    H156002   6.390   4.787   3.442 -1.6605  1.9478  1.2739
11529TIP3    H256003   6.444   4.831   3.308  0.9175 -2.1376  0.8161
11530TIP3   OH256004   1.018   5.057   6.196  0.4632 -0.5146 -0.3659
11530TIP3    H156005   0.937   5.108   6.204  0.5425 -0.3800 -0.4145
11530TIP3    H256006   1.020   5.003   6.275  1.6338  1.3728  0.9993
11531TIP3   OH256007   1.786   4.653   5.815  0.2939 -0.0393  0.4220
11531TIP3    H156008   1.840   4.577   5.795  0.5671  0.4417 -0.6927
11531TIP3    H256009   1.839   4.728   5.789 -0.8652  0.4464 -0.6174
11532TIP3   OH256010   5.986   0.337   3.932 -0.6115 -0.1276 -0.4530
11532TIP3    H156011   5.908   0.382   3.964 -2.2353 -1.2969 -2.5271
11532TIP3    H256012   6.022   0.396   3.866  0.1282  0.2779  0.2937
11533TIP3   OH256013   3.242   0.545   5.934  0.0766  0.7154 -0.3502
11533TIP3    H156014   3.241   0.625   5.882  1.0565  1.4126  0.6663
11533TIP3    H256015   3.151   0.532   5.960  0.0263  1.9380  0.1114
11534TIP3   OH256016   6.090   6.176   3.108  0.1987  0.4654 -0.3411
11534TIP3    H156017   6.003   6.144   3.083  0.1788  0.4648 -0.2710
11534TIP3    H256018   6.124   6.217   3.028 -0.0618  0.8957 -0.2368
11535TIP3   OH256019   5.189   6.129   2.172 -0.3130 -0.7509  0.3467
11535TIP3    H156020   5.137   6.155   2.096  0.5001 -0.9452 -0.2918
11535TIP3    H256021   5.126   6.124   2.244 -0.5175  3.4802  0.7279
11536TIP3   OH256022   1.935   2.960  10.799  0.4102  0.1951 -0.3271
11536TIP3    H156023   1.898   3.007  10.873 -0.5430  0.6474 -1.0713
11536TIP3    H256024   2.017   3.006  10.779  0.1568  0.6941 -0.2087
11537TIP3   OH256025   5.792   1.790  16.319 -0.9830 -0.2297 -0.1542
11537TIP3    H156026   5.869   1.837  16.352  0.6463 -2.3312 -0.7249
11537TIP3    H256027   5.766   1.733  16.391 -0.2186 -1.5619 -0.9029
11538TIP3   OH256028   5.955   3.924   1.175  0.2165  0.2284  0.3394
11538TIP3    H156029   6.036   3.894   1.215  0.2016  0.5699  0.6399
11538TIP3    H256030   5.916   3.981   1.241  0.5401  1.3878 -0.4455
11539TIP3   OH256031   5.663   0.157  11.918 -0.2116 -0.3332  0.0096
11539TIP3    H156032   5.631   0.081  11.967 -1.0264 -0.1715 -0.2646
11539TIP3    H256033   5.756   0.163  11.941  0.0744 -1.9273 -0.6161
11540TIP3   OH256034   1.456   2.512   2.265  0.4755  0.0813 -0.7311
11540TIP3    H156035   1.513   2.549   2.332  0.2031 -1.1238  0.2079
11540TIP3    H256036   1.468   2.569   2.189  0.9987  1.3218  0.2425
11541TIP3   OH256037   1.712   0.384   4.446 -0.1347 -0.1451  0.5918
11541TIP3    H156038   1.732   0.463   4.395  0.8483 -0.6436  0.1912
11541TIP3    H256039   1.787   0.374   4.505 -0.1882 -0.8516  0.5448
11542TIP3   OH256040   4.254   3.271   4.962 -0.0051  0.5285  0.5561
11542TIP3    H156041   4.296   3.270   5.048 -0.0064  0.4577  0.5561
11542TIP3    H256042   4.250   3.179   4.936  0.3459  0.5814  0.3097
11543TIP3   OH256043   3.890   2.765   6.019  0.3464  0.4666 -0.5040
11543TIP3    H156044   3.953   2.695   6.031 -1.4808 -1.4428 -1.3963
11543TIP3    H256045   3.907   2.799   5.931  0.6197  0.4617 -0.4513
11544TIP3   OH256046   1.196   2.614   2.957  0.8423  0.4552  0.2274
11544TIP3    H156047   1.120   2.669   2.936 -0.5266 -2.2033 -2.5546
11544TIP3    H256048   1.259   2.633   2.888  0.1748 -1.5820 -1.0379
11545TIP3   OH256049   6.621   2.207   3.380  0.1701 -0.2466  0.4185
11545TIP3    H156050   6.712   2.237   3.383  0.4643 -1.1128  0.2424
11545TIP3    H256051   6.586   2.228   3.467  0.6548 -0.2693  0.6230
11546TIP3   OH256052   0.005   0.841   3.586  0.1455 -0.6041  0.2500
11546TIP3    H156053  -0.013   0.926   3.546  0.2067  0.2205  1.9032
11546TIP3    H256054  -0.051   0.780   3.538 -0.5747  0.5130 -0.3749
11547TIP3   OH256055   5.260   0.694  14.022  0.4661 -0.1064 -0.2877
11547TIP3    H156056   5.214   0.612  14.002  0.7943 -0.5485  0.7096
11547TIP3    H256057   5.317   0.708  13.946 -1.1773  0.3750 -1.4736
11548TIP3   OH256058   0.639   5.446   0.229 -0.0504 -0.6637 -1.0779
11548TIP3    H156059   0.554   5.404   0.242  0.6224 -1.7143  0.1996
11548TIP3    H256060   0.633   5.528   0.278  0.0192 -1.2529 -0.0503
11549TIP3   OH256061   4.912   0.370  13.385  0.5774 -0.1381  0.2246
11549TIP3    H156062   4.849   0.434  13.417 -1.6584 -2.9130  1.8662
11549TIP3    H256063   4.913   0.382  13.290 -2.0596  0.4087  0.2023
11550TIP3   OH256064   6.116   4.859   2.696 -0.2837  0.4923  0.0399
11550TIP3    H156065   6.185   4.850   2.630  0.6488  0.9878  0.9114
11550TIP3    H256066   6.163   4.872   2.779 -1.3999  2.3748  0.4520
11551TIP3   OH256067   1.585   2.872   3.043  0.0038 -0.0893  0.2051
11551TIP3    H156068   1.562   2.965   3.044 -3.3090 -0.7611 -0.9486
11551TIP3    H256069   1.563   2.842   3.131 -1.9999 -0.3162 -0.3136
11552TIP3   OH256070   6.692   4.970   2.226 -0.6067 -0.2419  0.3251
11552TIP3    H156071   6.674   4.969   2.132 -0.9165  0.9640  0.3642
11552TIP3    H256072   6.606   4.985   2.266 -0.5171 -1.0087  0.8212
11553TIP3   OH256073   2.822   5.228  16.258  0.1814 -0.3319 -0.0804
11553TIP3    H156074   2.872   5.244  16.338 -0.3320 -1.3181  0.4624
11553TIP3    H256075   2.813   5.133  16.254  0.0032 -0.2854 -1.1995
11554TIP3   OH256076   1.978   5.195  15.461  0.1810 -0.1443  0.5488
11554TIP3    H156077   1.998   5.198  15.367 -0.2185  1.2281  0.4898
11554TIP3    H256078   1.884   5.175  15.465  0.6260 -2.4849  0.7407
11555TIP3   OH256079   5.965   6.319  17.156  0.4618  0.6739  0.0255
11555TIP3    H156080   5.964   6.247  17.219  1.2151  2.1967  1.8606
11555TIP3    H256081   5.879   6.315  17.114 -0.2806 -0.0625  1.5251
11556TIP3   OH256082   2.658   4.792  14.617 -0.1063 -0.1858 -0.0716
11556TIP3    H156083   2.616   4.841  14.546 -0.1659  1.2966  0.9472
11556TIP3    H256084   2.742   4.764  14.581 -0.5783 -0.3710 -1.0562
11557TIP3   OH256085   5.871   3.917  11.713  0.1336  0.1707  0.8525
11557TIP3    H156086   5.819   3.995  11.695  0.8509  0.5908  0.5287
11557TIP3    H256087   5.952   3.931  11.664  0.9319 -0.0334  2.0595
11558TIP3   OH256088   2.356   6.500   3.845 -0.1263  0.0685  0.3431
11558TIP3    H156089   2.341   6.436   3.775  1.3141 -1.8564  1.6651
11558TIP3    H256090   2.385   6.579   3.800  3.4597 -1.9011 -1.2485
11559TIP3   OH256091   0.925   3.564   1.972 -0.4034  0.3255  0.3341
11559TIP3    H156092   0.890   3.485   1.930  0.7514 -0.0188 -0.0278
11559TIP3    H256093   1.015   3.542   1.993  0.2212  1.8375 -0.5602
11560TIP3   OH256094   2.100   6.519   1.782 -0.3369 -0.1253  0.0317
11560TIP3    H156095   2.004   6.516   1.782 -0.3310 -0.6718  0.6296
11560TIP3    H256096   2.126   6.426   1.784  0.2034  0.0176 -0.2872
11561TIP3   OH256097   5.693   5.380   0.330 -0.4052  0.5539  0.3391
11561TIP3    H156098   5.693   5.369   0.235  0.2502  0.3057  0.3612
11561TIP3    H256099   5.695   5.291   0.365  1.8162  0.6268  0.5445
11562TIP3   OH256100   0.722   3.753   4.067  0.0124  0.1133 -0.3035
11562TIP3    H156101   0.795   3.719   4.014 -0.9534 -2.2860 -0.2103
11562TIP3    H256102   0.676   3.812   4.008  1.6502  1.2096 -0.5590
11563TIP3   OH256103   4.054   3.152  11.218 -0.1914 -0.2977  0.2144
11563TIP3    H156104   3.984   3.091  11.196  0.4843 -0.4323 -1.7633
11563TIP3    H256105   4.134   3.099  11.218  0.7685  0.7649 -3.8347
11564TIP3   OH256106   1.246   1.156   6.575 -0.2556  0.4661 -0.6216
11564TIP3    H156107   1.327   1.106   6.582  0.8064  2.3628  2.9458
11564TIP3    H256108   1.262   1.218   6.504  0.1153 -1.2083 -2.0674
11565TIP3   OH256109   6.118   6.117   5.810  0.0129  0.3740 -0.5355
11565TIP3    H156110   6.137   6.122   5.717  0.0777  0.9184 -0.4931
11565TIP3    H256111   6.071   6.198   5.830  0.7024  0.6360  0.0653
11566TIP3   OH256112   1.716   4.192   4.524 -0.4718 -0.5421  0.1203
11566TIP3    H156113   1.781   4.145   4.576 -0.2633  0.5393  0.8803
11566TIP3    H256114   1.632   4.165   4.561 -0.3507 -0.2427  0.6186
11567TIP3   OH256115   3.262   6.702  14.805 -0.0275  1.2928  0.1028
11567TIP3    H156116   3.218   6.619  14.825  1.9597  0.3865  1.0051
11567TIP3    H256117   3.306   6.686  14.722  0.9739  1.1366  0.6393
11568TIP3   OH256118   6.285   5.075  15.731  0.9146  0.2813 -0.2360
11568TIP3    H156119   6.365   5.025  15.715 -0.0628 -1.7805  0.9137
11568TIP3    H256120   6.232   5.061  15.652  1.0076  0.3046 -0.3038
11569TIP3   OH256121   3.965   1.759  14.581  0.2156  0.4403 -0.1181
11569TIP3    H156122   3.966   1.719  14.667  0.9556 -1.0880 -0.7991
11569TIP3    H256123   4.055   1.789  14.567 -0.5232  3.4401  0.8062
11570TIP3   OH256124   0.589   2.565   3.107 -0.4836 -0.5913 -0.4487
11570TIP3    H156125   0.653   2.626   3.144 -0.2525 -0.9387 -0.2786
11570TIP3    H256126   0.515   2.569   3.168 -0.6367 -0.1774 -0.6549
11571TIP3   OH256127   3.850   4.865   4.348  0.4251  0.1461  0.4861
11571TIP3    H156128   3.859   4.779   4.307  1.0673  0.4046  0.0756
11571TIP3    H256129   3.755   4.877   4.356  0.3103 -0.3083 -0.0818
11572TIP3   OH256130   2.021   2.546  12.810  0.0700 -0.3459  0.1830
11572TIP3    H156131   1.997   2.586  12.894  4.0456 -1.3914  2.0349
11572TIP3    H256132   1.982   2.459  12.813 -0.2452 -0.1936  0.7145
11573TIP3   OH256133   1.751   3.415  10.540  0.0878 -0.4681  0.1497
11573TIP3    H156134   1.829   3.361  10.530 -0.2183 -0.8893  0.0200
11573TIP3    H256135   1.702   3.402  10.459 -0.7063 -1.1566  0.7259
11574TIP3   OH256136   4.347   0.791  14.081  0.2622  0.3907  0.1605
11574TIP3    H156137   4.349   0.844  14.001 -0.5665  1.1279  0.6000
11574TIP3    H256138   4.267   0.740  14.072 -0.2691  1.0700  0.8628
11575TIP3   OH256139   1.669   6.392  15.294  0.2604  0.3281 -0.1152
11575TIP3    H156140   1.704   6.374  15.381 -0.4377 -0.8861 -0.0554
11575TIP3    H256141   1.575   6.377  15.303 -0.0613  1.7897 -0.6971
11576TIP3   OH256142   3.297   3.150   5.713 -0.6209 -0.1850 -0.4284
11576TIP3    H156143   3.268   3.230   5.669 -0.7009 -0.1296 -0.2757
11576TIP3    H256144   3.337   3.097   5.644 -1.9639 -0.6913 -0.8358
11577TIP3   OH256145   6.018   0.323   0.610 -0.0715 -0.0610 -0.4931
11577TIP3    H156146   5.929   0.322   0.573  0.0769 -2.7003 -0.9860
11577TIP3    H256147   6.007   0.287   0.699  0.7226 -3.0391 -1.4752
11578TIP3   OH256148   1.989   1.080  13.884  0.3155 -0.3357  0.4038
11578TIP3    H156149   1.984   0.987  13.861  0.4015 -0.0441 -0.8637
11578TIP3    H256150   1.905   1.098  13.927 -0.2834 -0.6921 -0.5791
11579TIP3   OH256151   2.292   5.174  14.009  0.8368 -0.2819  0.2855
11579TIP3    H156152   2.217   5.140  14.059 -1.0832  2.5710 -0.3969
11579TIP3    H256153   2.259   5.184  13.920  2.6353 -0.5677 -0.4613
11580TIP3   OH256154   0.354   5.834   5.838  0.7716 -0.2111  0.1469
11580TIP3    H156155   0.270   5.828   5.791  0.0785 -1.0346  1.4095
11580TIP3    H256156   0.331   5.874   5.922  1.5476 -0.8417  0.6754
11581TIP3   OH256157   5.014   5.548  15.690  0.5215 -0.0399 -0.0394
11581TIP3    H156158   4.977   5.581  15.772 -0.0445 -1.0185  0.1205
11581TIP3    H256159   5.108   5.562  15.699  0.3592  0.8877  0.2956
11582TIP3   OH256160   3.944   2.499   0.231 -0.2438 -0.0150 -0.3544
11582TIP3    H156161   3.998   2.421   0.243  1.6086  1.0330 -1.4067
11582TIP3    H256162   3.924   2.500   0.137  1.9039  2.0390 -0.8721
11583TIP3   OH256163   4.352   4.089   2.959 -0.6186 -0.3658 -0.8658
11583TIP3    H156164   4.285   4.027   2.932 -0.8521  0.0130 -1.1587
11583TIP3    H256165   4.307   4.173   2.965  0.4948  0.6798 -4.5786
11584TIP3   OH256166   3.037   1.113   6.086  0.3831 -0.0176 -0.1079
11584TIP3    H156167   2.945   1.135   6.072 -0.0054 -0.9908  0.8013
11584TIP3    H256168   3.051   1.125   6.179  0.7957 -1.2167  0.0063
11585TIP3   OH256169   6.344   5.973  14.248 -0.2550  0.1066 -0.2097
11585TIP3    H156170   6.365   6.049  14.301 -1.3303 -0.6582  1.3773
11585TIP3    H256171   6.412   5.972  14.180  2.0794  0.2971  1.9889
11586TIP3   OH256172   0.164   2.473   5.164  1.0974  0.2265 -0.1932
11586TIP3    H156173   0.118   2.551   5.194  0.6234  0.1615 -0.7198
11586TIP3    H256174   0.155   2.411   5.236 -0.5663 -0.1439 -0.6642
11587TIP3   OH256175   5.383   2.387  13.687  0.2420 -1.0068  1.1098
11587TIP3    H156176   5.368   2.459  13.626  2.7852 -2.6962 -1.8623
11587TIP3    H256177   5.299   2.342  13.693 -0.8473  0.9586  1.3848
11588TIP3   OH256178   3.938   6.573   1.025 -0.2722  0.7833  0.3831
11588TIP3    H156179   3.979   6.659   1.040  1.1408  0.5663 -1.7710
11588TIP3    H256180   3.875   6.589   0.955  1.5553 -0.2475 -1.6178
11589TIP3   OH256181   1.921   5.917   1.374 -0.3988 -0.0329 -0.8329
11589TIP3    H156182   1.918   5.823   1.361 -2.6247 -0.1441  0.0985
11589TIP3    H256183   1.861   5.953   1.309  0.2917  0.7501 -1.0609
11590TIP3   OH256184   2.964   3.192  14.010 -0.1456  0.5766 -0.3338
11590TIP3    H156185   2.918   3.169  13.930  0.4191  2.8227 -1.3636
11590TIP3    H256186   2.900   3.239  14.063  0.1137  1.1237 -0.4951
11591TIP3   OH256187   4.911   5.158   1.958 -0.0931  0.2957 -0.3602
11591TIP3    H156188   4.987   5.100   1.947  0.5173  0.8865  0.5943
11591TIP3    H256189   4.845   5.103   2.000 -0.3425 -0.3183 -1.5073
11592TIP3   OH256190   4.430   4.062   0.689  0.1335 -0.0182 -0.1192
11592TIP3    H156191   4.458   4.110   0.767 -0.7195 -0.4485  0.4638
11592TIP3    H256192   4.433   3.970   0.714  2.6660 -0.4191 -1.5150
11593TIP3   OH256193   4.895   2.544  13.185  0.0814  0.7791 -0.0381
11593TIP3    H156194   4.979   2.509  13.153 -0.0066 -0.0419  0.6115
11593TIP3    H256195   4.852   2.469  13.225 -0.0831  1.6480  1.4536
11594TIP3   OH256196   6.704   1.524   1.884 -0.1847  0.4602  0.2022
11594TIP3    H156197   6.643   1.459   1.920 -2.2209  2.0889 -0.0720
11594TIP3    H256198   6.735   1.485   1.803  1.2785 -1.5179  1.6028
11595TIP3   OH256199   5.220   5.883  15.802 -0.3668 -0.1600  0.8132
11595TIP3    H156200   5.312   5.908  15.808 -0.3640 -0.2127  0.9999
11595TIP3    H256201   5.190   5.881  15.893 -0.3202 -1.0279  0.8101
11596TIP3   OH256202   5.360   3.511  13.658 -0.3791 -0.4180 -0.1361
11596TIP3    H156203   5.351   3.484  13.750  0.0971 -2.4343 -0.6430
11596TIP3    H256204   5.270   3.521  13.628 -0.5417  0.2222  0.5264
11597TIP3   OH256205   6.161   1.123  15.748 -0.4842  0.1533  0.3070
11597TIP3    H156206   6.100   1.194  15.731 -2.0721 -0.4539  2.8867
11597TIP3    H256207   6.117   1.045  15.714 -0.4369 -0.0838  0.7860
11598TIP3   OH256208   5.444   5.288  16.131  0.7426  0.7525  0.2229
11598TIP3    H156209   5.480   5.290  16.043  0.7481  2.6000  0.2236
11598TIP3    H256210   5.515   5.256  16.186  1.0656  0.5563 -0.3038
11599TIP3   OH256211   3.989   1.952  12.830 -0.3090  0.5471 -0.5368
11599TIP3    H156212   3.934   1.877  12.809  2.0759 -1.1766 -1.0216
11599TIP3    H256213   3.989   2.005  12.751  0.0247 -0.2946 -1.1092
11600TIP3   OH256214   1.252   5.177  16.555  0.0116 -0.5605  0.7510
11600TIP3    H156215   1.167   5.150  16.591  0.6207  0.1892  2.8749
11600TIP3    H256216   1.266   5.119  16.481 -2.7596 -0.1212 -0.2403
11601TIP3   OH256217   0.751   5.439   3.120 -0.1569 -0.3715  0.3266
11601TIP3    H156218   0.792   5.526   3.115 -0.5591 -0.2024 -0.1443
11601TIP3    H256219   0.658   5.458   3.131 -0.2125 -0.7479  0.4945
11602TIP3   OH256220   2.464   2.944  11.720 -0.3129 -0.0346 -0.1933
11602TIP3    H156221   2.418   2.876  11.670  1.4945 -0.2550 -1.6294
11602TIP3    H256222   2.509   2.896  11.790  0.5518 -0.2776 -0.9025
11603TIP3   OH256223   1.604   5.284   4.089  0.2959  0.1956 -0.3615
11603TIP3    H156224   1.521   5.331   4.093 -0.6390 -1.2272 -1.7597
11603TIP3    H256225   1.671   5.352   4.095 -0.9839  1.4660 -0.1366
11604TIP3   OH256226   0.607   3.468   0.189  0.1140 -0.3673 -0.1835
11604TIP3    H156227   0.557   3.395   0.153  0.1443  0.2472 -1.5623
11604TIP3    H256228   0.698   3.448   0.168  0.0647  0.3452 -1.1378
11605TIP3   OH256229   3.256   1.327   1.841  0.4064  0.4647 -0.0523
11605TIP3    H156230   3.219   1.296   1.924  1.3735 -3.2428 -0.8190
11605TIP3    H256231   3.186   1.311   1.777  1.5656 -2.3496 -0.7751
11606TIP3   OH256232   2.911   6.487   2.141 -0.4428 -0.0907  0.8948
11606TIP3    H156233   2.836   6.483   2.081 -0.8803 -2.4746  1.5131
11606TIP3    H256234   2.883   6.550   2.209 -1.2060  0.2772  0.2614
11607TIP3   OH256235   2.647   6.410  14.920  0.6777  0.4388  0.0401
11607TIP3    H156236   2.671   6.499  14.893  0.4663  0.6607  0.5588
11607TIP3    H256237   2.681   6.353  14.851 -2.0943  1.1722 -2.1209
11608TIP3   OH256238   6.266   3.984   1.876  0.1018  0.8583  0.1415
11608TIP3    H156239   6.206   4.022   1.812 -1.1498 -0.0814  0.6982
11608TIP3    H256240   6.344   3.960   1.825 -1.6151 -1.7286 -1.5441
11609TIP3   OH256241   2.148   3.237   6.573 -0.0171 -0.2805  0.0705
11609TIP3    H156242   2.196   3.158   6.599  1.2515  0.1911 -0.7349
11609TIP3    H256243   2.189   3.308   6.623 -3.2159 -0.4221  3.2527
11610TIP3   OH256244   6.093   0.554  10.510  0.2891  0.2015  0.6701
11610TIP3    H156245   6.149   0.479  10.492 -1.3572 -0.8786 -0.1962
11610TIP3    H256246   6.153   0.625  10.531  2.1407 -0.2213 -2.6610
11611TIP3   OH256247   4.229   1.749   5.368 -0.1031  0.4356 -0.7850
11611TIP3    H156248   4.256   1.678   5.427  2.1376  0.6874 -1.4278
11611TIP3    H256249   4.184   1.704   5.296  0.2781 -0.2301 -0.6141
11612TIP3   OH256250   3.341   5.054  16.546  0.1362 -0.7647 -0.2641
11612TIP3    H156251   3.348   4.959  16.533 -0.8963 -0.7629 -0.9189
11612TIP3    H256252   3.381   5.092  16.468  0.4214 -0.6557 -0.0666
11613TIP3   OH256253   1.713   1.328  11.109  0.0544  0.4167 -0.5733
11613TIP3    H156254   1.797   1.282  11.115  0.0897  0.5681  0.1766
11613TIP3    H256255   1.727   1.393  11.040 -0.3124 -1.3041 -2.3822
11614TIP3   OH256256   6.697   5.918   2.652  0.2425 -0.4409 -0.0418
11614TIP3    H156257   6.728   5.845   2.599  1.8606  0.4454 -0.3523
11614TIP3    H256258   6.662   5.981   2.590  0.3706 -0.2299  0.0992
11615TIP3   OH256259   4.225   4.495  16.297 -0.2740 -0.1841 -0.6953
11615TIP3    H156260   4.139   4.535  16.282 -0.5606 -1.0843 -1.5196
11615TIP3    H256261   4.207   4.420  16.354  0.2427  0.7293  0.7182
11616TIP3   OH256262   4.608   2.945   0.077 -0.1011  0.1093 -0.0201
11616TIP3    H156263   4.566   3.010   0.134 -1.6415  0.2583 -1.2538
11616TIP3    H256264   4.682   2.991   0.039 -1.9593  1.7192 -1.9641
11617TIP3   OH256265   4.700   4.214   4.900 -0.9555  0.4503  0.3657
11617TIP3    H156266   4.659   4.128   4.907 -1.0895  0.4874  0.0586
11617TIP3    H256267   4.631   4.276   4.923 -0.7741  0.4668  0.8962
11618TIP3   OH256268   4.361   2.213   5.517  0.0366 -0.1547 -0.0090
11618TIP3    H156269   4.404   2.265   5.585 -3.5456  0.3874  2.1126
11618TIP3    H256270   4.414   2.226   5.439  3.2463  0.8548  2.1539
11619TIP3   OH256271   2.909   2.166   1.629 -0.3255  1.0234 -0.3416
11619TIP3    H156272   2.855   2.111   1.685  0.5640 -0.0251 -0.4748
11619TIP3    H256273   2.909   2.121   1.544  0.8182  0.9431 -0.3163
11620TIP3   OH256274   4.367   0.992  15.105 -0.4140  0.0099  0.3171
11620TIP3    H156275   4.428   0.920  15.093  0.0445  0.7412 -2.2728
11620TIP3    H256276   4.373   1.014  15.198  1.6433 -1.3454  0.5450
11621TIP3   OH256277   4.354   0.317  11.267  0.4481 -0.0998 -0.3447
11621TIP3    H156278   4.368   0.411  11.270 -0.9619  0.1457 -0.7875
11621TIP3    H256279   4.333   0.299  11.175  0.7655 -0.8588 -0.2772
11622TIP3   OH256280   1.542   2.768   4.551 -0.2124  0.1003  0.2233
11622TIP3    H156281   1.619   2.743   4.500 -1.2495  0.5120 -1.6198
11622TIP3    H256282   1.542   2.864   4.550  0.6718  0.1928  2.5086
11623TIP3   OH256283   1.538   5.428  14.825  0.2513 -0.9267 -0.0461
11623TIP3    H156284   1.617   5.378  14.849  0.4140 -0.3946  0.5450
11623TIP3    H256285   1.498   5.376  14.756  1.0684 -1.2656 -0.2843
11624TIP3   OH256286   0.487   3.045  14.349  0.0567  0.0575  0.3005
11624TIP3    H156287   0.551   3.085  14.289 -0.2853 -0.3849 -0.3785
11624TIP3    H256288   0.503   2.951  14.342  0.3116  0.0216  1.2663
11625TIP3   OH256289   5.272   2.937  13.630  0.2587  0.1954  0.0519
11625TIP3    H156290   5.227   2.990  13.564  2.4697  1.5475 -0.4927
11625TIP3    H256291   5.262   2.987  13.712 -0.0495 -0.0067  0.1389
11626TIP3   OH256292   5.328   2.384   5.149 -0.1645 -0.2794 -0.2000
11626TIP3    H156293   5.245   2.361   5.190  1.0698  0.0364  2.8168
11626TIP3    H256294   5.386   2.310   5.169  1.3131  1.2027  1.4661
11627TIP3   OH256295   5.523   5.948   5.368  0.1383  0.2144 -0.5317
11627TIP3    H156296   5.496   5.948   5.460  1.4607 -2.4736 -0.0557
11627TIP3    H256297   5.466   5.884   5.326  1.2941 -0.5673 -0.9590
11628TIP3   OH256298   1.472   0.584   2.247  0.3513  0.1179 -0.1649
11628TIP3    H156299   1.503   0.499   2.218  1.2051  0.0432  0.8751
11628TIP3    H256300   1.404   0.564   2.312  0.2759  0.2321 -0.2086
11629TIP3   OH256301   2.607   1.405  15.166  0.0006 -0.5281 -0.1728
11629TIP3    H156302   2.664   1.411  15.089  2.3704  0.4357  1.5343
11629TIP3    H256303   2.667   1.410  15.240 -2.4219  2.1359  1.8283
11630TIP3   OH256304   4.450   5.855  16.851 -0.2744  0.1870  0.7383
11630TIP3    H156305   4.367   5.879  16.810  0.5733  1.9612 -0.0293
11630TIP3    H256306   4.456   5.910  16.928 -0.1762 -0.5440  1.2653
11631TIP3   OH256307   2.666   2.678  14.434 -0.0587  0.0041  0.4790
11631TIP3    H156308   2.616   2.722  14.502  0.1588  1.5592 -0.3162
11631TIP3    H256309   2.613   2.688  14.355 -0.5152 -2.1417  0.4475
11632TIP3   OH256310   5.839   1.406  11.799 -0.2162  0.1451  0.0939
11632TIP3    H156311   5.889   1.479  11.834  0.5168 -1.0068  1.5485
11632TIP3    H256312   5.905   1.343  11.770 -0.8391 -0.1615 -0.7059
11633TIP3   OH256313   0.928   2.548  11.483 -0.4621 -0.3518  0.3451
11633TIP3    H156314   0.840   2.512  11.475 -0.5840 -0.1991  0.9530
11633TIP3    H256315   0.915   2.640  11.505 -0.1506 -0.2967  0.3022
11634TIP3   OH256316   1.605   6.040   3.866 -0.1936  0.3474 -0.0115
11634TIP3    H156317   1.622   6.133   3.854 -0.7668  0.8755  2.5696
11634TIP3    H256318   1.521   6.025   3.822 -0.8444  1.4498  0.7697
11635TIP3   OH256319   3.392   4.880   3.470 -0.0434 -1.1145  0.6698
11635TIP3    H156320   3.446   4.864   3.393  0.1641  2.0869  0.0094
11635TIP3    H256321   3.315   4.824   3.457  0.0258 -0.7485 -1.8442
11636TIP3   OH256322   4.793   6.664  13.237 -0.0265  0.4974  0.2727
11636TIP3    H156323   4.749   6.703  13.312 -0.6250 -1.0436  0.7683
11636TIP3    H256324   4.856   6.603  13.275  0.2622  0.3250 -0.4690
11637TIP3   OH256325   4.138   0.172   1.487 -0.1138  0.4602 -0.3065
11637TIP3    H156326   4.076   0.135   1.550  0.3782 -1.2755 -0.7630
11637TIP3    H256327   4.172   0.095   1.440  1.6912  1.4362 -0.6792
11638TIP3   OH256328   0.166   6.579   2.775 -0.4659  0.2534  0.5477
11638TIP3    H156329   0.122   6.658   2.809  2.2281  1.3340  1.7863
11638TIP3    H256330   0.233   6.559   2.840  0.1187 -2.0267 -0.6698
11639TIP3   OH256331   5.521   2.811   1.402  0.4275  0.2699 -0.0264
11639TIP3    H156332   5.579   2.842   1.471 -0.4246  1.0826  0.3490
11639TIP3    H256333   5.573   2.748   1.353  1.0304 -0.3508  1.3785
11640TIP3   OH256334   4.141   2.768  13.058 -0.1152  0.0015 -0.2187
11640TIP3    H156335   4.086   2.842  13.031  2.1877  1.1225 -2.2340
11640TIP3    H256336   4.156   2.782  13.152 -0.5565  1.5325 -0.3496
11641TIP3   OH256337   5.408   3.236   0.626 -0.1174  0.2349  0.1190
11641TIP3    H156338   5.344   3.170   0.600 -2.0268  1.5752  1.1360
11641TIP3    H256339   5.404   3.302   0.557  0.9069 -0.1057 -0.2898
11642TIP3   OH256340   4.360   3.673   3.614  0.5808  0.4746  0.0575
11642TIP3    H156341   4.317   3.628   3.542  0.4318 -0.0799  0.4864
11642TIP3    H256342   4.294   3.734   3.649  0.0575 -0.5139  0.8414
11643TIP3   OH256343   1.103   6.118  12.287 -0.2807  0.0743  0.2640
11643TIP3    H156344   1.117   6.180  12.215  0.6376  0.1576  0.5098
11643TIP3    H256345   1.176   6.133  12.346  0.0698 -1.3935  0.2239
11644TIP3   OH256346   3.314   1.842  14.218  0.4620  0.9111 -0.0748
11644TIP3    H156347   3.286   1.853  14.127  0.4599  0.4583 -0.1285
11644TIP3    H256348   3.318   1.747  14.231  0.9967  0.9692  0.2286
11645TIP3   OH256349   6.640   3.237   3.197  0.2129  0.3749  0.0284
11645TIP3    H156350   6.681   3.320   3.223  0.3660  0.0851  0.7279
11645TIP3    H256351   6.702   3.170   3.226  0.2168  0.0251 -0.7739
11646TIP3   OH256352   5.901   0.370   2.037 -0.5179 -0.3565 -0.3192
11646TIP3    H156353   5.892   0.364   2.132  1.7594  1.6415  0.1315
11646TIP3    H256354   5.950   0.291   2.012 -0.4751 -0.5246  0.2824
11647TIP3   OH256355   4.439   0.147  10.946 -0.1128  0.1272  1.2407
11647TIP3    H156356   4.416   0.088  10.874  0.0478 -1.2550  2.2866
11647TIP3    H256357   4.355   0.181  10.977 -0.3382 -0.7532  1.6137
11648TIP3   OH256358   2.210   4.435  16.518  0.3496  0.4344 -0.5746
11648TIP3    H156359   2.286   4.425  16.575  0.9659  1.0443 -1.2728
11648TIP3    H256360   2.135   4.440  16.578  1.1126  2.5353  0.2657
11649TIP3   OH256361   3.721   5.050  10.941  0.1782  0.1778  0.2532
11649TIP3    H156362   3.701   5.110  11.013 -0.2638 -0.5129  0.7198
11649TIP3    H256363   3.815   5.057  10.929  0.3920 -0.2943  1.4626
11650TIP3   OH256364   3.586   3.634  11.547 -0.2156 -0.7393 -0.1377
11650TIP3    H156365   3.520   3.582  11.592 -1.3457 -0.4780 -1.4276
11650TIP3    H256366   3.557   3.636  11.456  1.0673  0.1892 -0.5602
11651TIP3   OH256367   1.146   0.567  16.494  0.5039 -0.3571 -0.0423
11651TIP3    H156368   1.222   0.606  16.536  1.0757 -0.7403 -0.7094
11651TIP3    H256369   1.072   0.595  16.548  1.0750  0.2926  0.4198
11652TIP3   OH256370   0.974   3.384  14.052 -0.0423  0.1291 -0.5763
11652TIP3    H156371   0.948   3.470  14.084 -3.0998 -0.3330 -1.4974
11652TIP3    H256372   0.914   3.366  13.980  1.1231 -2.3999 -1.0258
11653TIP3   OH256373   3.749   2.284  10.904  0.2288  0.1159  0.7580
11653TIP3    H156374   3.689   2.261  10.833 -1.1145  2.3732  1.0530
11653TIP3    H256375   3.836   2.268  10.868 -0.4222  0.9920 -1.3845
11654TIP3   OH256376   3.197   3.462  15.335 -0.4609 -0.6392 -0.2925
11654TIP3    H156377   3.169   3.427  15.251  0.7516  0.0109 -0.9971
11654TIP3    H256378   3.292   3.455  15.334 -0.4754 -1.6217  1.4882
11655TIP3   OH256379   5.075   2.265   2.972 -0.5389 -0.5321  0.3294
11655TIP3    H156380   5.151   2.266   2.914 -0.0678  0.0993  0.9346
11655TIP3    H256381   5.105   2.215   3.048 -0.3621  0.5903  1.0217
11656TIP3   OH256382   2.607   3.067   0.783  0.0746 -0.0404 -0.4984
11656TIP3    H156383   2.696   3.058   0.817  0.6853  2.8618 -1.0933
11656TIP3    H256384   2.564   3.126   0.845 -1.1267 -0.5888 -0.7843
11657TIP3   OH256385   2.944   0.822  15.185 -0.3600  0.4126  0.5414
11657TIP3    H156386   3.028   0.832  15.232 -0.4111 -1.5953  1.1389
11657TIP3    H256387   2.963   0.853  15.097  0.5719  1.4597  1.0714
11658TIP3   OH256388   5.734   4.938  15.866  0.2202  0.0156 -0.0356
11658TIP3    H156389   5.672   4.957  15.937 -0.5535  1.9626 -1.1424
11658TIP3    H256390   5.742   4.843  15.867 -2.1972 -0.2693  0.6903
11659TIP3   OH256391   5.463   2.684   0.657  0.3340  0.2258  0.5914
11659TIP3    H156392   5.395   2.723   0.601 -0.9073 -1.5524  0.7728
11659TIP3    H256393   5.500   2.614   0.605  0.4711 -0.2451  1.3074
11660TIP3   OH256394   3.524   5.444  15.499 -0.2485 -0.1732  0.0087
11660TIP3    H156395   3.583   5.516  15.474 -1.9072  1.4024  0.4070
11660TIP3    H256396   3.437   5.484  15.501 -1.3131 -2.3420 -0.2207
11661TIP3   OH256397   4.846   6.038  16.132 -0.4441  0.1700  0.0253
11661TIP3    H156398   4.771   6.072  16.083 -1.2867  1.2352  1.9116
11661TIP3    H256399   4.817   6.041  16.224  1.1834 -1.3486  0.6439
11662TIP3   OH256400   0.987   1.844   6.023  0.1263 -0.1652  0.1485
11662TIP3    H156401   0.953   1.810   5.940 -0.5795 -1.0717  0.7888
11662TIP3    H256402   0.935   1.923   6.040  1.1165  0.7418 -0.8654
11663TIP3   OH256403   0.284   0.193  16.816 -0.2081  0.1967  0.0885
11663TIP3    H156404   0.209   0.199  16.875 -0.4202 -2.1442  0.1529
11663TIP3    H256405   0.310   0.100  16.820  1.2817  0.4912 -1.6450
11664TIP3   OH256406   2.798   6.750   3.509 -0.2355  0.2218  1.0106
11664TIP3    H156407   2.857   6.825   3.501 -0.4185  0.4704  1.8737
11664TIP3    H256408   2.727   6.781   3.565 -1.8785  0.3159 -1.0385
11665TIP3   OH256409   5.073   0.880   6.055 -0.0688  0.0148 -0.1588
11665TIP3    H156410   5.166   0.859   6.061 -0.0844 -0.3445 -1.0703
11665TIP3    H256411   5.028   0.798   6.074 -0.2049  0.1388  0.0684
11666TIP3   OH256412   5.197   1.204  13.774  0.5964 -0.3058  0.7559
11666TIP3    H156413   5.205   1.297  13.794  3.6516 -0.4341  0.6380
11666TIP3    H256414   5.242   1.193  13.690  0.3475 -1.8806  0.7890
11667TIP3   OH256415   4.334   6.133   6.152 -0.7966  0.4250 -0.0471
11667TIP3    H156416   4.351   6.113   6.244  0.7103 -0.8382 -0.5550
11667TIP3    H256417   4.336   6.048   6.108 -2.1322  0.9284 -1.1795
11668TIP3   OH256418   0.385   0.743  16.873  0.2281 -0.2251  0.0616
11668TIP3    H156419   0.441   0.772  16.944 -1.5599  0.8719  1.1166
11668TIP3    H256420   0.312   0.805  16.873 -1.2175 -1.8228 -0.9267
11669TIP3   OH256421   1.349   5.704  16.181 -0.2102 -0.3536  0.3250
11669TIP3    H156422   1.384   5.615  16.180 -0.4851 -0.4635  0.2629
11669TIP3    H256423   1.373   5.740  16.095  0.2855 -0.2124  0.5175
11670TIP3   OH256424   1.975   0.377  15.093  0.2655  0.2225 -0.4806
11670TIP3    H156425   2.010   0.446  15.150 -0.3304 -1.8785  2.7071
11670TIP3    H256426   2.024   0.299  15.117 -1.1701 -1.1172 -1.7052
11671TIP3   OH256427   3.125   3.342  13.511 -0.0190 -0.6010  0.1886
11671TIP3    H156428   3.136   3.432  13.544  0.0607 -0.6895  0.4047
11671TIP3    H256429   3.205   3.325  13.463  0.7007 -1.1445  1.5311
11672TIP3   OH256430   2.965   2.745  14.471  0.0550 -0.3260 -0.4355
11672TIP3    H156431   3.020   2.724  14.396 -1.4709 -0.1203 -1.6885
11672TIP3    H256432   2.875   2.732  14.439 -0.6974  1.1202  0.9112
11673TIP3   OH256433   2.890   6.529   2.592  0.1235  0.0774  0.2868
11673TIP3    H156434   2.860   6.482   2.670 -1.3427 -2.8707 -1.8540
11673TIP3    H256435   2.975   6.490   2.572 -0.6058 -1.0117 -0.8773
11674TIP3   OH256436   3.220   2.713   3.463  0.1486 -0.2659 -0.2981
11674TIP3    H156437   3.249   2.779   3.401 -0.3787 -0.6561 -0.9625
11674TIP3    H256438   3.302   2.676   3.498  0.4838 -0.9678 -1.7444
11675TIP3   OH256439   3.532   6.264  10.606  0.4609 -0.0176  0.1971
11675TIP3    H156440   3.457   6.279  10.664 -1.4829 -2.0241 -1.5951
11675TIP3    H256441   3.607   6.261  10.664 -1.1716 -0.3714  2.4125
11676TIP3   OH256442   2.632   1.847   3.904 -0.8380  0.0632  1.0105
11676TIP3    H156443   2.603   1.925   3.857  0.7961  0.4765  0.6394
11676TIP3    H256444   2.610   1.775   3.846  0.3458  0.5033 -0.0309
11677TIP3   OH256445   2.665   1.292  12.376 -0.0066  0.1523  0.3662
11677TIP3    H156446   2.587   1.287  12.432 -0.1875  0.1777  0.1224
11677TIP3    H256447   2.735   1.252  12.427 -0.3771 -0.6750  0.2478
11678TIP3   OH256448   4.728   1.447   1.923 -0.3086  0.6601 -0.1964
11678TIP3    H156449   4.791   1.394   1.972  0.4865  0.2425 -1.6326
11678TIP3    H256450   4.727   1.531   1.969 -1.5349 -0.4950  2.0882
11679TIP3   OH256451   5.464   4.281  12.565  0.4101 -0.1816 -0.6446
11679TIP3    H156452   5.516   4.236  12.499 -0.5985 -1.4946 -0.5799
11679TIP3    H256453   5.378   4.239  12.562 -0.9090  2.3058 -1.1641
11680TIP3   OH256454   2.801   5.524   0.415  0.3556  0.2661  0.4951
11680TIP3    H156455   2.889   5.554   0.395  0.5798 -1.2458 -1.0717
11680TIP3    H256456   2.811   5.430   0.432 -0.8425  0.2354  1.2090
11681TIP3   OH256457   5.640   2.295  13.613  0.0225 -0.5225 -0.2299
11681TIP3    H156458   5.703   2.366  13.610  0.1839 -0.6626 -0.1661
11681TIP3    H256459   5.555   2.338  13.624 -0.1147 -0.2268 -2.1720
11682TIP3   OH256460   1.235   5.089   1.305  0.0613  0.2382  0.7882
11682TIP3    H156461   1.179   5.019   1.271  1.8416 -0.3493 -1.1535
11682TIP3    H256462   1.253   5.064   1.395 -0.6311 -0.9701  0.6090
11683TIP3   OH256463   2.935   2.259  14.542 -0.6274 -0.3448 -0.0550
11683TIP3    H156464   2.904   2.178  14.583 -0.1778 -0.8748 -0.7388
11683TIP3    H256465   2.889   2.263  14.459 -1.7941  0.9080  0.6207
11684TIP3   OH256466   3.109   5.173  16.972  0.4908 -0.0332 -0.4884
11684TIP3    H156467   3.062   5.095  17.000  1.2407 -0.7944 -1.2993
11684TIP3    H256468   3.151   5.149  16.889  0.0795  1.4803 -1.1826
11685TIP3   OH256469   0.824   6.228   1.024 -0.0974 -0.2624 -0.2542
11685TIP3    H156470   0.751   6.175   1.056  0.4799 -1.1749 -0.3920
11685TIP3    H256471   0.842   6.289   1.095 -0.3407 -0.7079  0.1992
11686TIP3   OH256472   3.358   6.082   5.761  0.3272  0.1375  0.0004
11686TIP3    H156473   3.393   6.022   5.827  1.8693  0.7143 -0.2381
11686TIP3    H256474   3.408   6.163   5.775 -0.1833  0.6507 -1.0846
11687TIP3   OH256475   5.169   2.684  13.182 -0.1749 -0.3107  0.2264
11687TIP3    H156476   5.224   2.760  13.198 -0.0851 -0.7885  2.7223
11687TIP3    H256477   5.108   2.711  13.113  0.9837  1.3773 -0.1879
11688TIP3   OH256478   2.018   1.582   3.555  0.1957  0.5668 -0.0537
11688TIP3    H156479   1.988   1.670   3.577 -1.6576 -0.2601  1.0083
11688TIP3    H256480   2.008   1.533   3.637  1.1814 -0.6275 -0.6318
11689TIP3   OH256481   5.677   2.820  15.494  0.1886 -0.3838 -0.4302
11689TIP3    H156482   5.772   2.815  15.488  0.1650  0.6837 -2.8845
11689TIP3    H256483   5.649   2.729  15.504  1.4053 -0.8854 -1.3457
11690TIP3   OH256484   2.947   3.280  11.722  0.1449  0.0822 -0.0303
11690TIP3    H156485   2.902   3.241  11.796 -0.7780  1.2002  0.0271
11690TIP3    H256486   2.883   3.279  11.651  1.6792 -2.8969 -1.5194
11691TIP3   OH256487   4.257   2.153   0.852  0.2715 -0.2324  0.5983
11691TIP3    H156488   4.172   2.160   0.809  0.0438 -0.0536  1.0665
11691TIP3    H256489   4.320   2.180   0.785 -0.1388  0.7640  0.5905
11692TIP3   OH256490   4.510   1.389   4.445 -0.3738  0.1341  0.1052
11692TIP3    H156491   4.567   1.460   4.476 -0.0285 -0.8197  1.8244
11692TIP3    H256492   4.534   1.314   4.499 -2.5869 -0.5736  0.2398
11693TIP3   OH256493   4.702   0.391  12.651  0.6013  0.1638  0.0542
11693TIP3    H156494   4.776   0.396  12.711  0.7727 -0.8194 -0.0609
11693TIP3    H256495   4.664   0.479  12.652  1.9488  0.7752 -0.1066
11694TIP3   OH256496   6.055   0.093   0.865 -0.5338 -0.3994 -0.3985
11694TIP3    H156497   6.037   0.182   0.895 -2.3870 -1.0380  0.5654
11694TIP3    H256498   6.099   0.050   0.938 -0.5359 -0.5424 -0.4793
11695TIP3   OH256499   2.955   3.092   3.293 -0.2083  1.0359 -0.4194
11695TIP3    H156500   2.918   3.149   3.226  0.1661  1.2525 -0.4457
11695TIP3    H256501   3.046   3.121   3.301  0.2045 -0.0407 -0.9650
11696TIP3   OH256502   6.560   2.942  14.092  0.8674 -0.4043  0.6043
11696TIP3    H156503   6.536   3.020  14.143  0.1087  1.2406 -2.0978
11696TIP3    H256504   6.476   2.902  14.069  1.2467 -2.0975  1.9061
11697TIP3   OH256505   2.903   5.632   6.136 -0.1067  0.1647  0.9126
11697TIP3    H156506   2.887   5.554   6.189  1.4888  0.3177  1.6817
11697TIP3    H256507   2.962   5.686   6.189  0.5811  0.8786 -0.5208
11698TIP3   OH256508   6.711   0.415  14.159 -0.0854 -0.6465 -0.1144
11698TIP3    H156509   6.654   0.463  14.099 -0.5219 -1.4050 -0.3197
11698TIP3    H256510   6.710   0.466  14.240 -1.2576 -0.7640 -0.0334
11699TIP3   OH256511   4.550   4.283   1.476 -0.2923  0.5760  0.2582
11699TIP3    H156512   4.577   4.305   1.566  2.0875  0.4618 -0.3766
11699TIP3    H256513   4.489   4.354   1.452 -0.6416  0.8392  1.7945
11700TIP3   OH256514   0.842   5.500   0.544  0.0152  0.4591  0.4672
11700TIP3    H156515   0.748   5.488   0.532 -0.1269 -0.7616  2.3046
11700TIP3    H256516   0.882   5.442   0.479 -0.4643  1.6868 -0.9529
11701TIP3   OH256517   1.526   3.507  10.684  0.2181  0.4356 -0.6523
11701TIP3    H156518   1.518   3.595  10.648  0.2401  0.7484  0.0918
11701TIP3    H256519   1.611   3.476  10.654  0.9554  1.3172  0.4572
11702TIP3   OH256520   3.385   6.381   0.923  0.2263  0.6839  0.1702
11702TIP3    H156521   3.320   6.331   0.972  1.9339 -3.3155 -1.1788
11702TIP3    H256522   3.466   6.371   0.973  1.1267 -0.0457 -1.3574
11703TIP3   OH256523   6.059   5.830  14.862  0.4986 -0.1260 -0.3422
11703TIP3    H156524   6.060   5.766  14.933  0.4219 -2.0476 -1.9832
11703TIP3    H256525   6.150   5.831  14.830 -0.1329 -1.9989 -2.4428
11704TIP3   OH256526   4.118   3.891   4.561 -0.6383  0.2029  0.3355
11704TIP3    H156527   4.168   3.829   4.508  0.9761  0.5406  1.4046
11704TIP3    H256528   4.093   3.960   4.499  1.8865  1.0010  0.0799
11705TIP3   OH256529   4.024   5.796  16.507  0.3198  0.4327  0.3785
11705TIP3    H156530   4.096   5.850  16.539 -2.2346  2.9430  2.3943
11705TIP3    H256531   4.001   5.834  16.422  1.5440 -0.6220 -0.4528
11706TIP3   OH256532   1.405   5.576   6.405  0.0644 -0.0682 -0.2250
11706TIP3    H156533   1.453   5.497   6.429  0.7700  0.3462 -0.2416
11706TIP3    H256534   1.320   5.567   6.449  0.3643 -0.5492  0.2630
11707TIP3   OH256535   4.655   4.909   4.344 -0.5336 -0.9087 -0.0788
11707TIP3    H156536   4.685   4.827   4.305  0.2988 -0.6767  0.0608
11707TIP3    H256537   4.588   4.883   4.408  0.5869 -1.6045  0.8495
11708TIP3   OH256538   0.308   4.749  15.530  0.3614  0.4956 -0.2353
11708TIP3    H156539   0.217   4.722  15.524 -0.2065  1.7080  2.0199
11708TIP3    H256540   0.316   4.820  15.466 -0.6972  1.3738  0.5751
11709TIP3   OH256541   0.738   5.172   2.521 -0.0232  0.5600  0.0160
11709TIP3    H156542   0.745   5.101   2.456  0.8972  0.6529  0.0106
11709TIP3    H256543   0.753   5.129   2.605 -0.3635  0.5941  0.0968
11710TIP3   OH256544   5.097   3.529   2.221 -0.3137 -0.0841  0.0583
11710TIP3    H156545   5.060   3.563   2.302  0.2763 -0.3406  0.4463
11710TIP3    H256546   5.185   3.499   2.245 -0.0944 -0.0806 -0.6952
11711TIP3   OH256547   5.643   4.395  15.755  0.2020  0.0659 -0.1495
11711TIP3    H156548   5.567   4.443  15.788  1.0452  3.2784 -2.3981
11711TIP3    H256549   5.710   4.406  15.822  0.5641  2.7432 -0.8686
11712TIP3   OH256550   0.767   0.273  12.425  0.7142 -0.4736  0.4900
11712TIP3    H156551   0.781   0.368  12.426 -1.1101 -0.1087 -1.1944
11712TIP3    H256552   0.785   0.247  12.335 -2.4831 -0.9712 -0.1414
11713TIP3   OH256553   2.457   6.688  14.993  0.1093  0.1128  0.4694
11713TIP3    H156554   2.546   6.670  14.962  0.5556 -1.7650  2.5164
11713TIP3    H256555   2.465   6.688  15.089 -2.3909 -2.2804  0.8077
11714TIP3   OH256556   3.771   6.494  12.182  0.3633 -0.0180 -0.0753
11714TIP3    H156557   3.681   6.478  12.210 -0.1555  0.7495 -1.2249
11714TIP3    H256558   3.793   6.418  12.129  0.7898 -0.7208  1.0852
11715TIP3   OH256559   6.085   1.919  12.702  0.1471 -0.1865 -1.2048
11715TIP3    H156560   6.045   1.992  12.749 -1.9206 -1.2268 -1.2152
11715TIP3    H256561   6.104   1.955  12.615  1.4756  0.9832 -0.4823
11716TIP3   OH256562   2.474   4.325   4.828 -0.2077 -0.7236 -0.3298
11716TIP3    H156563   2.432   4.244   4.856  0.3111 -1.0164 -0.3861
11716TIP3    H256564   2.567   4.312   4.848 -0.0127 -0.4428 -1.0394
11717TIP3   OH256565   5.090   2.943   6.076  0.2109  0.4297 -0.2676
11717TIP3    H156566   5.047   2.959   5.992 -1.1784  0.9041  0.5035
11717TIP3    H256567   5.026   2.970   6.141  1.8987  1.7429  0.9497
11718TIP3   OH256568   3.290   5.132   3.898  0.0773 -0.2921  0.6473
11718TIP3    H156569   3.223   5.153   3.963 -0.7765 -0.8812 -0.0276
11718TIP3    H256570   3.360   5.091   3.949  0.2249  0.9074  1.4480
11719TIP3   OH256571   0.791   4.154   4.296 -0.3692  0.1609  0.1147
11719TIP3    H156572   0.816   4.245   4.309 -0.4797  0.1852  0.1593
11719TIP3    H256573   0.873   4.105   4.306 -0.2673  0.2754 -0.1423
11720TIP3   OH256574   3.010   3.059  17.053  0.1503  0.1443 -0.7648
11720TIP3    H156575   2.942   3.062  17.120 -0.3519 -2.0462 -1.1118
11720TIP3    H256576   3.091   3.045  17.102 -0.0856 -0.4708 -0.5384
11721TIP3   OH256577   2.452   2.499   1.423  0.6573 -0.0557 -0.3291
11721TIP3    H156578   2.491   2.568   1.371  2.8667  0.1250  1.4107
11721TIP3    H256579   2.479   2.418   1.380 -0.7800  0.0803 -1.5791
11722TIP3   OH256580   1.958   3.418   4.816  0.3200 -0.0280 -0.2536
11722TIP3    H156581   1.898   3.486   4.848 -1.0390 -0.9810 -0.6744
11722TIP3    H256582   2.041   3.463   4.805  0.1574  0.9697  1.9983
11723TIP3   OH256583   2.048   0.612  10.982 -0.1631  0.1664 -0.4489
11723TIP3    H156584   2.037   0.585  10.891 -1.1307  1.2763 -0.6890
11723TIP3    H256585   2.128   0.664  10.982  0.6396 -1.0190 -0.3566
11724TIP3   OH256586   0.481   2.851   2.310 -0.0764 -0.3200 -0.5145
11724TIP3    H156587   0.420   2.796   2.261  0.3354 -1.2571 -0.0039
11724TIP3    H256588   0.438   2.937   2.315 -0.0127 -0.1153 -2.7063
11725TIP3   OH256589   4.358   4.234  14.696 -0.2755  0.6219 -0.1146
11725TIP3    H156590   4.380   4.286  14.619  3.3109 -1.6798 -0.8931
11725TIP3    H256591   4.366   4.295  14.769  1.0258  1.8224 -1.1942
11726TIP3   OH256592   3.565   2.944   6.367 -0.2478 -0.1030  0.3709
11726TIP3    H156593   3.546   3.036   6.349 -0.3229  0.1536  1.6389
11726TIP3    H256594   3.652   2.930   6.330 -0.0511  0.6052  0.5459
11727TIP3   OH256595   3.983   0.425  15.952 -0.5315 -0.0492 -0.7387
11727TIP3    H156596   4.018   0.338  15.932 -1.0501  0.1689 -2.8231
11727TIP3    H256597   3.987   0.431  16.047  0.5664 -1.9065 -0.6191
11728TIP3   OH256598   4.182   3.513  11.842 -0.0602  0.2384  0.1413
11728TIP3    H156599   4.134   3.499  11.761 -0.4797  0.5200  0.3382
11728TIP3    H256600   4.171   3.432  11.892 -0.3573  0.3158  0.2002
11729TIP3   OH256601   3.418   1.422   0.252 -0.0953 -0.0228  0.2760
11729TIP3    H156602   3.480   1.489   0.279 -2.1115  2.4253 -0.7511
11729TIP3    H256603   3.411   1.432   0.157 -1.4743 -0.7657  0.2726
11730TIP3   OH256604   6.426   3.784   0.944  0.1290 -0.2083 -0.3742
11730TIP3    H156605   6.479   3.795   1.023  0.2589  1.2104 -0.6170
11730TIP3    H256606   6.390   3.872   0.928 -1.3108 -0.8667 -0.9091
11731TIP3   OH256607   2.313   1.783  12.541  0.1843 -0.1750 -0.1075
11731TIP3    H156608   2.275   1.782  12.453  3.1391  2.1122 -1.5591
11731TIP3    H256609   2.395   1.734  12.533  0.0161 -0.8421  1.6910
11732TIP3   OH256610   4.065   2.614  15.212  0.6940 -0.6662 -0.1229
11732TIP3    H156611   4.114   2.696  15.207  0.4611 -0.5230 -0.0246
11732TIP3    H256612   3.985   2.630  15.162  0.8336 -0.9642 -0.4523
11733TIP3   OH256613   4.048   3.723   3.124 -0.4390 -0.3039 -0.7378
11733TIP3    H156614   3.961   3.745   3.090 -0.5213 -1.0026 -0.9890
11733TIP3    H256615   4.044   3.630   3.143 -0.2039 -0.0618  0.6556
11734TIP3   OH256616   6.625   3.339   2.486  0.8828 -0.1294  0.7787
11734TIP3    H156617   6.667   3.333   2.401 -0.7784 -0.4210 -0.0750
11734TIP3    H256618   6.557   3.271   2.484 -0.6310  1.3010  1.4565
11735TIP3   OH256619   2.723   2.371   6.763  0.0846  0.0247  0.3548
11735TIP3    H156620   2.804   2.403   6.724 -0.5291  1.1654 -0.0318
11735TIP3    H256621   2.700   2.294   6.711 -0.3640  1.1368 -1.1771
11736TIP3   OH256622   6.593   0.205  17.117 -0.1653 -0.1282  0.6111
11736TIP3    H156623   6.538   0.136  17.081 -3.0629  2.0155  0.5537
11736TIP3    H256624   6.629   0.168  17.197 -0.9365 -1.9827  0.1448
11737TIP3   OH256625   0.049   3.116   6.019  0.5315 -0.1267  0.1536
11737TIP3    H156626   0.093   3.043   5.977  2.0102  1.4203 -1.1374
11737TIP3    H256627   0.036   3.088   6.109  1.3857 -1.8158 -0.2056
11738TIP3   OH256628   0.392   4.079  12.554  0.2405 -0.3615  0.2939
11738TIP3    H156629   0.347   4.022  12.615 -1.9501  2.8842  2.0107
11738TIP3    H256630   0.485   4.072  12.578 -0.2029 -1.5717  1.8052
11739TIP3   OH256631   3.753   1.320   4.715  0.2123 -0.1070 -0.8211
11739TIP3    H156632   3.697   1.363   4.650  1.8179  2.2039 -0.8335
11739TIP3    H256633   3.838   1.362   4.703  1.1223 -1.2280  1.2814
11740TIP3   OH256634   4.066   0.897   5.519  0.1436 -0.2377 -0.4139
11740TIP3    H156635   4.133   0.844   5.477 -0.0190  0.2273 -1.2754
11740TIP3    H256636   3.987   0.843   5.513 -0.2176  0.4169 -2.0539
11741TIP3   OH256637   2.562   4.813  11.498 -0.2737  0.2229  0.3945
11741TIP3    H156638   2.471   4.842  11.492  0.3480  2.3519  0.1227
11741TIP3    H256639   2.586   4.787  11.409 -0.6496 -0.4305  0.4866
11742TIP3   OH256640   0.352   4.380   0.677  0.1870 -0.2445  0.3523
11742TIP3    H156641   0.388   4.291   0.674  0.7073 -0.0190 -0.5659
11742TIP3    H256642   0.297   4.385   0.599  0.2248  0.2661  0.3568
11743TIP3   OH256643   6.396   0.503   3.060 -0.0266 -0.5051  0.3789
11743TIP3    H156644   6.432   0.415   3.062 -1.5876 -1.1585  1.0794
11743TIP3    H256645   6.303   0.491   3.044 -0.7720  0.7919  3.0552
11744TIP3   OH256646   4.671   0.802   6.390  0.4931  0.1891  0.5647
11744TIP3    H156647   4.741   0.801   6.456  1.3407  2.2399 -0.2223
11744TIP3    H256648   4.618   0.879   6.413 -0.4934 -0.3416  0.1196
11745TIP3   OH256649   2.693   0.195  16.402  0.2004  0.2223 -0.5043
11745TIP3    H156650   2.681   0.290  16.408 -1.1736 -0.0178  1.7366
11745TIP3    H256651   2.660   0.161  16.486 -0.0597 -2.3075 -1.5342
11746TIP3   OH256652   6.233   5.750  12.472 -0.2037  0.4331 -0.0139
11746TIP3    H156653   6.278   5.772  12.553 -2.6633  1.4358  1.1850
11746TIP3    H256654   6.206   5.659  12.483  0.0419  0.3612 -0.0051
11747TIP3   OH256655   3.041   3.762   0.976  0.1388 -0.2820 -0.6896
11747TIP3    H156656   3.117   3.732   1.026 -1.3995  0.7053  2.5044
11747TIP3    H256657   3.058   3.854   0.960 -0.0488 -0.2254 -0.5726
11748TIP3   OH256658   0.154   2.585  14.792  0.0432 -0.5196 -0.1159
11748TIP3    H156659   0.149   2.669  14.839  1.9695 -0.2153 -0.3815
11748TIP3    H256660   0.099   2.597  14.715 -0.4690  0.1550  0.3447
11749TIP3   OH256661   2.501   5.648  10.662  0.0347  0.6698 -0.3216
11749TIP3    H156662   2.449   5.568  10.672 -1.0059  0.7616 -3.6917
11749TIP3    H256663   2.578   5.620  10.613  1.9369  1.0691  2.2193
11750TIP3   OH256664   4.872   0.801   2.780 -0.2308  0.4053  0.0929
11750TIP3    H156665   4.956   0.757   2.787 -0.0592  0.5944 -0.7284
11750TIP3    H256666   4.893   0.894   2.787 -0.5082  0.4092  1.0591
11751TIP3   OH256667   2.759   6.234   5.544  0.3276  0.1695  0.2388
11751TIP3    H156668   2.818   6.170   5.503  0.9287 -0.4545  1.9411
11751TIP3    H256669   2.740   6.196   5.630 -1.1341  1.2394  0.4256
11752TIP3   OH256670   6.747   5.215  11.120  0.1871 -0.2841 -0.4577
11752TIP3    H156671   6.827   5.232  11.169  0.9641  2.1637 -2.3967
11752TIP3    H256672   6.683   5.276  11.156 -0.1776 -0.7048 -0.3841
11753TIP3   OH256673   6.415   6.366   1.118 -0.4372 -0.3823  0.3327
11753TIP3    H156674   6.384   6.431   1.181 -0.5484  0.5377 -0.6364
11753TIP3    H256675   6.358   6.290   1.131 -1.4490  0.3540  0.3156
11754TIP3   OH256676   2.824   0.579   0.882 -0.4161  0.0908 -0.3382
11754TIP3    H156677   2.871   0.657   0.851 -0.8758  0.0478 -1.1995
11754TIP3    H256678   2.769   0.554   0.807  0.0358 -1.3101 -0.2222
11755TIP3   OH256679   2.698   0.476   4.207  0.0368 -0.2432 -0.2212
11755TIP3    H156680   2.786   0.490   4.175 -0.0425 -0.0434 -0.3508
11755TIP3    H256681   2.708   0.410   4.276  0.2024 -0.6945 -0.6734
11756TIP3   OH256682   2.180   2.308   0.929 -0.2000  0.5233 -0.1565
11756TIP3    H156683   2.127   2.368   0.980 -0.1508  0.6189 -0.2162
11756TIP3    H256684   2.123   2.279   0.858 -0.2181  0.5134 -0.1378
11757TIP3   OH256685   4.567   4.855  14.676 -1.1613 -0.3540 -0.3876
11757TIP3    H156686   4.520   4.929  14.715 -0.8049 -0.6837  0.6918
11757TIP3    H256687   4.498   4.791  14.656 -1.2189 -0.8214  1.1594
11758TIP3   OH256688   4.319   6.383   6.010  0.4033  0.2658  0.2371
11758TIP3    H156689   4.274   6.347   5.933  3.3257 -0.3501 -1.3236
11758TIP3    H256690   4.317   6.312   6.074  0.0246 -0.1062 -0.1784
11759TIP3   OH256691   2.685   4.237  14.103  0.5742  0.0539 -0.0993
11759TIP3    H156692   2.698   4.306  14.038  0.4344 -0.5831 -0.8098
11759TIP3    H256693   2.770   4.230  14.147  0.5057  0.8813  0.1855
11760TIP3   OH256694   5.938   3.575   1.666 -0.3648 -0.1206  0.0566
11760TIP3    H156695   5.880   3.499   1.676 -1.8915  1.1314  1.2685
11760TIP3    H256696   5.968   3.594   1.755 -0.0621  0.7322 -0.2167
11761TIP3   OH256697   1.744   6.422  16.940 -0.3009  0.0031  0.6347
11761TIP3    H156698   1.796   6.500  16.954 -1.0137  0.1617  2.8439
11761TIP3    H256699   1.657   6.444  16.974 -1.0826 -1.0997 -0.5347
11762TIP3   OH256700   6.651   0.786   4.814 -0.4629  0.1481 -0.1423
11762TIP3    H156701   6.649   0.740   4.731 -1.0302  2.7499 -1.6962
11762TIP3    H256702   6.580   0.850   4.807 -1.1672 -0.1726  2.7654
11763TIP3   OH256703   0.443   4.129   0.648 -0.2529 -0.7847  0.3591
11763TIP3    H156704   0.530   4.091   0.637  0.8686  1.7023  0.0175
11763TIP3    H256705   0.401   4.119   0.563  0.4741 -0.2225 -0.0726
11764TIP3   OH256706   4.659   2.490  15.881  0.2397 -0.4332 -0.1595
11764TIP3    H156707   4.649   2.417  15.820 -1.2401  0.3019 -0.8334
11764TIP3    H256708   4.580   2.542  15.869  1.0831  1.0679  0.6084
11765TIP3   OH256709   3.534   1.777   5.705  0.1344  0.1934 -0.0301
11765TIP3    H156710   3.505   1.773   5.796  0.8903 -1.2278  0.1706
11765TIP3    H256711   3.617   1.824   5.709  0.7245 -0.8453  0.1793
11766TIP3   OH256712   3.374   6.008   0.282  0.5184 -0.2667  0.2127
11766TIP3    H156713   3.456   6.052   0.305  0.3287  0.2328 -0.0430
11766TIP3    H256714   3.390   5.971   0.195 -0.1701  1.5758 -0.7494
11767TIP3   OH256715   1.098   4.914   5.730 -0.1876 -0.3260 -0.0780
11767TIP3    H156716   1.175   4.916   5.787  0.1918 -0.2427 -0.5847
11767TIP3    H256717   1.089   4.822   5.705 -0.4193 -0.3802  0.1998
11768TIP3   OH256718   0.277   4.922  16.072 -0.2981 -0.0746  0.1666
11768TIP3    H156719   0.225   4.936  16.152  0.6589  0.4273  0.7264
11768TIP3    H256720   0.362   4.962  16.092  0.6422 -1.7272 -0.3552
11769TIP3   OH256721   5.539   1.249  15.478  0.3292 -0.6281  0.2996
11769TIP3    H156722   5.625   1.225  15.512  0.2431 -1.4451 -0.0253
11769TIP3    H256723   5.507   1.169  15.436 -0.2165 -0.0833 -0.3513
11770TIP3   OH256724   6.577   5.578   1.911 -0.0060  0.1154 -0.4050
11770TIP3    H156725   6.646   5.512   1.912  0.6348  0.7451 -1.1391
11770TIP3    H256726   6.535   5.567   1.826 -0.6392 -0.0861 -0.0693
11771TIP3   OH256727   4.686   5.113   1.106 -0.5843 -0.3457  0.2721
11771TIP3    H156728   4.699   5.199   1.067 -0.9895 -0.2630  0.3173
11771TIP3    H256729   4.720   5.122   1.195 -0.4121 -0.2980  0.2005
11772TIP3   OH256730   0.939   5.338   1.978  0.4155  0.4013 -0.0309
11772TIP3    H156731   0.879   5.324   2.052  1.1962 -2.2818  0.1709
11772TIP3    H256732   1.026   5.319   2.013  0.9181  0.0954 -1.4028
11773TIP3   OH256733   6.618   2.071  16.453 -0.0752 -0.4399  0.0854
11773TIP3    H156734   6.680   2.134  16.416 -1.6321  1.0040 -0.2020
11773TIP3    H256735   6.575   2.033  16.376  0.7732 -1.8336  0.2619
11774TIP3   OH256736   2.684   1.365  16.940  0.7115 -0.4448 -0.0982
11774TIP3    H156737   2.761   1.353  16.884  0.9618  1.4127 -0.2085
11774TIP3    H256738   2.617   1.402  16.882  0.6152  0.4633  0.5710
11775TIP3   OH256739   0.541   2.667  16.862  0.3661 -0.1734  0.5814
11775TIP3    H156740   0.548   2.634  16.772 -0.0623 -0.1514  0.5371
11775TIP3    H256741   0.498   2.751  16.853 -0.9477 -0.7867  0.9149
11776TIP3   OH256742   4.734   4.047  17.304  0.0897  0.7061  0.4179
11776TIP3    H156743   4.788   3.980  17.347 -0.6555 -0.1079  0.1153
11776TIP3    H256744   4.738   4.122  17.363  1.5120  0.6550  0.4230
11777TIP3   OH256745   6.224   6.484   0.557  0.9632 -0.6944 -0.0375
11777TIP3    H156746   6.232   6.563   0.611 -2.1951 -0.5468  0.3884
11777TIP3    H256747   6.188   6.418   0.616 -1.1926 -0.9531 -1.5226
11778TIP3   OH256748   6.754   3.857  11.489 -0.0608  0.0443  0.0586
11778TIP3    H156749   6.808   3.931  11.516 -0.5135 -0.1260  1.5068
11778TIP3    H256750   6.812   3.782  11.491  0.1272  0.1798 -0.3142
11779TIP3   OH256751   5.917   4.028  13.430 -0.0348  0.4388  0.1700
11779TIP3    H156752   5.990   4.065  13.479 -0.6088  0.7174  0.8471
11779TIP3    H256753   5.855   4.101  13.422  0.3521  0.6185 -1.6446
11780TIP3   OH256754   2.930   4.761  15.975  0.6462  0.1123  0.3650
11780TIP3    H156755   2.838   4.753  15.948  0.7769 -1.2364  0.2344
11780TIP3    H256756   2.979   4.729  15.900  1.2858  1.4838  0.1616
11781TIP3   OH256757   0.598   5.238   2.913  0.3309  0.4767  0.2130
11781TIP3    H156758   0.611   5.204   3.002  1.8639  2.1242  0.6665
11781TIP3    H256759   0.681   5.223   2.869  0.2368  1.4254 -0.3175
11782TIP3   OH256760   3.339   1.537  13.072  0.4344  0.0075  0.1812
11782TIP3    H156761   3.411   1.528  13.135 -0.4396  1.8374  1.5186
11782TIP3    H256762   3.330   1.631  13.058 -0.3373 -0.2827 -1.6387
11783TIP3   OH256763   3.916   3.758  12.597  0.2038 -0.2469  0.5120
11783TIP3    H156764   3.973   3.682  12.595 -1.8770 -1.9157  0.6356
11783TIP3    H256765   3.839   3.728  12.646 -0.2549  2.2746  1.4775
11784TIP3   OH256766   3.319   1.921   2.651  0.4934 -0.4862 -0.2029
11784TIP3    H156767   3.345   2.012   2.636 -1.9275  0.2064 -0.5841
11784TIP3    H256768   3.289   1.890   2.565 -0.3717 -1.0527  0.2896
11785TIP3   OH256769   0.963   2.977   4.837 -0.1749 -0.0484 -0.7976
11785TIP3    H156770   0.886   2.947   4.788  0.8655 -1.8149 -1.4661
11785TIP3    H256771   0.943   2.954   4.928 -0.3578 -0.7584 -1.0044
11786TIP3   OH256772   6.498   3.057  14.370  0.2093 -0.0430  0.0656
11786TIP3    H156773   6.565   3.112  14.329 -2.0618  2.0607 -1.1110
11786TIP3    H256774   6.417   3.085  14.329 -1.3689 -2.8471  1.0481
11787TIP3   OH256775   3.450   2.127   4.911  0.0620  0.2508  0.2488
11787TIP3    H156776   3.377   2.108   4.851  0.2147 -1.7386  0.6107
11787TIP3    H256777   3.426   2.083   4.992  0.7821  1.2527  1.0241
11788TIP3   OH256778   6.120   6.181   4.528 -0.6303 -0.2322 -0.3839
11788TIP3    H156779   6.086   6.099   4.564 -2.0741  0.2253 -0.6544
11788TIP3    H256780   6.207   6.189   4.567 -0.8360 -1.4170  0.3912
11789TIP3   OH256781   3.578   2.817   3.866 -0.6655 -0.1269  0.1763
11789TIP3    H156782   3.585   2.820   3.771  0.4711  0.6797  0.2733
11789TIP3    H256783   3.544   2.902   3.891  0.4408  0.2198  0.5787
11790TIP3   OH256784   3.518   2.870   5.765 -0.8586 -0.5453 -0.3189
11790TIP3    H156785   3.522   2.919   5.847 -0.9605  0.2336 -0.7727
11790TIP3    H256786   3.575   2.794   5.780 -0.5507 -0.1957  0.3323
11791TIP3   OH256787   1.715   6.148  17.022  0.0970  0.1392 -0.0073
11791TIP3    H156788   1.722   6.243  17.010 -2.5431  0.3105 -0.9250
11791TIP3    H256789   1.696   6.137  17.115  1.6212  0.3768  0.3519
11792TIP3   OH256790   0.781   3.376   1.862 -0.6296 -0.1555  0.8021
11792TIP3    H156791   0.714   3.313   1.834  0.0788  0.3058 -2.3090
11792TIP3    H256792   0.863   3.338   1.830 -0.1012  1.8773 -0.4116
11793TIP3   OH256793   4.815   0.953  16.312 -0.0831  0.2202  0.0495
11793TIP3    H156794   4.723   0.932  16.293  0.4811 -2.2275 -0.3764
11793TIP3    H256795   4.819   0.955  16.408 -0.1648 -2.3889  0.2006
11794TIP3   OH256796   3.782   6.571   2.132  0.2303  0.2703  0.4696
11794TIP3    H156797   3.827   6.515   2.196  0.2080  2.0834  2.1883
11794TIP3    H256798   3.799   6.530   2.048  0.9020 -1.8355  1.5658
11795TIP3   OH256799   0.248   1.121  14.486 -0.4774 -0.0772 -0.1104
11795TIP3    H156800   0.187   1.121  14.412 -1.2864 -2.4007  0.4590
11795TIP3    H256801   0.278   1.030  14.492 -0.7080 -0.0623  2.5966
11796TIP3   OH256802   5.675   2.342  15.510 -0.0118  0.0418 -0.0631
11796TIP3    H156803   5.724   2.303  15.582  1.2852  0.1763 -0.8352
11796TIP3    H256804   5.690   2.284  15.436 -1.6871 -0.3350 -0.1497
11797TIP3   OH256805   4.228   4.387   3.364 -0.1360  0.2029 -0.4431
11797TIP3    H156806   4.240   4.460   3.304  1.0346 -1.1682 -1.9782
11797TIP3    H256807   4.315   4.371   3.401 -0.4310 -0.2455  0.0747
11798TIP3   OH256808   6.680   4.245  15.476 -0.0774 -0.5371  0.7695
11798TIP3    H156809   6.683   4.195  15.557 -0.5235  2.7580  3.0176
11798TIP3    H256810   6.588   4.242  15.449 -0.4026  0.2094  1.7353
11799TIP3   OH256811   0.732   6.260  16.378  0.1187 -0.0608 -0.2968
11799TIP3    H156812   0.686   6.209  16.444 -0.5240  0.6982 -0.1490
11799TIP3    H256813   0.664   6.309  16.333  0.5443 -0.5477 -1.5252
11800TIP3   OH256814   1.906   5.810  15.287  0.3699 -0.0864 -0.2065
11800TIP3    H156815   1.832   5.856  15.246  0.0854  0.0925  0.5064
11800TIP3    H256816   1.983   5.849  15.246  0.0837 -1.8630 -2.7123
11801TIP3   OH256817   0.704   3.707   2.268 -0.0562 -0.5399  0.2311
11801TIP3    H156818   0.746   3.792   2.257  0.5274 -0.9796 -1.0719
11801TIP3    H256819   0.611   3.723   2.249  0.2511 -0.4159 -1.2916
11802TIP3   OH256820   6.593   2.855   4.077 -0.3570 -0.0458  0.6046
11802TIP3    H156821   6.512   2.850   4.026  1.6928  0.7462 -2.9747
11802TIP3    H256822   6.612   2.764   4.100 -1.0863 -0.4952 -0.4868
11803TIP3   OH256823   4.770   1.711  12.304  0.0990  0.1079  0.4230
11803TIP3    H156824   4.838   1.775  12.324  0.3162  0.0776 -0.1970
11803TIP3    H256825   4.766   1.655  12.382 -0.3105  1.0560  1.1096
11804TIP3   OH256826   0.974   3.027   5.122 -0.6287 -0.2862  0.0787
11804TIP3    H156827   0.896   3.080   5.106  0.0411  1.1104  1.1698
11804TIP3    H256828   1.025   3.078   5.185  1.5411 -0.7956 -1.1628
11805TIP3   OH256829   1.955   4.345  17.178 -0.3010 -0.0920 -0.1889
11805TIP3    H156830   1.885   4.280  17.173  0.5996 -1.1583  0.5952
11805TIP3    H256831   1.937   4.405  17.106 -2.1647 -0.1755  0.1503
11806TIP3   OH256832   1.638   2.048   0.619  0.4706 -0.7107 -0.3703
11806TIP3    H156833   1.605   2.007   0.699  1.4405 -1.7901 -0.4870
11806TIP3    H256834   1.719   2.000   0.600  0.3900 -0.2949 -1.8534
11807TIP3   OH256835   2.027   1.787   0.613  0.0321 -0.0207  0.4679
11807TIP3    H156836   1.995   1.776   0.523 -1.4772  0.3661  0.9332
11807TIP3    H256837   1.984   1.717   0.662 -5.1741  3.8334  2.3235
11808TIP3   OH256838   4.324   5.672  11.638  0.7415  0.3925  0.9017
11808TIP3    H156839   4.353   5.602  11.697  1.0632  0.7131  1.1298
11808TIP3    H256840   4.236   5.646  11.611  0.9360 -0.1993  0.8242
11809TIP3   OH256841   3.819   5.093   1.380  0.2046 -0.2659  0.0511
11809TIP3    H156842   3.898   5.098   1.435 -0.2540 -1.0621  0.8004
11809TIP3    H256843   3.765   5.025   1.421  0.1134 -1.3393 -1.7248
11810TIP3   OH256844   1.160   2.344  12.166  0.0578  0.1740  1.2374
11810TIP3    H156845   1.121   2.418  12.119  0.8783 -0.0026  0.2353
11810TIP3    H256846   1.144   2.363  12.258  0.6839  1.8442  1.0291
11811TIP3   OH256847   6.739   3.534   5.629  0.2120  0.1733 -0.2653
11811TIP3    H156848   6.765   3.529   5.537  0.7178 -0.3763 -0.0983
11811TIP3    H256849   6.776   3.456   5.669  0.2763  0.5742  0.4818
11812TIP3   OH256850   3.764   2.216   5.108 -0.1769  0.1204 -0.9049
11812TIP3    H156851   3.782   2.242   5.198 -0.3187 -1.9418 -0.2527
11812TIP3    H256852   3.731   2.296   5.067 -1.7029  0.7209  1.3054
11813TIP3   OH256853   5.351   6.108  12.002  0.5349 -0.3312  0.5030
11813TIP3    H156854   5.408   6.032  11.996  1.7170  0.5928 -0.1891
11813TIP3    H256855   5.398   6.170  12.058 -0.1381  0.1582  0.5508
11814TIP3   OH256856   6.340   0.341   0.570  0.2473  0.0762 -0.0193
11814TIP3    H156857   6.274   0.290   0.525  0.5612 -0.8957  0.5771
11814TIP3    H256858   6.291   0.395   0.632 -0.1116  0.7640 -0.8800
11815TIP3   OH256859   3.415   3.316   4.023  0.2928  0.0241 -0.9122
11815TIP3    H156860   3.342   3.373   4.047  0.3654  0.5341 -1.8547
11815TIP3    H256861   3.489   3.375   4.013  1.3232 -0.6768  1.7726
11816TIP3   OH256862   4.211   4.137   6.168  0.3727  0.7753 -0.2623
11816TIP3    H156863   4.219   4.137   6.264 -0.1808  1.2976 -0.2075
11816TIP3    H256864   4.207   4.230   6.145  2.3141  0.7211 -0.9666
11817TIP3   OH256865   4.408   0.404   0.308 -0.0734 -0.6238 -0.1647
11817TIP3    H156866   4.383   0.353   0.385  1.1173 -0.3570  0.4211
11817TIP3    H256867   4.503   0.404   0.310 -0.0445 -0.0013 -1.2448
11818TIP3   OH256868   0.514   1.973   4.518  0.1219 -0.2641  0.2351
11818TIP3    H156869   0.496   1.965   4.612 -0.5095  0.2355  0.1635
11818TIP3    H256870   0.533   1.884   4.490  0.2446 -0.4287  0.8272
11819TIP3   OH256871   2.557   5.146   1.566 -0.1363 -0.4268 -0.2872
11819TIP3    H156872   2.537   5.183   1.652 -0.7304 -0.5887 -0.3537
11819TIP3    H256873   2.493   5.076   1.555  1.2645 -1.8380  0.0553
11820TIP3   OH256874   3.707   4.697  14.395 -0.2277 -0.2550  0.4820
11820TIP3    H156875   3.775   4.750  14.353 -2.6322  1.6768 -1.2457
11820TIP3    H256876   3.745   4.609  14.397  1.9939  0.5408 -1.1926
11821TIP3   OH256877   0.352   4.046   0.403 -0.0316  0.1763 -0.6228
11821TIP3    H156878   0.262   4.012   0.409  0.0402  0.0721 -0.0317
11821TIP3    H256879   0.393   3.992   0.336 -0.8733  1.3007 -2.0959
11822TIP3   OH256880   1.894   4.117   5.745  0.0911 -0.6912  0.4928
11822TIP3    H156881   1.897   4.038   5.691  2.2097 -0.6925  0.5213
11822TIP3    H256882   1.966   4.106   5.808 -0.7687  0.4237  1.7221
11823TIP3   OH256883   2.211   0.494  15.492 -0.0074 -0.1955  0.1768
11823TIP3    H156884   2.268   0.563  15.526 -0.9836  0.7044  0.0322
11823TIP3    H256885   2.162   0.536  15.421 -0.5819 -1.0519  0.0515
11824TIP3   OH256886   6.144   2.812  15.582 -0.3321 -0.1522 -0.0819
11824TIP3    H156887   6.133   2.717  15.589  2.9959 -0.5199  1.9967
11824TIP3    H256888   6.122   2.832  15.491 -0.4312 -3.0116 -0.7665
11825TIP3   OH256889   1.923   4.183  14.992 -0.2161 -0.4774  0.2220
11825TIP3    H156890   1.910   4.275  14.968  0.9130 -0.7072 -1.4282
11825TIP3    H256891   1.994   4.185  15.056 -0.0964 -0.1968  0.0852
11826TIP3   OH256892   2.441   6.271   2.746  0.2394 -0.3437 -0.3410
11826TIP3    H156893   2.457   6.303   2.657 -0.7986  0.7669 -0.1594
11826TIP3    H256894   2.367   6.212   2.738  3.0325 -4.1741 -0.9173
11827TIP3   OH256895   1.702   4.848  12.646 -0.7346 -0.3090  0.7302
11827TIP3    H156896   1.675   4.757  12.662 -0.0316 -0.7738 -0.5101
11827TIP3    H256897   1.798   4.845  12.648 -0.6539  0.0503 -0.9027
11828TIP3   OH256898   0.808   4.748   4.797  0.0564 -0.0424 -0.1752
11828TIP3    H156899   0.748   4.822   4.809 -0.4989 -0.0677 -2.4143
11828TIP3    H256900   0.823   4.715   4.886 -2.5406  0.5204  0.5642
11829TIP3   OH256901   1.468   2.612   4.941 -0.2186  0.1134  0.3964
11829TIP3    H156902   1.418   2.631   4.862  1.5312 -1.0043 -1.0486
11829TIP3    H256903   1.402   2.583   5.004 -1.6286  0.7816 -0.7211
11830TIP3   OH256904   5.259   0.630   0.069 -0.0399  0.3663  0.4464
11830TIP3    H156905   5.286   0.603   0.157  3.4190 -1.4172 -0.9926
11830TIP3    H256906   5.269   0.725   0.069  0.3409  0.3426  1.8419
11831TIP3   OH256907   0.555   3.486   0.693 -0.0764  0.1236 -0.1766
11831TIP3    H156908   0.562   3.564   0.637  1.0696  1.5768  1.8522
11831TIP3    H256909   0.489   3.510   0.759 -0.8706 -1.2592 -0.4374
11832TIP3   OH256910   4.429   3.434  14.742  0.2157  0.4865  0.2938
11832TIP3    H156911   4.339   3.405  14.727  0.2553  1.2141 -1.4483
11832TIP3    H256912   4.422   3.497  14.814 -0.6275  0.3743  0.3218
11833TIP3   OH256913   1.003   6.402   3.830 -0.4666  0.2899  0.5128
11833TIP3    H156914   0.974   6.485   3.866 -1.0379 -0.2044  1.2160
11833TIP3    H256915   0.979   6.337   3.896  2.4360 -0.1464  1.3087
11834TIP3   OH256916   1.466   3.118   3.453 -0.0960  0.0291  0.3852
11834TIP3    H156917   1.517   3.041   3.430  0.4741 -0.3831  2.7216
11834TIP3    H256918   1.528   3.175   3.498 -0.9285  1.0343  0.2851
11835TIP3   OH256919   0.984   6.214  16.144 -0.7042 -0.3321 -0.4642
11835TIP3    H156920   1.066   6.253  16.173 -0.9015 -0.3987  0.2100
11835TIP3    H256921   1.001   6.120  16.140 -0.7941 -0.3648 -0.1423
11836TIP3   OH256922   1.970   6.453   3.497  0.0635 -0.1888  0.0297
11836TIP3    H156923   2.008   6.533   3.461  1.3198 -0.1513  1.3629
11836TIP3    H256924   1.932   6.480   3.581 -1.3371 -0.6035 -0.4330
11837TIP3   OH256925   3.584   0.014   2.651 -0.4069  0.2025  0.5061
11837TIP3    H156926   3.601   0.108   2.655  1.5030 -0.0634 -0.2593
11837TIP3    H256927   3.671  -0.026   2.649 -1.0984 -1.4233 -2.3316
11838TIP3   OH256928   0.288   1.053   0.523  0.1979  0.6298  0.4785
11838TIP3    H156929   0.291   1.141   0.560  0.6117  0.9414 -0.2803
11838TIP3    H256930   0.210   1.053   0.467  1.2944  1.2019 -1.1460
11839TIP3   OH256931   6.707   0.821   3.915  0.2136 -0.1112  0.4017
11839TIP3    H156932   6.638   0.775   3.867 -0.1425 -2.2169  2.7250
11839TIP3    H256933   6.788   0.792   3.875 -0.1433  0.1631 -0.5358
11840TIP3   OH256934   5.524   5.278  15.533 -0.9735  0.1954 -0.5848
11840TIP3    H156935   5.590   5.272  15.602 -0.8174  1.2086 -0.6248
11840TIP3    H256936   5.570   5.319  15.460 -1.2485 -0.4953 -1.1524
11841TIP3   OH256937   1.538   5.773   3.289 -0.3886  0.0892  0.2180
11841TIP3    H156938   1.624   5.813   3.278  0.1620 -1.2418 -0.6573
11841TIP3    H256939   1.517   5.786   3.381  2.2472 -2.2769  1.3267
11842TIP3   OH256940   1.813   2.039   2.380  0.0624 -0.4635 -0.1689
11842TIP3    H156941   1.904   2.068   2.372 -0.3493  0.5612 -1.4450
11842TIP3    H256942   1.762   2.119   2.381 -0.9336 -1.0653 -1.0434
11843TIP3   OH256943   4.444   6.037   4.431  0.6788  0.3899 -0.1217
11843TIP3    H156944   4.419   6.088   4.354  0.7493 -1.4333 -1.4155
11843TIP3    H256945   4.401   6.082   4.504  1.5797  2.8602 -1.0046
11844TIP3   OH256946   4.610   0.961  16.882  0.1477  0.2827  0.6145
11844TIP3    H156947   4.608   0.895  16.951  4.4278 -1.7599 -0.8100
11844TIP3    H256948   4.704   0.974  16.865 -0.5488  0.3263 -4.9338
11845TIP3   OH256949   0.695   5.249   4.473  0.2442 -0.4790  0.5140
11845TIP3    H156950   0.708   5.220   4.383 -0.2296 -0.6815  0.5047
11845TIP3    H256951   0.778   5.230   4.517  0.7988  0.4850 -0.1005
11846TIP3   OH256952   6.402   6.304  14.093  0.1345 -0.2223 -0.3171
11846TIP3    H156953   6.458   6.371  14.053  0.5454 -0.3358  0.0607
11846TIP3    H256954   6.390   6.238  14.025  1.7131 -0.9488  0.0646
11847TIP3   OH256955   0.607   4.019  12.748 -0.0560  0.4249 -0.1836
11847TIP3    H156956   0.588   4.091  12.808  0.6672  0.6990 -0.2693
11847TIP3    H256957   0.622   3.944  12.805 -0.9012  0.3161 -0.0965
11848TIP3   OH256958   5.479   2.393  14.345 -0.1453 -0.2862  0.3001
11848TIP3    H156959   5.391   2.370  14.376 -0.3353  1.7793  1.5396
11848TIP3    H256960   5.464   2.461  14.279  0.5124  1.4445  1.8549
11849TIP3   OH256961   2.218   4.939  13.742  0.0629  0.5007  0.0714
11849TIP3    H156962   2.235   4.849  13.771 -0.7178  0.1975 -0.3787
11849TIP3    H256963   2.190   4.930  13.651  0.1937  1.2213 -0.0422
11850TIP3   OH256964   4.739   1.282  12.287  0.0705  0.4943 -0.0503
11850TIP3    H156965   4.788   1.287  12.205 -0.5176 -0.9043 -0.5275
11850TIP3    H256966   4.770   1.202  12.329 -1.3492 -0.1315 -0.1114
11851TIP3   OH256967   2.827   0.711   0.320 -0.1547  0.2068  0.6678
11851TIP3    H156968   2.826   0.645   0.389  0.6436 -1.5520 -0.9242
11851TIP3    H256969   2.821   0.661   0.239 -0.7931  2.1861 -0.5814
11852TIP3   OH256970   2.953   0.052   1.645 -0.4868 -0.4349  0.7331
11852TIP3    H156971   3.020  -0.015   1.657  0.4755  0.1922 -0.8130
11852TIP3    H256972   2.877   0.020   1.694  0.5818 -1.6923  1.6216
11853TIP3   OH256973   5.786   3.682  16.368  0.1363  0.4763  0.3424
11853TIP3    H156974   5.741   3.628  16.434 -0.2040  1.0593  0.6019
11853TIP3    H256975   5.842   3.621  16.321  1.1024  0.2073  1.7967
11854TIP3   OH256976   4.579   2.769  13.113  0.5389  0.5434 -0.2617
11854TIP3    H156977   4.652   2.750  13.054 -0.0196 -0.4232 -0.6666
11854TIP3    H256978   4.510   2.708  13.086  0.5995 -0.6382  2.0458
11855TIP3   OH256979   0.002   0.146   4.637 -0.3044  0.7901  0.4688
11855TIP3    H156980   0.063   0.170   4.567  0.1028  0.7974  0.8238
11855TIP3    H256981  -0.058   0.221   4.643 -1.3466  0.1093 -0.9564
11856TIP3   OH256982   5.113   6.669  15.147 -0.7944  0.2436 -0.0326
11856TIP3    H156983   5.070   6.585  15.132  0.9922 -1.6046  3.7273
11856TIP3    H256984   5.049   6.720  15.197 -0.4676 -0.5219  1.1961
11857TIP3   OH256985   1.941   6.060  13.622  0.3184  0.0401  0.4311
11857TIP3    H156986   2.003   5.996  13.588 -2.3140 -2.0618 -0.8041
11857TIP3    H256987   1.926   6.120  13.549  0.1706 -0.0535  0.3836
11858TIP3   OH256988   2.579   1.896  11.931 -0.4876  0.2199  0.5670
11858TIP3    H156989   2.620   1.950  11.863  1.7626 -0.8473  0.9858
11858TIP3    H256990   2.516   1.842  11.884  0.8132 -0.2868 -0.6522
11859TIP3   OH256991   4.394   3.770  17.290  0.2141  0.4990 -0.7625
11859TIP3    H156992   4.330   3.833  17.258 -2.1956  0.1595  2.8335
11859TIP3    H256993   4.357   3.684  17.267  1.5828  0.2622 -2.2973
11860TIP3   OH256994   1.773   3.217   4.654  0.4985  0.4062 -0.1005
11860TIP3    H156995   1.821   3.272   4.716 -1.7329  2.4659 -0.0530
11860TIP3    H256996   1.810   3.240   4.569 -0.1408  1.7363 -0.0382
11861TIP3   OH256997   4.449   3.745  16.214 -0.3237 -0.4691 -0.1700
11861TIP3    H156998   4.356   3.740  16.194 -0.3773  1.8728 -0.7671
11861TIP3    H256999   4.487   3.670  16.168 -1.9125 -1.6125  0.2917
11862TIP3   OH257000   1.562   4.361   2.804  0.3430  0.1457  0.8985
11862TIP3    H157001   1.520   4.382   2.720  0.0018  1.8224  1.4578
11862TIP3    H257002   1.635   4.304   2.780 -0.1661  0.0076 -0.4566
11863TIP3   OH257003   5.715   5.228  17.054  0.1927 -0.2231 -0.0180
11863TIP3    H157004   5.808   5.248  17.039  0.1582  0.2546  0.3874
11863TIP3    H257005   5.671   5.312  17.042 -0.3399 -0.6607 -1.3585
11864TIP3   OH257006   4.297   4.485   6.300 -0.1940  0.9508  0.0189
11864TIP3    H157007   4.204   4.499   6.282 -0.4479 -1.3012 -0.6788
11864TIP3    H257008   4.342   4.526   6.226 -0.7177  0.8302 -0.3746
11865TIP3   OH257009   5.637   5.415  15.302  0.0064 -0.5776  0.4919
11865TIP3    H157010   5.590   5.494  15.329 -3.5806 -2.4273  0.2980
11865TIP3    H257011   5.643   5.421  15.207 -1.1116 -0.8975  0.3863
11866TIP3   OH257012   3.113   2.066  16.608  0.4745 -0.4335 -0.2211
11866TIP3    H157013   3.113   1.974  16.582 -1.1140 -0.1412 -1.3680
11866TIP3    H257014   3.039   2.073  16.669  0.0995  0.2490 -0.7526
11867TIP3   OH257015   1.770   0.609  12.136 -0.0603  0.7249 -0.2101
11867TIP3    H157016   1.786   0.627  12.228 -2.0598 -0.1886  0.3891
11867TIP3    H257017   1.835   0.543  12.112 -0.8624 -0.6703  1.2140
11868TIP3   OH257018   2.050   5.790   1.693  0.0925 -0.1942  0.2940
11868TIP3    H157019   2.054   5.876   1.653 -2.3346  0.1592  0.6772
11868TIP3    H257020   2.105   5.796   1.771  2.0065  0.1768 -1.0370
11869TIP3   OH257021   3.187   5.500   4.162  0.3402  0.6090  0.1148
11869TIP3    H157022   3.272   5.528   4.196  0.4749 -0.1892  0.4646
11869TIP3    H257023   3.125   5.566   4.193  0.5791  0.2975  1.2798
11870TIP3   OH257024   1.440   4.326  16.290 -0.1461  0.1678  0.1720
11870TIP3    H157025   1.415   4.274  16.214 -0.6071 -0.1942  0.5655
11870TIP3    H257026   1.425   4.416  16.264 -0.4003  0.0398 -0.1267
11871TIP3   OH257027   2.826   3.452   6.773 -0.8378 -0.3509  0.2841
11871TIP3    H157028   2.833   3.534   6.822 -2.6399 -0.9660  1.7074
11871TIP3    H257029   2.840   3.383   6.838 -2.0744 -1.1804 -0.2710
11872TIP3   OH257030   3.941   2.943  13.488 -0.5293 -0.1583 -0.5597
11872TIP3    H157031   3.943   3.026  13.535  1.0609 -0.3369 -0.2838
11872TIP3    H257032   3.971   2.878  13.552  2.3448 -0.3171 -1.9085
11873TIP3   OH257033   6.066   6.277  12.659  0.4477  0.2742  0.4213
11873TIP3    H157034   5.984   6.229  12.654  0.7153 -0.0504 -2.2766
11873TIP3    H257035   6.059   6.344  12.591  0.7840  3.0701  2.8934
11874TIP3   OH257036   2.612   5.025   3.636  0.4345 -0.2819  0.1575
11874TIP3    H157037   2.623   5.110   3.679 -0.2494 -0.7538  1.3277
11874TIP3    H257038   2.572   4.970   3.703  0.1050 -1.3004 -0.8441
11875TIP3   OH257039   1.292   0.253   5.721  0.3273  0.3113  0.1109
11875TIP3    H157040   1.244   0.320   5.672 -1.0452  0.1037  1.0943
11875TIP3    H257041   1.338   0.301   5.789 -0.1911  0.3381  0.4543
11876TIP3   OH257042   2.233   0.190   1.968  0.2310  0.1371  0.3421
11876TIP3    H157043   2.241   0.193   2.063  0.2854  1.2779  0.3108
11876TIP3    H257044   2.213   0.098   1.949  0.0533 -0.0745  1.4610
11877TIP3   OH257045   0.310   1.728   4.477 -0.0562 -0.2622  0.5617
11877TIP3    H157046   0.400   1.697   4.486  1.0111  1.9541 -1.2872
11877TIP3    H257047   0.281   1.693   4.392 -0.4949  0.0423  0.5815
11878TIP3   OH257048   5.148   5.733  13.937 -0.2218 -0.4909  0.5216
11878TIP3    H157049   5.146   5.696  13.849  0.5038 -2.0903  1.1295
11878TIP3    H257050   5.237   5.716  13.968 -0.4530  0.0660  1.5548
11879TIP3   OH257051   5.837   2.474  15.201  0.1583  0.3941 -0.1621
11879TIP3    H157052   5.769   2.444  15.141 -0.8645  0.5872  0.8671
11879TIP3    H257053   5.884   2.395  15.226 -2.1068 -0.3726  2.0343
11880TIP3   OH257054   1.731   3.726   2.049 -0.0117 -0.2161  0.2385
11880TIP3    H157055   1.653   3.715   1.995  0.3443  0.7468 -0.5069
11880TIP3    H257056   1.788   3.653   2.025 -1.6950 -2.5226  2.7226
11881TIP3   OH257057   6.704   1.542  16.776  0.2278  0.3312 -0.1936
11881TIP3    H157058   6.753   1.578  16.702  1.4524 -1.4027 -0.2756
11881TIP3    H257059   6.647   1.476  16.737  1.2365 -0.9417  0.4382
11882TIP3   OH257060   0.911   2.143  15.141  0.4590 -0.7072 -0.3733
11882TIP3    H157061   0.859   2.205  15.090 -0.2757 -0.3053  0.8178
11882TIP3    H257062   0.976   2.197  15.186 -0.0308 -0.7996  0.4810
11883TIP3   OH257063   2.957   4.988  14.095 -0.4601 -0.0177  0.1072
11883TIP3    H157064   2.992   5.038  14.168 -0.4099 -1.0141  0.7932
11883TIP3    H257065   2.919   5.053  14.037  0.9143  0.9236  0.2321
11884TIP3   OH257066   6.616   4.623   0.248 -0.4146 -0.1523 -0.3824
11884TIP3    H157067   6.539   4.597   0.197 -0.0667  1.1346 -1.6159
11884TIP3    H257068   6.678   4.657   0.183  0.7200 -0.0299  0.7235
11885TIP3   OH257069   5.405   5.211  11.393 -0.2033  0.1529 -0.3566
11885TIP3    H157070   5.469   5.140  11.390 -0.0634  0.2529  0.1474
11885TIP3    H257071   5.341   5.189  11.325 -1.0760 -1.3299  0.8747
11886TIP3   OH257072   1.815   6.356   4.113 -0.0275 -0.7387  0.3817
11886TIP3    H157073   1.809   6.318   4.025 -0.0822 -2.1976  1.0039
11886TIP3    H257074   1.849   6.444   4.097 -0.6053 -0.7503 -1.1535
11887TIP3   OH257075   3.427   0.746  16.908 -0.1552 -0.0239  0.3744
11887TIP3    H157076   3.512   0.748  16.954  0.2840  0.1063 -0.4255
11887TIP3    H257077   3.371   0.805  16.959 -0.5021 -1.8747  2.2932
11888TIP3   OH257078   6.751   6.052  16.763  0.4195 -0.2635  0.5194
11888TIP3    H157079   6.756   6.059  16.668 -0.1823  0.9914  0.5527
11888TIP3    H257080   6.709   5.967  16.779 -3.3799  1.1985 -0.5337
11889TIP3   OH257081   6.001   2.526   1.665  0.2962 -0.4900 -0.4427
11889TIP3    H157082   6.050   2.546   1.586  0.1866  0.0020 -0.3849
11889TIP3    H257083   5.912   2.555   1.645  0.7047  1.6257  0.6428
11890TIP3   OH257084   1.793   0.780  15.982  0.2212  0.3510  0.7445
11890TIP3    H157085   1.845   0.722  16.037 -0.2931  0.4879  1.3922
11890TIP3    H257086   1.735   0.825  16.043 -2.3683 -1.5391 -0.1555
11891TIP3   OH257087   6.754   2.562  13.709  0.9487 -0.2892  0.0564
11891TIP3    H157088   6.771   2.652  13.682 -2.3933  0.1537 -1.0871
11891TIP3    H257089   6.741   2.514  13.627 -0.7622 -0.9435  0.6455
11892TIP3   OH257090   4.794   6.419   4.302 -0.4622  0.1365  0.6228
11892TIP3    H157091   4.774   6.354   4.369  2.9080 -1.3391  0.4142
11892TIP3    H257092   4.827   6.368   4.228  0.2423  1.9642 -0.3857
11893TIP3   OH257093   0.789   4.599  16.480  0.0812  0.4885 -0.7196
11893TIP3    H157094   0.832   4.516  16.459 -0.4997  0.0238 -0.1083
11893TIP3    H257095   0.696   4.580  16.476 -0.0592  1.0044 -0.1697
11894TIP3   OH257096   5.431   1.758  17.155  0.0670  0.1669 -0.0717
11894TIP3    H157097   5.376   1.681  17.153  1.2055 -0.6670 -0.2555
11894TIP3    H257098   5.477   1.752  17.239  1.1666 -0.0942 -0.6753
11895TIP3   OH257099   5.436   0.382  12.245  0.0664 -0.4614  0.0136
11895TIP3    H157100   5.419   0.397  12.338  2.0104  0.6352  0.2654
11895TIP3    H257101   5.527   0.409  12.233  1.3108 -4.4687 -1.3396
11896TIP3   OH257102   5.657   2.106  11.807 -0.4257  0.0394 -0.3134
11896TIP3    H157103   5.654   2.026  11.755 -0.1876 -0.4029  0.3299
11896TIP3    H257104   5.573   2.149  11.791 -0.7382 -0.5667 -0.3193
11897TIP3   OH257105   2.934   3.015   0.173  0.5697  0.3052 -0.0405
11897TIP3    H157106   2.877   3.052   0.106 -0.1038  0.4162  0.5712
11897TIP3    H257107   2.928   2.920   0.160  1.5625  0.3546 -1.0182
11898TIP3   OH257108   2.303   5.858  11.595 -0.2119  0.4655  0.6532
11898TIP3    H157109   2.249   5.839  11.672 -0.8733  2.1435  0.6531
11898TIP3    H257110   2.285   5.950  11.576 -0.3921 -0.0220 -1.7895
11899TIP3   OH257111   3.840   3.994   6.544 -0.3682 -0.1995 -0.3523
11899TIP3    H157112   3.882   3.978   6.628 -1.1824 -1.2267 -0.1248
11899TIP3    H257113   3.859   3.915   6.493  0.8475  0.7565 -1.4607
11900TIP3   OH257114   2.181   1.994  14.018  0.2644  0.0724  0.3172
11900TIP3    H157115   2.258   2.026  14.065 -1.0853 -0.2140  2.9481
11900TIP3    H257116   2.148   2.071  13.972  0.8580  0.7582  1.0010
11901TIP3   OH257117   3.657   3.541  17.035 -0.4530 -0.2492  0.4354
11901TIP3    H157118   3.670   3.447  17.047  3.5449 -0.0555 -0.9874
11901TIP3    H257119   3.645   3.552  16.941 -1.1732  0.6713  0.6202
11902TIP3   OH257120   1.849   2.070  14.445  0.1434 -0.4259  0.0094
11902TIP3    H157121   1.823   1.989  14.401 -1.2903 -1.3376  2.3660
11902TIP3    H257122   1.776   2.130  14.429  1.2188  0.5064 -1.7615
11903TIP3   OH257123   1.596   6.144  12.814  0.4511  0.2012  0.6541
11903TIP3    H157124   1.637   6.156  12.728  1.1232 -3.1463  0.3657
11903TIP3    H257125   1.668   6.113  12.870  0.1940  3.0107  2.7195
11904TIP3   OH257126   5.719   6.715   3.383 -0.2381  0.6127  0.1412
11904TIP3    H157127   5.775   6.791   3.373 -0.2042  0.3887 -1.7496
11904TIP3    H257128   5.776   6.649   3.423  0.5659  0.7083 -0.8010
11905TIP3   OH257129   2.234   5.732  13.962 -0.2200  0.0002  0.1797
11905TIP3    H157130   2.268   5.643  13.971 -0.0735 -0.0520 -0.8333
11905TIP3    H257131   2.308   5.788  13.987 -0.3059 -0.1448  0.7990
11906TIP3   OH257132   3.870   2.856  13.142 -0.0419  0.0481  0.3246
11906TIP3    H157133   3.881   2.841  13.048 -1.3672 -0.2735  0.1930
11906TIP3    H257134   3.781   2.825  13.160  0.6589 -1.1394  1.9492
11907TIP3   OH257135   6.093   2.229  15.557 -0.1825 -0.5769  0.0822
11907TIP3    H157136   6.154   2.250  15.487  0.5774 -0.6296  0.7182
11907TIP3    H257137   6.147   2.224  15.636 -1.1391  0.3307  0.8333
11908TIP3   OH257138   3.980   5.512   5.348 -0.0295 -0.1673  0.3174
11908TIP3    H157139   4.016   5.509   5.437  2.8288  0.0092 -0.7196
11908TIP3    H257140   3.957   5.421   5.328 -1.5726 -0.0851  1.4857
11909TIP3   OH257141   3.233   4.726  14.256  0.1353  0.6218  0.2127
11909TIP3    H157142   3.294   4.701  14.187 -0.4325  0.6264 -0.2969
11909TIP3    H257143   3.289   4.761  14.326  0.8074 -0.4513  0.2365
11910TIP3   OH257144   5.143   5.329   2.323  0.3513  0.6277  0.1978
11910TIP3    H157145   5.191   5.247   2.314  0.2956  0.3965  1.6565
11910TIP3    H257146   5.054   5.303   2.345 -0.0263  1.0801 -0.7438
11911TIP3   OH257147   0.138   3.703  15.002 -0.2159 -0.2989  0.2666
11911TIP3    H157148   0.081   3.756  14.947 -0.2650  0.2830  0.8671
11911TIP3    H257149   0.181   3.765  15.060  0.9348 -0.7504 -0.0833
11912TIP3   OH257150   6.018   0.665   5.051  0.1240  0.2071  0.0931
11912TIP3    H157151   5.995   0.646   4.960 -0.4428 -1.4943  0.5497
11912TIP3    H257152   5.940   0.640   5.101  1.1866 -0.9703  1.2293
11913TIP3   OH257153   4.857   4.789  16.777  0.0349 -0.3823  0.0915
11913TIP3    H157154   4.853   4.697  16.751  1.2735 -0.3412 -0.3032
11913TIP3    H257155   4.945   4.800  16.813 -0.7251  0.2217  1.8679
11914TIP3   OH257156   0.024   1.224  13.417  0.0472 -0.3756 -0.2425
11914TIP3    H157157   0.094   1.168  13.385 -0.2531 -1.4682  0.9245
11914TIP3    H257158  -0.043   1.220  13.349  1.2944  1.1457 -1.6465
11915TIP3   OH257159   1.068   4.459   4.335  0.3117 -0.1730 -0.0857
11915TIP3    H157160   1.017   4.408   4.272  0.0186  0.2939 -0.2341
11915TIP3    H257161   1.159   4.444   4.309  0.2486 -0.8341  0.0450
11916TIP3   OH257162   0.083   6.738  14.825  0.0531  0.1214 -0.3711
11916TIP3    H157163   0.129   6.686  14.759 -1.3925 -0.6465 -0.8072
11916TIP3    H257164   0.065   6.677  14.896 -0.7180  0.2782 -0.4216
11917TIP3   OH257165   3.379   4.465   5.338  0.3531 -0.0739 -0.0446
11917TIP3    H157166   3.308   4.422   5.386 -0.5393  1.1030 -0.2684
11917TIP3    H257167   3.344   4.476   5.250 -0.4522  3.2485  0.5582
11918TIP3   OH257168   6.659   3.633   5.015 -0.2503 -0.1829 -0.1605
11918TIP3    H157169   6.700   3.696   5.076 -2.0641  1.0144 -0.1210
11918TIP3    H257170   6.630   3.561   5.071  0.4577 -0.3515  0.0035
11919TIP3   OH257171   4.883   6.243  16.619  0.5766  0.5119 -0.3586
11919TIP3    H157172   4.977   6.258  16.620  0.6087  0.7262 -2.1502
11919TIP3    H257173   4.849   6.306  16.555 -0.2449 -1.9400 -2.5406
11920TIP3   OH257174   2.243   6.002   0.064  0.1275 -0.2746  0.0375
11920TIP3    H157175   2.288   5.918   0.052  0.3470 -0.0898 -0.4578
11920TIP3    H257176   2.223   6.005   0.158  0.2980 -0.7889  0.0957
11921TIP3   OH257177   3.780   5.538   0.589 -0.0884 -0.2272 -0.5020
11921TIP3    H157178   3.690   5.506   0.597 -0.6881  1.0696 -1.6947
11921TIP3    H257179   3.802   5.569   0.677 -0.7749 -0.5849 -0.1926
11922TIP3   OH257180   6.214   0.266   4.373 -0.3314  0.2488  0.5563
11922TIP3    H157181   6.160   0.336   4.334 -0.8789 -0.1753  0.5462
11922TIP3    H257182   6.231   0.206   4.301 -0.9770 -0.3113  0.8607
11923TIP3   OH257183   5.266   6.585  16.585  0.3326  0.1778 -0.2063
11923TIP3    H157184   5.292   6.526  16.657 -1.9284 -0.3406  0.2701
11923TIP3    H257185   5.271   6.673  16.623  2.2244  0.2180 -0.4466
11924TIP3   OH257186   2.438   5.439  13.025  0.3010 -0.5233  0.3355
11924TIP3    H157187   2.395   5.468  12.944 -0.4839  1.0629  1.2792
11924TIP3    H257188   2.433   5.344  13.022  2.5845 -0.7108 -2.7029
11925TIP3   OH257189   1.960   6.291  12.143  0.1456 -0.3184 -0.7997
11925TIP3    H157190   2.000   6.369  12.106 -0.8040  0.5833  0.0228
11925TIP3    H257191   2.023   6.261  12.209 -0.5345  1.1895  0.6066
11926TIP3   OH257192   6.149   5.768   5.654  0.4273 -0.0841  0.0882
11926TIP3    H157193   6.168   5.775   5.748  2.0891 -3.4670  0.1650
11926TIP3    H257194   6.232   5.791   5.611 -0.2985  1.3655 -0.6208
11927TIP3   OH257195   2.753   4.985  12.153 -0.4195  0.5788  0.4480
11927TIP3    H157196   2.744   5.044  12.228 -0.1933  2.3355 -0.8426
11927TIP3    H257197   2.812   5.031  12.093 -0.8328 -0.6176 -0.9494
11928TIP3   OH257198   6.273   5.090  12.398  0.4298 -1.1894 -0.0922
11928TIP3    H157199   6.323   5.169  12.375  0.2286 -0.5016  1.6100
11928TIP3    H257200   6.189   5.101  12.355  1.3238 -1.8276 -2.0911
11929TIP3   OH257201   3.269   4.822  14.686  0.0625  0.7529 -0.0446
11929TIP3    H157202   3.205   4.820  14.615 -0.2357 -0.7440  0.2413
11929TIP3    H257203   3.243   4.897  14.740 -1.1179  0.4795 -0.2187
11930TIP3   OH257204   5.956   3.050   6.104 -0.0862  0.0515  0.6857
11930TIP3    H157205   5.897   3.115   6.139  0.7412  0.7360  0.8400
11930TIP3    H257206   5.999   3.012   6.180 -0.4449 -0.5652  0.5873
11931TIP3   OH257207   0.237   5.008  17.205 -0.1762  0.2159 -0.4292
11931TIP3    H157208   0.254   4.940  17.140  0.8922 -0.7246  0.7737
11931TIP3    H257209   0.202   5.081  17.155  0.8784 -0.3643 -2.1061
11932TIP3   OH257210   3.677   0.937   3.833  0.7077 -0.0970 -0.3670
11932TIP3    H157211   3.700   1.008   3.893  0.0425 -0.5026  0.3972
11932TIP3    H257212   3.593   0.964   3.796  2.4007  1.5713 -3.4416
11933TIP3   OH257213   3.934   2.699  16.567 -0.3465  0.9052 -0.1640
11933TIP3    H157214   3.872   2.721  16.637 -1.2456 -1.0337 -0.2870
11933TIP3    H257215   3.892   2.729  16.487 -0.6389  0.5427 -0.1458
11934TIP3   OH257216   0.167   2.341  14.070  0.2396  0.2187 -0.2813
11934TIP3    H157217   0.122   2.402  14.012  1.3214  1.0093 -0.3004
11934TIP3    H257218   0.260   2.359  14.057  0.5129  0.3690  1.6419
11935TIP3   OH257219   0.503   5.427  10.542  0.0052  0.1790  0.3574
11935TIP3    H157220   0.487   5.358  10.478  0.1951 -0.3613  0.8826
11935TIP3    H257221   0.568   5.390  10.602  0.7869  1.1472  0.1306
11936TIP3   OH257222   0.459   0.777  15.883  0.3010 -0.4888  0.0532
11936TIP3    H157223   0.492   0.756  15.795  1.9891  1.5736  0.0977
11936TIP3    H257224   0.391   0.842  15.867  0.6809 -0.0352  0.2384
11937TIP3   OH257225   0.066   1.055  15.258 -0.3080 -0.0190  0.3646
11937TIP3    H157226   0.134   1.051  15.325 -1.4268  0.1095  1.5284
11937TIP3    H257227   0.050   1.149  15.246  1.6972  0.1212 -2.0103
11938TIP3   OH257228   5.440   5.382   0.002 -0.1213 -0.4670  0.3036
11938TIP3    H157229   5.355   5.390  -0.042  0.0346  2.3771  0.3718
11938TIP3    H257230   5.419   5.340   0.086 -1.3412 -0.4361  0.0362
11939TIP3   OH257231   0.360   2.939  15.752 -0.4734 -0.1952 -0.7861
11939TIP3    H157232   0.413   2.933  15.672 -1.4957 -2.9525 -1.3749
11939TIP3    H257233   0.270   2.938  15.720 -0.9024 -1.2452  0.3647
11940TIP3   OH257234   3.823   1.903  12.475  0.0394  0.0175  0.0835
11940TIP3    H157235   3.739   1.935  12.443  1.3240  2.9103 -0.7540
11940TIP3    H257236   3.851   1.838  12.410 -0.6704  0.4717 -0.6890
11941TIP3   OH257237   2.210   2.245   2.089  0.5082  0.9814  0.0654
11941TIP3    H157238   2.277   2.219   2.026 -0.3340 -1.1697  0.0039
11941TIP3    H257239   2.258   2.254   2.172  0.7779 -1.7342  0.2945
11942TIP3   OH257240   5.554   4.063   1.000  0.3057  0.1922 -0.1080
11942TIP3    H157241   5.522   4.146   1.035  0.0743 -0.7100  2.0180
11942TIP3    H257242   5.477   4.021   0.962  0.2619  0.6127 -0.4853
11943TIP3   OH257243   0.886   0.506  12.424  0.0200  0.3131  0.7034
11943TIP3    H157244   0.892   0.577  12.488  1.3337 -0.9053  2.0266
11943TIP3    H257245   0.977   0.488  12.401 -0.3303 -0.5422 -0.0566
11944TIP3   OH257246   1.050   2.580  17.032  0.0240 -0.7282  0.4978
11944TIP3    H157247   1.027   2.500  17.079  0.5604 -0.8672  0.5296
11944TIP3    H257248   1.144   2.591  17.047  0.4047 -1.2292 -1.2153
11945TIP3   OH257249   4.836   6.738  14.130 -0.7194 -0.1076 -0.4886
11945TIP3    H157250   4.916   6.733  14.077  0.0591 -2.3182  0.7619
11945TIP3    H257251   4.782   6.803  14.086  1.3400  0.7072 -1.9642
11946TIP3   OH257252   6.698   0.654   2.313  0.5906 -0.1910 -0.6875
11946TIP3    H157253   6.669   0.730   2.263 -0.3774  0.8975  1.4206
11946TIP3    H257254   6.622   0.631   2.367  0.8910 -2.6293 -1.1858
11947TIP3   OH257255   4.094   3.449  14.494 -0.2696  0.3115  0.4774
11947TIP3    H157256   4.173   3.452  14.440 -1.1683 -1.4628 -1.0673
11947TIP3    H257257   4.123   3.408  14.576  0.5579  0.3794  0.2302
11948TIP3   OH257258   2.016   4.807  12.395  0.0785 -0.4320  0.0056
11948TIP3    H157259   1.957   4.794  12.470  1.1499  1.7168  1.3438
11948TIP3    H257260   2.091   4.750  12.413  0.4508  0.2687  0.7593
11949TIP3   OH257261   3.817   1.293   5.596  0.1030 -0.7986 -0.3701
11949TIP3    H157262   3.802   1.384   5.620  0.6199 -0.5978 -0.7961
11949TIP3    H257263   3.794   1.288   5.503  1.2187 -0.8263 -0.6497
11950TIP3   OH257264   6.423   4.211  17.253  0.3722 -0.2390 -0.3123
11950TIP3    H157265   6.409   4.174  17.340  1.4083  0.0941  0.0127
11950TIP3    H257266   6.417   4.306  17.267  2.5610 -0.0652 -0.1701
11951TIP3   OH257267   4.338   0.886   2.429  0.4539 -0.3300  0.2605
11951TIP3    H157268   4.312   0.912   2.518 -2.3045 -1.9218  0.0411
11951TIP3    H257269   4.329   0.791   2.428 -0.3049 -0.2955 -1.8918
11952TIP3   OH257270   2.977   6.560  14.565  0.3755  0.3466 -0.1146
11952TIP3    H157271   2.923   6.636  14.589 -1.1936 -0.5497 -0.7001
11952TIP3    H257272   3.003   6.578  14.475  0.1825  0.2904 -0.1821
11953TIP3   OH257273   0.174   5.947   4.264 -0.4124 -0.2639 -0.1471
11953TIP3    H157274   0.249   5.905   4.307 -0.5645 -0.0414  0.3484
11953TIP3    H257275   0.211   5.991   4.188 -0.0915 -0.4405 -0.0945
11954TIP3   OH257276   2.453   5.578  13.261 -0.0365  0.4426  0.1019
11954TIP3    H157277   2.480   5.520  13.190 -1.0414  0.6379 -0.4487
11954TIP3    H257278   2.424   5.519  13.331  1.3094  0.2381  0.5289
11955TIP3   OH257279   6.637   4.212   3.263 -0.1379  0.4538 -0.4684
11955TIP3    H157280   6.587   4.133   3.281  1.7326 -0.6912 -0.0544
11955TIP3    H257281   6.638   4.218   3.167  0.1910 -0.3857 -0.5311
11956TIP3   OH257282   0.866   2.812   5.218 -0.3475 -0.8714 -0.0600
11956TIP3    H157283   0.934   2.877   5.203  0.9372 -1.8727  1.1363
11956TIP3    H257284   0.815   2.846   5.292  0.3151 -1.1861  0.5573
11957TIP3   OH257285   1.607   4.518   0.508 -0.4327  0.4979 -0.1667
11957TIP3    H157286   1.670   4.471   0.563 -0.2226 -0.3601 -1.1142
11957TIP3    H257287   1.536   4.541   0.568  0.0402  0.0726  0.5829
11958TIP3   OH257288   6.613   2.275  11.119 -0.0555  0.4419  0.0757
11958TIP3    H157289   6.519   2.276  11.139  0.0908  2.1078  0.9039
11958TIP3    H257290   6.622   2.211  11.049 -1.8490  0.4179 -0.1894
11959TIP3   OH257291   5.512   5.418  16.722 -0.4445  0.1499  0.0862
11959TIP3    H157292   5.533   5.476  16.795  2.3780 -0.7698  0.1412
11959TIP3    H257293   5.488   5.335  16.763 -1.8783  0.4816 -0.0349
11960TIP3   OH257294   4.041   0.883  12.389  0.1595  0.3580  0.7251
11960TIP3    H157295   3.999   0.961  12.427 -0.6161  0.8887 -1.1128
11960TIP3    H257296   4.133   0.908  12.381 -0.1252  1.2044 -0.0847
11961TIP3   OH257297   3.902   5.499   2.926  0.1102 -0.2777  0.0863
11961TIP3    H157298   3.843   5.431   2.895 -2.1822  2.2579 -1.4671
11961TIP3    H257299   3.960   5.517   2.852 -0.0112  0.2299  0.1124
11962TIP3   OH257300   6.254   5.448  15.377  0.4589  0.0175  0.1739
11962TIP3    H157301   6.294   5.534  15.365  1.2514 -0.5103 -1.2090
11962TIP3    H257302   6.248   5.437  15.472 -1.4192  2.3662  0.4253
11963TIP3   OH257303   4.936   2.888   5.290 -0.4542  0.0914 -0.0950
11963TIP3    H157304   4.951   2.982   5.300  1.1797 -0.2386  0.9409
11963TIP3    H257305   4.842   2.880   5.273 -0.8458  1.8081  1.0687
11964TIP3   OH257306   0.452   2.191  15.636 -0.7423 -0.5840  0.3049
11964TIP3    H157307   0.462   2.098  15.618 -0.5025 -0.4375 -0.3721
11964TIP3    H257308   0.539   2.229  15.622 -0.7687 -0.3052  0.8748
11965TIP3   OH257309   2.742   6.248  12.201 -0.0226 -0.3468  0.3472
11965TIP3    H157310   2.649   6.227  12.215  0.2436 -1.3246  0.6847
11965TIP3    H257311   2.750   6.260  12.107 -1.3185  3.8012  0.5605
11966TIP3   OH257312   5.678   6.392   1.821 -0.4352 -0.1540  0.0366
11966TIP3    H157313   5.635   6.364   1.902 -1.1383  0.9710  0.0747
11966TIP3    H257314   5.610   6.439   1.773  1.0733  3.0877  0.7891
11967TIP3   OH257315   5.852   1.847  10.889  0.1716  0.1171  0.2756
11967TIP3    H157316   5.930   1.821  10.939 -0.2609 -1.8033  0.0263
11967TIP3    H257317   5.842   1.778  10.824 -0.9641  1.0628 -0.5851
11968TIP3   OH257318   5.709   3.650   5.120 -0.0703 -0.3636  0.1114
11968TIP3    H157319   5.701   3.591   5.045  1.5236  0.1379 -0.4951
11968TIP3    H257320   5.782   3.614   5.171  0.1834  0.4525  0.3360
11969TIP3   OH257321   3.233   5.362   1.306 -0.4796  0.2115  0.0578
11969TIP3    H157322   3.223   5.376   1.212  0.8290  0.9447 -0.0023
11969TIP3    H257323   3.229   5.268   1.317 -1.5850  0.1628 -0.6076
11970TIP3   OH257324   1.117   0.144  12.410 -0.3144 -0.0303  0.9182
11970TIP3    H157325   1.048   0.106  12.356  0.0482  2.0356 -1.1194
11970TIP3    H257326   1.195   0.091  12.391 -0.4937 -0.1131  0.4105
11971TIP3   OH257327   0.995   1.641  12.445  0.2008 -0.2492 -0.1559
11971TIP3    H157328   0.951   1.617  12.526  1.2769  1.5566  1.0233
11971TIP3    H257329   1.030   1.729  12.461  1.6651 -0.4059 -2.0757
11972TIP3   OH257330   4.142   2.476   5.052  0.3588  0.2060  0.1783
11972TIP3    H157331   4.211   2.459   5.116  1.3793  2.4925 -0.2093
11972TIP3    H257332   4.064   2.493   5.105  0.7709  0.3095  0.7681
11973TIP3   OH257333   4.968   3.132   0.696  0.3257  0.1345 -0.0903
11973TIP3    H157334   4.900   3.107   0.633  0.1804  1.5405 -0.5250
11973TIP3    H257335   4.944   3.086   0.776 -1.1455  0.5909 -0.2359
11974TIP3   OH257336   6.631   3.727  16.963  0.5506  0.4163  0.2984
11974TIP3    H157337   6.584   3.750  17.044 -1.0474 -0.5751 -0.2904
11974TIP3    H257338   6.573   3.758  16.893  2.4028  2.2296 -0.5305
11975TIP3   OH257339   1.224   6.299  16.223 -0.2254 -0.3289  0.2246
11975TIP3    H157340   1.313   6.333  16.232 -0.6110  1.3550 -1.6928
11975TIP3    H257341   1.170   6.356  16.279 -0.5987  1.1693 -1.5659
11976TIP3   OH257342   2.577   5.427  12.222  0.0306 -0.3288 -0.3961
11976TIP3    H157343   2.523   5.348  12.217  0.3504 -0.6209  0.6901
11976TIP3    H257344   2.531   5.490  12.166 -1.1118 -0.7661  0.0173
11977TIP3   OH257345   0.944   4.009  16.037 -0.3434 -0.3137 -0.1111
11977TIP3    H157346   0.973   3.936  16.092 -0.2436 -1.0230 -1.0871
11977TIP3    H257347   1.002   4.081  16.062  0.6788 -1.0337 -0.3127
11978TIP3   OH257348   0.207   6.235  11.794  0.3106  0.1289 -0.0358
11978TIP3    H157349   0.295   6.213  11.825  0.3179  1.6849  1.1806
11978TIP3    H257350   0.174   6.296  11.859 -0.0665  2.8984 -2.6202
11979TIP3   OH257351   3.416   6.737  15.835  0.3531  0.3754  0.5050
11979TIP3    H157352   3.430   6.656  15.786 -0.0448  1.0134 -0.7180
11979TIP3    H257353   3.327   6.765  15.810  1.0524  1.9794 -0.3415
11980TIP3   OH257354   4.592   3.939   4.836  0.2321 -0.4124  0.3354
11980TIP3    H157355   4.499   3.957   4.848  0.5392  2.0138 -0.4517
11980TIP3    H257356   4.601   3.920   4.743  0.5026 -0.7313  0.4272
11981TIP3   OH257357   5.474   5.602   2.309 -0.3283 -1.2927  0.2970
11981TIP3    H157358   5.494   5.692   2.285 -1.1416 -1.3138 -0.4957
11981TIP3    H257359   5.516   5.590   2.395  0.2626 -0.3517  0.1498
11982TIP3   OH257360   5.035   0.057   2.300  0.6881  0.4146  0.3774
11982TIP3    H157361   5.106   0.093   2.247  1.4711 -0.4484  0.8075
11982TIP3    H257362   4.981   0.132   2.323 -0.9701  0.6051 -3.4542
11983TIP3   OH257363   0.370   6.210  12.770  0.0517  0.4293 -0.3519
11983TIP3    H157364   0.365   6.118  12.744  1.1918  0.4835 -0.8526
11983TIP3    H257365   0.334   6.258  12.695  0.5103  0.4359 -0.5737
11984TIP3   OH257366   6.306   4.652   1.703 -0.3096  0.4060  0.5562
11984TIP3    H157367   6.230   4.685   1.752 -0.3498 -0.0416  0.8008
11984TIP3    H257368   6.292   4.683   1.614 -1.0317 -0.0771  0.4941
11985TIP3   OH257369   2.312   0.920   4.215  0.3040 -0.5886  0.7036
11985TIP3    H157370   2.357   1.001   4.238  0.2444 -0.4312  0.2694
11985TIP3    H257371   2.347   0.896   4.129 -0.3078 -0.5588  0.4431
11986TIP3   OH257372   3.086   2.423   1.612 -0.2749  0.1913 -0.3490
11986TIP3    H157373   3.017   2.421   1.547 -0.6518 -2.3909  0.0198
11986TIP3    H257374   3.040   2.429   1.696 -0.1972 -2.2638 -0.0564
11987TIP3   OH257375   2.547   3.877   4.001  0.9710  0.2417 -0.1797
11987TIP3    H157376   2.589   3.798   3.967 -2.1653 -1.2187 -1.1038
11987TIP3    H257377   2.519   3.853   4.090 -0.5112  0.0119 -0.6736
11988TIP3   OH257378   2.168   5.393   6.169  0.0059  0.6466 -0.8849
11988TIP3    H157379   2.134   5.303   6.166 -0.9767  1.0145 -1.0882
11988TIP3    H257380   2.132   5.429   6.250  0.6909  0.7468 -0.6243
11989TIP3   OH257381   2.130   4.287  13.048  0.0800 -0.2424  0.3275
11989TIP3    H157382   2.035   4.277  13.051  0.1929 -2.2886 -0.8569
11989TIP3    H257383   2.145   4.349  12.976 -0.3447 -0.1167  0.3465
11990TIP3   OH257384   2.826   0.015  14.641 -0.7116 -0.2463 -0.4165
11990TIP3    H157385   2.770   0.067  14.584  0.2040 -1.1501 -2.2021
11990TIP3    H257386   2.902   0.070  14.657 -1.5840  0.5877  1.2134
11991TIP3   OH257387   6.577   1.567   2.871  0.3555  0.2922 -0.4613
11991TIP3    H157388   6.637   1.581   2.798  0.9582 -0.3786 -0.1170
11991TIP3    H257389   6.604   1.631   2.937  2.0226 -1.2354  0.4607
11992TIP3   OH257390   3.963   3.331   1.275 -0.0231  0.1427 -0.2504
11992TIP3    H157391   3.892   3.383   1.238 -0.1971  0.8597  1.0154
11992TIP3    H257392   3.920   3.278   1.344  0.7504  1.0860  0.9956
11993TIP3   OH257393   6.703   3.401  10.982  0.4293  0.7319  0.0093
11993TIP3    H157394   6.630   3.383  11.041 -1.7820  0.5476 -2.5877
11993TIP3    H257395   6.703   3.496  10.972  1.4633  0.8596  1.0218
11994TIP3   OH257396   1.917   3.779  12.736  0.7386  0.6006 -0.0105
11994TIP3    H157397   1.927   3.862  12.783  1.3328 -0.2549  1.4382
11994TIP3    H257398   1.942   3.712  12.800 -1.8358 -0.8732 -0.3717
11995TIP3   OH257399   2.989   4.792   0.976  0.1083  0.3390  0.5667
11995TIP3    H157400   2.999   4.881   0.941 -1.5901 -0.1226 -1.3343
11995TIP3    H257401   2.925   4.801   1.046  0.6469  0.7362  1.0156
11996TIP3   OH257402   6.598   5.430  11.247 -0.8287 -0.4366  0.4066
11996TIP3    H157403   6.528   5.440  11.311 -0.7576 -0.3212  0.4669
11996TIP3    H257404   6.614   5.519  11.214 -0.7301 -0.4658  0.3736
11997TIP3   OH257405   0.423   4.753   1.006 -0.4521 -0.0205  0.0651
11997TIP3    H157406   0.502   4.777   0.957  1.6254 -0.1248  3.0623
11997TIP3    H257407   0.418   4.658   0.999 -1.1344  0.0909 -1.2141
11998TIP3   OH257408   4.759   0.654  12.342 -0.1822 -0.4838 -0.4865
11998TIP3    H157409   4.833   0.708  12.316 -1.0038  0.1556 -1.5949
11998TIP3    H257410   4.748   0.592  12.271 -1.5754  0.3600 -1.0587
11999TIP3   OH257411   3.928   3.373   5.722 -0.1988  0.1873 -0.5969
11999TIP3    H157412   3.856   3.430   5.695 -1.9801 -1.3619  0.5849
11999TIP3    H257413   3.890   3.318   5.791  2.3111 -0.3021  0.5061
12000TIP3   OH257414   3.202   3.523   4.794 -0.8140 -0.2674  0.2920
12000TIP3    H157415   3.175   3.615   4.799  0.4622  0.1851 -0.6650
12000TIP3    H257416   3.297   3.526   4.786 -0.9046 -1.4725 -3.0404
12001TIP3   OH257417   3.911   4.836  14.728  0.2588 -0.4011  0.4019
12001TIP3    H157418   3.995   4.839  14.774  0.8999 -0.9419 -0.6751
12001TIP3    H257419   3.895   4.742  14.713 -0.5724 -0.3058  0.6557
12002TIP3   OH257420   1.860   5.484   0.624  0.3747  0.3586  0.1924
12002TIP3    H157421   1.955   5.475   0.616  0.4472  0.2359  1.0923
12002TIP3    H257422   1.848   5.564   0.675  0.0326 -0.1669  0.9462
12003TIP3   OH257423   6.248   3.664   3.240  0.2820  0.2452  0.0300
12003TIP3    H157424   6.315   3.598   3.222 -0.4391 -0.5621  0.2993
12003TIP3    H257425   6.298   3.746   3.249  0.9573  0.2262 -2.7898
12004TIP3   OH257426   5.625   0.149   4.700 -0.0062  0.1196 -0.0494
12004TIP3    H157427   5.705   0.140   4.648  1.4388 -2.7573  2.3645
12004TIP3    H257428   5.557   0.107   4.647  1.1135 -1.5315 -0.2305
12005TIP3   OH257429   1.039   0.628  15.333  0.0537  0.1092  0.2951
12005TIP3    H157430   1.080   0.714  15.348  0.9296 -0.5835  2.2292
12005TIP3    H257431   0.963   0.647  15.279  0.9761  1.9280 -0.4682
12006TIP3   OH257432   4.040   6.333  12.149  0.0909  0.0077  0.1621
12006TIP3    H157433   4.099   6.267  12.186  0.1330  0.8282  1.6033
12006TIP3    H257434   4.071   6.345  12.059  2.3172  0.6058  0.9458
12007TIP3   OH257435   6.539   1.296   1.172  0.2784 -0.0581  0.2498
12007TIP3    H157436   6.618   1.257   1.210 -0.4831 -1.4128  0.4848
12007TIP3    H257437   6.560   1.305   1.079  1.0237  0.4227  0.4516
12008TIP3   OH257438   6.176   1.519   4.065 -0.2290 -0.6421  0.1866
12008TIP3    H157439   6.189   1.610   4.089 -1.3659 -0.6725  0.9936
12008TIP3    H257440   6.253   1.473   4.098  0.0002 -0.0920  0.4179
12009TIP3   OH257441   2.014   3.146   0.978 -0.3219  0.0128 -0.2910
12009TIP3    H157442   2.095   3.159   1.028 -0.3560  1.9978 -0.6588
12009TIP3    H257443   1.978   3.064   1.012  0.2329  0.6879  2.1221
12010TIP3   OH257444   2.990   1.821  13.852 -0.0820 -0.5812 -0.1328
12010TIP3    H157445   3.074   1.824  13.897 -1.2361 -0.5562  2.1593
12010TIP3    H257446   2.991   1.896  13.793  1.0457  0.1330  0.7640
12011TIP3   OH257447   0.044   2.855  14.242  0.8909  0.1193 -0.2989
12011TIP3    H157448  -0.037   2.874  14.196  0.5628 -0.1036  0.1825
12011TIP3    H257449   0.030   2.889  14.330  1.8275  1.3166 -0.5791
12012TIP3   OH257450   6.722   0.174  13.421 -0.1597  0.0230 -0.2417
12012TIP3    H157451   6.758   0.103  13.367  1.2047  0.9529 -0.5850
12012TIP3    H257452   6.780   0.248  13.406 -1.2937  1.1011  0.4772
12013TIP3   OH257453   1.702   0.339  14.598 -0.6357  0.1287 -0.4096
12013TIP3    H157454   1.656   0.390  14.664 -0.5769  0.0134 -0.2796
12013TIP3    H257455   1.640   0.334  14.525 -0.4855  0.7236 -0.5815
12014TIP3   OH257456   5.185   1.419  10.397 -0.1317 -0.0477 -0.0648
12014TIP3    H157457   5.165   1.361  10.324  0.5093  0.1269 -0.3894
12014TIP3    H257458   5.273   1.393  10.424 -0.7644 -0.8463  1.3638
12015TIP3   OH257459   0.648   2.293  11.788 -0.2684  0.4086  0.0730
12015TIP3    H157460   0.708   2.226  11.821 -1.4675 -0.5821  0.3222
12015TIP3    H257461   0.697   2.375  11.795  1.1070 -0.3837  0.0904
12016TIP3   OH257462   3.090   0.130  13.622  0.0971  0.8340 -0.1262
12016TIP3    H157463   3.103   0.158  13.531  0.4426  2.0789  0.2876
12016TIP3    H257464   3.111   0.208  13.674  0.6107 -0.0851  1.0637
12017TIP3   OH257465   3.831   2.786   4.580 -0.1704  0.3693  0.2079
12017TIP3    H157466   3.744   2.797   4.541 -0.4161 -0.0233  0.6214
12017TIP3    H257467   3.885   2.854   4.540 -0.8822  1.1517  0.5425
12018TIP3   OH257468   5.758   3.749   2.014 -0.4876  0.0559 -0.1683
12018TIP3    H157469   5.747   3.842   2.032  0.2435  0.1636 -0.2589
12018TIP3    H257470   5.842   3.743   1.968 -0.2160 -0.7114  0.4028
12019TIP3   OH257471   3.180   6.579  15.086  0.5354  0.2141  0.1446
12019TIP3    H157472   3.252   6.538  15.133 -0.8771 -3.1654 -0.3433
12019TIP3    H257473   3.155   6.515  15.019 -1.1642  2.4335 -1.5058
12020TIP3   OH257474   1.000   4.906   5.196 -0.6069 -0.3271 -0.3205
12020TIP3    H157475   0.977   4.973   5.132  0.3546 -0.9834 -1.3848
12020TIP3    H257476   1.093   4.890   5.182 -0.4539 -0.7299  1.0278
12021TIP3   OH257477   2.389   1.216  13.565  0.0804 -0.5422 -0.4150
12021TIP3    H157478   2.424   1.280  13.503  0.6754 -0.1188  0.3441
12021TIP3    H257479   2.297   1.205  13.539  0.2235 -0.0820 -1.1295
12022TIP3   OH257480   0.302   4.096  15.023  0.5539  0.1619 -0.1208
12022TIP3    H157481   0.339   4.129  15.104 -0.4967  1.8696 -0.2891
12022TIP3    H257482   0.208   4.085  15.041 -0.0097  2.0713 -1.4603
12023TIP3   OH257483   1.603   6.283  13.703 -0.0510 -0.4392  0.6270
12023TIP3    H157484   1.538   6.346  13.671  0.9174  0.5951  0.6580
12023TIP3    H257485   1.558   6.198  13.696 -1.6521  0.3007  1.2754
12024TIP3   OH257486   5.382   5.654   4.825 -0.8589 -0.3905 -0.1164
12024TIP3    H157487   5.416   5.646   4.914  2.9398 -0.3829 -1.4112
12024TIP3    H257488   5.367   5.564   4.797 -0.7749 -0.4564  0.0464
12025TIP3   OH257489   0.909   4.412   3.259  0.1296 -0.2272 -0.2657
12025TIP3    H157490   0.898   4.442   3.349  0.6198 -2.6627  0.6840
12025TIP3    H257491   0.866   4.479   3.206 -0.8730  0.8833  1.8243
12026TIP3   OH257492   0.179   6.430  16.838  0.1901  0.0276  0.0513
12026TIP3    H157493   0.237   6.405  16.910  0.6143  0.0658 -0.2742
12026TIP3    H257494   0.092   6.431  16.877  0.4683  0.4894  0.6730
12027TIP3   OH257495   2.137   0.376  13.850 -0.0781  0.2933 -0.6557
12027TIP3    H157496   2.191   0.340  13.920 -1.7750  0.0375  0.5743
12027TIP3    H257497   2.170   0.333  13.771  0.7094 -0.7687  0.2138
12028TIP3   OH257498   5.693   0.688  11.720  0.4821 -0.6465  0.2171
12028TIP3    H157499   5.778   0.647  11.733  1.4051  0.9876 -0.3793
12028TIP3    H257500   5.634   0.615  11.699  2.6151 -1.5515 -3.6297
12029TIP3   OH257501   5.741   4.814   0.759  0.4966 -0.1667  0.1013
12029TIP3    H157502   5.704   4.725   0.758  0.3511 -0.1053 -0.6444
12029TIP3    H257503   5.783   4.824   0.674  0.1366  0.6385  0.0072
12030TIP3   OH257504   5.819   0.380   0.305  0.0597 -0.3769 -0.0891
12030TIP3    H157505   5.830   0.410   0.214  3.1583  0.1524  0.3336
12030TIP3    H257506   5.804   0.286   0.297  3.0230 -0.8604 -1.1945
12031TIP3   OH257507   5.395   3.442  11.413 -0.4645  0.6380  0.3814
12031TIP3    H157508   5.486   3.453  11.443 -0.1753 -0.1784 -0.1636
12031TIP3    H257509   5.386   3.347  11.400 -1.1557  0.7968 -0.3256
12032TIP3   OH257510   0.948   5.142   0.118  0.2207 -0.2620 -0.0555
12032TIP3    H157511   0.949   5.052   0.085 -0.4825 -0.5188  0.5875
12032TIP3    H257512   1.006   5.190   0.060 -0.8362 -0.7292 -1.5524
12033TIP3   OH257513   2.207   1.691   0.842 -0.4060 -0.0745 -0.2689
12033TIP3    H157514   2.149   1.762   0.814 -0.2356  0.3560  0.4366
12033TIP3    H257515   2.247   1.659   0.762 -1.7486 -0.4940 -0.7989
12034TIP3   OH257516   2.232   3.170  16.294 -0.2671  0.0648 -0.0406
12034TIP3    H157517   2.209   3.078  16.280  0.3458 -0.1372  0.2392
12034TIP3    H257518   2.166   3.219  16.245  1.8470 -0.5658 -3.9160
12035TIP3   OH257519   0.597   4.004  15.953  0.1199 -0.1173  0.5103
12035TIP3    H157520   0.536   4.071  15.984  0.6074  0.0880  1.0306
12035TIP3    H257521   0.632   3.965  16.033 -0.5761 -1.3936  0.2324
12036TIP3   OH257522   0.886   3.051  13.454  0.5479  0.0868 -0.1520
12036TIP3    H157523   0.950   3.012  13.394 -0.6542 -1.4665 -0.5054
12036TIP3    H257524   0.871   2.984  13.520  0.4132  1.0346  0.8025
12037TIP3   OH257525   4.990   2.511   2.341 -0.3327  0.5166 -0.2707
12037TIP3    H157526   5.079   2.546   2.349 -0.8340  2.0890 -1.1329
12037TIP3    H257527   4.985   2.444   2.409  1.4805  0.4349 -0.1521
12038TIP3   OH257528   3.244   4.838   5.359  0.0181  0.1324  0.0523
12038TIP3    H157529   3.169   4.805   5.408  0.3620  0.1523  0.6032
12038TIP3    H257530   3.209   4.910   5.307 -0.2224  0.5374  0.7646
12039TIP3   OH257531   2.021   0.066   6.255  0.5378  0.0234 -0.3962
12039TIP3    H157532   2.056   0.128   6.319 -0.8816  0.4280  0.0296
12039TIP3    H257533   1.927   0.064   6.273  0.3191 -0.9562 -1.5359
12040TIP3   OH257534   1.940   3.870   4.794 -0.0841 -0.2550  0.2494
12040TIP3    H157535   1.893   3.790   4.816  0.1805 -0.1419  1.2801
12040TIP3    H257536   1.901   3.938   4.849 -0.0915  0.2655 -0.3809
12041TIP3   OH257537   5.406   3.228  13.590 -0.2748  0.7198  0.0658
12041TIP3    H157538   5.424   3.322  13.581  0.1162  0.6239 -0.2116
12041TIP3    H257539   5.334   3.212  13.529 -0.1152  0.7764 -0.1386
12042TIP3   OH257540   2.562   4.112   0.240 -0.1144  0.7634  0.6924
12042TIP3    H157541   2.537   4.162   0.317 -0.4623  1.3221  0.2321
12042TIP3    H257542   2.481   4.104   0.189  0.5540  2.5214 -0.7812
12043TIP3   OH257543   5.020   4.152   1.882  0.2862  0.1728  0.0967
12043TIP3    H157544   5.093   4.089   1.881 -1.6801 -2.2853 -0.6478
12043TIP3    H257545   5.020   4.191   1.795  1.2597  0.8936  0.4129
12044TIP3   OH257546   4.635   5.818   5.603  0.3226  0.5841 -0.1008
12044TIP3    H157547   4.552   5.798   5.560  0.8486  0.3730 -1.0306
12044TIP3    H257548   4.667   5.734   5.635  0.8072  0.4456 -0.9070
12045TIP3   OH257549   6.663   5.721   0.946 -0.3932 -0.3910 -0.3453
12045TIP3    H157550   6.650   5.629   0.971  2.7354 -0.4200  1.7217
12045TIP3    H257551   6.703   5.761   1.022 -1.7098  2.7952 -1.1753
12046TIP3   OH257552   4.957   0.416   4.897  0.2787 -0.1737 -0.1778
12046TIP3    H157553   4.867   0.418   4.928  0.2460  1.5392 -0.2954
12046TIP3    H257554   4.951   0.426   4.802  0.5969  1.1706 -0.0849
12047TIP3   OH257555   0.830   2.197   1.689  0.2459 -0.0599  0.0121
12047TIP3    H157556   0.900   2.223   1.748  0.4592 -1.3434  0.3743
12047TIP3    H257557   0.857   2.229   1.603  0.9658  0.0051  0.2583
12048TIP3   OH257558   4.238   5.659  16.735  0.0163  0.6924  0.1221
12048TIP3    H157559   4.173   5.630  16.798  0.4282  0.0506  0.2622
12048TIP3    H257560   4.219   5.610  16.655  1.1886 -0.5816  0.5956
12049TIP3   OH257561   1.575   1.092   4.780  0.3172 -0.2463  0.3101
12049TIP3    H157562   1.656   1.043   4.763  1.1435  1.1402  0.1326
12049TIP3    H257563   1.568   1.094   4.876  0.6227 -0.1747  0.3316
12050TIP3   OH257564   5.299   3.124   3.553 -0.4245 -0.3055  0.5136
12050TIP3    H157565   5.313   3.197   3.615  0.5664 -0.9540  1.0882
12050TIP3    H257566   5.217   3.145   3.509  0.2511  1.5893  0.0683
12051TIP3   OH257567   2.940   4.716  15.097  0.7438  0.3888  0.0034
12051TIP3    H157568   3.000   4.679  15.162 -0.0913 -0.3325  0.3868
12051TIP3    H257569   2.948   4.659  15.021  2.2946  1.6762 -0.8548
12052TIP3   OH257570   4.977   2.623  12.478 -0.1689 -0.4740 -0.0369
12052TIP3    H157571   5.062   2.600  12.514 -0.3841 -0.0273  0.7835
12052TIP3    H257572   4.914   2.596  12.545 -0.8476 -2.4742 -1.3893
12053TIP3   OH257573   0.643   2.118  12.090 -0.0257 -0.4113 -0.1610
12053TIP3    H157574   0.728   2.152  12.061 -0.1189  0.4446  0.5097
12053TIP3    H257575   0.630   2.159  12.176 -0.8836 -0.9382 -0.0349
12054TIP3   OH257576   0.437   3.655   3.065 -0.6007  0.0916  0.0842
12054TIP3    H157577   0.362   3.652   3.124 -0.0996 -1.0877  0.6946
12054TIP3    H257578   0.491   3.581   3.092  1.1706  1.3602  0.1583
12055TIP3   OH257579   0.728   3.204  15.009 -0.2547 -0.2074  0.0388
12055TIP3    H157580   0.687   3.240  15.087 -1.9551 -1.6330 -0.1393
12055TIP3    H257581   0.677   3.126  14.989  2.0271 -1.6126 -0.7236
12056TIP3   OH257582   5.345   2.435  13.140 -0.2843 -0.0540  0.5261
12056TIP3    H157583   5.328   2.528  13.128 -0.5898 -0.3582 -2.1091
12056TIP3    H257584   5.420   2.431  13.199  1.8601  2.0520 -1.8132
12057TIP3   OH257585   1.127   6.396  12.157 -0.3416 -0.8542  0.1152
12057TIP3    H157586   1.157   6.481  12.124  1.2173 -1.6232 -0.5530
12057TIP3    H257587   1.033   6.409  12.172 -0.4106  0.6125 -1.2011
12058TIP3   OH257588   6.445   4.247   4.273  0.4837 -0.3350  0.0004
12058TIP3    H157589   6.443   4.160   4.232  0.9256 -1.2033  1.7516
12058TIP3    H257590   6.354   4.264   4.298  0.5057 -0.5809  0.2476
12059TIP3   OH257591   2.716   5.937   1.752  0.3703 -0.4093 -0.3434
12059TIP3    H157592   2.671   5.978   1.677 -0.6019 -0.6891  0.0624
12059TIP3    H257593   2.651   5.878   1.788  0.6569  0.0760  1.0103
12060TIP3   OH257594   0.202   5.740   4.533 -0.4162  0.4400 -0.1442
12060TIP3    H157595   0.159   5.666   4.575  1.7612 -0.0089  1.4326
12060TIP3    H257596   0.272   5.701   4.481  0.4127  1.3561  0.2595
12061TIP3   OH257597   6.664   3.047  14.888  0.4664 -0.1868  0.0721
12061TIP3    H157598   6.696   3.131  14.923  1.0967 -0.5013  0.2785
12061TIP3    H257599   6.587   3.070  14.837 -0.4985  0.2976  1.6743
12062TIP3   OH257600   6.689   6.619  11.326  0.1564 -0.2670 -0.3448
12062TIP3    H157601   6.764   6.582  11.372  0.2172  0.5345  0.2304
12062TIP3    H257602   6.639   6.543  11.296  1.1303 -0.8084 -0.6431
12063TIP3   OH257603   5.305   0.864  15.468 -0.7781  0.5135 -1.1539
12063TIP3    H157604   5.332   0.864  15.376 -2.4207 -1.5844 -1.7209
12063TIP3    H257605   5.268   0.952  15.482 -0.1104  1.0134 -2.3413
12064TIP3   OH257606   4.235   0.531   5.329 -0.1172  0.0143  0.0716
12064TIP3    H157607   4.201   0.601   5.384 -1.0933 -0.3305 -0.0720
12064TIP3    H257608   4.157   0.490   5.292  0.4107 -1.3491  0.3985
12065TIP3   OH257609   1.730   2.625  10.527 -0.3799 -0.2111  0.3843
12065TIP3    H157610   1.646   2.669  10.515 -0.0443  0.5091  0.6548
12065TIP3    H257611   1.741   2.621  10.622  0.1602  0.2172  0.3425
12066TIP3   OH257612   5.074   3.092   5.127  0.0650 -0.2947  0.0277
12066TIP3    H157613   5.082   3.026   5.058  0.6727  1.2267 -1.4222
12066TIP3    H257614   5.160   3.094   5.169 -0.6977 -2.2219  1.8805
12067TIP3   OH257615   0.631   3.679   2.837 -0.4997  0.0647  0.2763
12067TIP3    H157616   0.629   3.774   2.827 -0.5822  0.0232 -0.1521
12067TIP3    H257617   0.577   3.661   2.914  0.1671  0.4158  0.8367
12068TIP3   OH257618   6.454   5.061   2.375  0.7769 -0.0928  0.0534
12068TIP3    H157619   6.380   5.024   2.327 -0.3984 -2.4700  3.2974
12068TIP3    H257620   6.447   5.155   2.362 -2.0804 -0.3314 -0.8044
12069TIP3   OH257621   6.610   3.419   1.551 -0.2320  0.2565  0.4143
12069TIP3    H157622   6.567   3.349   1.600  1.8821  1.0128  3.7134
12069TIP3    H257623   6.703   3.394   1.550 -0.0217  0.7978 -2.5157
12070TIP3   OH257624   1.749   4.227   2.214 -0.4767 -0.2476  0.2405
12070TIP3    H157625   1.780   4.145   2.254 -1.2858 -0.5980  0.1705
12070TIP3    H257626   1.778   4.295   2.274 -0.3479 -0.6455  0.6391
12071TIP3   OH257627   5.570   4.154   5.402 -0.5595 -0.6025 -0.6212
12071TIP3    H157628   5.547   4.136   5.493  0.7448 -1.7428 -0.4898
12071TIP3    H257629   5.612   4.240   5.405  1.2633 -1.4536  0.2213
12072TIP3   OH257630   3.039   6.428  15.630 -0.6159  0.6039 -0.2907
12072TIP3    H157631   2.979   6.483  15.681 -0.9097  0.4794 -0.5046
12072TIP3    H257632   3.006   6.339  15.643 -0.0685  0.4576  0.1536
12073TIP3   OH257633   2.054   6.504   6.265 -0.7879 -0.1800 -0.3486
12073TIP3    H157634   2.039   6.598   6.271  1.0154  0.0738  1.4287
12073TIP3    H257635   1.982   6.465   6.315 -2.6666  0.0465 -2.7186
12074TIP3   OH257636   4.694   1.207   0.463  0.2302 -0.4435 -0.2905
12074TIP3    H157637   4.672   1.301   0.461 -0.8795 -0.6941 -1.1411
12074TIP3    H257638   4.787   1.204   0.442  0.1531  0.4459 -0.8348
12075TIP3   OH257639   0.576   1.426   5.291  0.1683 -0.6814  0.4390
12075TIP3    H157640   0.607   1.368   5.361  3.2221  1.2531  0.8675
12075TIP3    H257641   0.585   1.514   5.328  1.6106  0.4011 -2.2285
12076TIP3   OH257642   5.769   1.645  11.226  0.2062 -0.6019  0.6310
12076TIP3    H157643   5.776   1.558  11.188  0.7385 -1.6732  2.9682
12076TIP3    H257644   5.677   1.652  11.254 -0.1207  0.0768 -0.5394
12077TIP3   OH257645   4.566   3.474  15.455  0.4389 -0.4068 -0.1221
12077TIP3    H157646   4.540   3.472  15.363  2.2976 -2.0151 -0.6787
12077TIP3    H257647   4.561   3.383  15.484 -0.8876  0.1693  1.6571
12078TIP3   OH257648   5.650   0.693  12.896  0.3021  0.3207 -0.2307
12078TIP3    H157649   5.625   0.760  12.833  1.0042  0.1922 -0.6526
12078TIP3    H257650   5.745   0.701  12.904  0.4524 -0.8962 -0.6061
12079TIP3   OH257651   3.603   2.568   0.104 -0.0866  0.3337 -0.0763
12079TIP3    H157652   3.582   2.612   0.186  1.6705 -0.4939  0.8962
12079TIP3    H257653   3.699   2.568   0.101 -0.1011  1.1213 -2.5959
12080TIP3   OH257654   5.419   4.915  12.578 -0.1541  0.0278 -0.3468
12080TIP3    H157655   5.383   5.000  12.551 -0.6954 -0.2924 -0.6464
12080TIP3    H257656   5.450   4.876  12.497 -0.4008 -0.2959 -0.2835
12081TIP3   OH257657   1.719   3.637  11.574  0.1496 -0.4266  0.5421
12081TIP3    H157658   1.667   3.573  11.524  1.5553 -3.1940  2.3359
12081TIP3    H257659   1.656   3.677  11.633 -0.4851 -1.6001  0.7017
12082TIP3   OH257660   2.657   1.830  11.242  0.4177  0.5948  0.0497
12082TIP3    H157661   2.610   1.750  11.219  1.5994  0.0450 -0.4952
12082TIP3    H257662   2.741   1.823  11.196  1.1073  1.4852  1.1366
12083TIP3   OH257663   1.712   5.435  14.336 -0.0656 -0.6228 -0.2362
12083TIP3    H157664   1.618   5.440  14.319 -0.3916 -1.8582  0.9829
12083TIP3    H257665   1.727   5.500  14.405  0.3491  0.8878 -1.6933
12084TIP3   OH257666   6.005   5.465  13.732 -0.0868  0.0379  0.6319
12084TIP3    H157667   6.052   5.393  13.774 -0.5633  0.3167  1.6870
12084TIP3    H257668   6.048   5.476  13.648 -0.3081 -1.7825  0.2464
12085TIP3   OH257669   6.154   6.590  14.072  0.0483 -0.1335  0.1980
12085TIP3    H157670   6.061   6.584  14.093 -0.5951  2.5045 -1.3481
12085TIP3    H257671   6.160   6.558  13.982  0.3218  1.1276 -0.2548
12086TIP3   OH257672   5.844   0.950  16.493  1.0124 -0.4179 -0.3447
12086TIP3    H157673   5.896   0.964  16.413  0.4048  1.4006 -0.4558
12086TIP3    H257674   5.909   0.941  16.563  1.5092  1.0100 -0.6014
12087TIP3   OH257675   4.976   2.374  13.964  0.2422 -0.6191 -0.6981
12087TIP3    H157676   4.931   2.298  14.002  1.6578 -0.6097  1.1369
12087TIP3    H257677   4.920   2.448  13.988 -0.8544 -0.9661 -2.0162
12088TIP3   OH257678   3.612   2.056   1.458 -0.1260  0.7024 -0.1589
12088TIP3    H157679   3.564   1.999   1.518  3.2499 -1.1949  1.0351
12088TIP3    H257680   3.682   2.000   1.423  1.2597  3.2274 -1.7219
12089TIP3   OH257681   3.470   0.559  12.008  0.5808 -0.1241 -0.1503
12089TIP3    H157682   3.545   0.539  11.952  0.5610 -0.9123  0.0936
12089TIP3    H257683   3.504   0.551  12.097  0.1591 -0.7195 -0.0339
12090TIP3   OH257684   1.953   3.976  17.285 -0.6464  0.4720  0.3079
12090TIP3    H157685   1.956   4.000  17.193  0.6123 -0.9665 -0.0614
12090TIP3    H257686   1.883   3.910  17.291  1.0040 -1.4401 -0.1964
12091TIP3   OH257687   3.691   2.998  11.326  0.0032 -0.3343  0.1412
12091TIP3    H157688   3.763   2.976  11.267  0.4985 -1.2648  1.0575
12091TIP3    H257689   3.729   3.062  11.387  0.0187 -0.7362  0.5541
12092TIP3   OH257690   2.312   1.999  16.875 -0.3428  0.5856  0.0144
12092TIP3    H157691   2.288   1.960  16.791 -2.5050 -1.0004  1.2712
12092TIP3    H257692   2.262   1.950  16.940  1.2402  1.7523  2.2696
12093TIP3   OH257693   4.705   3.438   3.259 -0.1184 -0.2963  0.2352
12093TIP3    H157694   4.618   3.448   3.298  0.1420  0.0759  0.7185
12093TIP3    H257695   4.702   3.493   3.181  0.3552  1.3670  1.3451
12094TIP3   OH257696   4.130   1.649  14.293 -0.5591 -0.7598  0.4660
12094TIP3    H157697   4.213   1.682  14.328 -1.0669 -0.2862  1.2402
12094TIP3    H257698   4.095   1.721  14.241 -0.9194 -0.6461  0.8714
12095TIP3   OH257699   0.128   2.906   3.427 -0.1155  0.2545 -0.0806
12095TIP3    H157700   0.162   2.816   3.422 -0.5678  0.1289 -1.3398
12095TIP3    H257701   0.052   2.900   3.485 -1.0896 -0.5253 -1.3727
12096TIP3   OH257702   4.405   3.651  15.584  0.4557 -0.2461  0.7609
12096TIP3    H157703   4.314   3.625  15.572  0.0403  1.9476 -1.5638
12096TIP3    H257704   4.453   3.602  15.518  0.3555  1.2420 -0.4713
12097TIP3   OH257705   6.600   3.595  12.290  0.0145  0.4754  0.2473
12097TIP3    H157706   6.670   3.651  12.259  1.2931  1.0716  3.7518
12097TIP3    H257707   6.625   3.506  12.263  0.8906  0.9528 -0.5344
12098TIP3   OH257708   2.990   4.990  13.277  0.4569  0.0721 -0.0685
12098TIP3    H157709   3.073   5.029  13.304  0.4325  1.0818 -1.3355
12098TIP3    H257710   2.991   4.902  13.314  3.3655 -0.9925 -2.3427
12099TIP3   OH257711   2.070   1.636   6.329  0.0254  0.7132 -0.0031
12099TIP3    H157712   1.999   1.602   6.384  0.0773 -0.1398 -0.4445
12099TIP3    H257713   2.132   1.563   6.322 -0.5486  0.3620 -2.1527
12100TIP3   OH257714   0.740   3.846  15.137 -0.2090  0.0081  0.2548
12100TIP3    H157715   0.701   3.875  15.055 -1.0940  2.0338  1.3325
12100TIP3    H257716   0.808   3.911  15.156  0.2752 -0.6703  0.9101
12101TIP3   OH257717   2.840   1.605  10.666 -0.3814  0.6398  0.1274
12101TIP3    H157718   2.824   1.698  10.685  0.7461  1.0255 -0.7091
12101TIP3    H257719   2.932   1.592  10.687 -0.7639 -0.5478  1.1484
12102TIP3   OH257720   0.935   2.449   6.935  0.3093  0.0306 -0.1437
12102TIP3    H157721   0.913   2.435   7.027  1.1734 -0.3941  0.0044
12102TIP3    H257722   0.850   2.463   6.892 -0.3037 -1.9168  0.3403
12103TIP3   OH257723   3.114   2.921   5.609  0.2199 -0.3876  0.3387
12103TIP3    H157724   3.095   2.941   5.700  1.8043 -0.9859  0.8314
12103TIP3    H257725   3.209   2.916   5.605  0.1515 -0.9132 -1.2351
12104TIP3   OH257726   5.468   3.006   6.995  0.7988 -0.5676 -0.1845
12104TIP3    H157727   5.421   2.924   7.009 -0.2210 -0.2526 -1.6153
12104TIP3    H257728   5.503   3.000   6.907 -0.3627  1.0148 -0.8146
12105TIP3   OH257729   3.802   5.900   4.626 -0.4097 -0.0894 -0.1871
12105TIP3    H157730   3.793   5.835   4.557  0.9995  0.6081 -1.0802
12105TIP3    H257731   3.889   5.883   4.663  0.1976  1.5713 -0.7741
12106TIP3   OH257732   2.430   6.662   1.979  0.4209 -0.2990  0.2292
12106TIP3    H157733   2.416   6.668   2.073  1.7416 -1.2599  0.5263
12106TIP3    H257734   2.496   6.730   1.960  1.1488 -0.9787  0.2566
12107TIP3   OH257735   3.992   1.715  11.343  0.4496  0.2107 -0.1127
12107TIP3    H157736   3.938   1.661  11.400  0.5137  0.4969  0.2247
12107TIP3    H257737   3.936   1.788  11.317  1.1517  1.4250  1.5971
12108TIP3   OH257738   1.997   1.309  11.759  0.1667  0.4341 -0.2405
12108TIP3    H157739   1.922   1.316  11.819 -0.4399 -0.2612 -0.8970
12108TIP3    H257740   1.990   1.221  11.722  0.3586  0.9582 -1.5758
12109TIP3   OH257741   0.564   2.256   2.610  0.1325 -0.1750 -0.4484
12109TIP3    H157742   0.531   2.287   2.526  1.6864 -1.1391 -1.4928
12109TIP3    H257743   0.600   2.334   2.653 -0.3656  0.2697 -0.8317
12110TIP3   OH257744   4.879   5.066   2.868  0.0052  0.0964  0.2729
12110TIP3    H157745   4.833   5.071   2.784  0.7430 -0.1619 -0.1485
12110TIP3    H257746   4.836   5.133   2.922  1.0009  1.8552 -1.0311
12111TIP3   OH257747   5.813   2.089   0.496  0.1182  0.0000 -0.0939
12111TIP3    H157748   5.759   2.061   0.570 -2.7917  1.0858 -1.6258
12111TIP3    H257749   5.795   2.025   0.427 -0.5845  1.2915 -1.1606
12112TIP3   OH257750   1.190   0.354  11.332  0.0359 -0.5135 -0.4532
12112TIP3    H157751   1.249   0.280  11.316  1.5838  0.2741  1.1932
12112TIP3    H257752   1.237   0.408  11.395 -0.6045  2.3904 -2.2597
12113TIP3   OH257753   6.738   1.829  12.307  0.2555  0.0129  0.6385
12113TIP3    H157754   6.702   1.910  12.270 -0.0382  0.0572  1.0122
12113TIP3    H257755   6.828   1.826  12.274  0.3063  0.5502  0.7127
12114TIP3   OH257756   3.623   0.504   0.037 -0.5693 -0.0660  0.0766
12114TIP3    H157757   3.571   0.571   0.082 -1.3702 -0.5526 -0.0983
12114TIP3    H257758   3.653   0.548  -0.043 -0.5987  0.2697  0.2482
12115TIP3   OH257759   4.638   6.138  15.552  0.1542  0.1991  0.4884
12115TIP3    H157760   4.548   6.162  15.575  0.5785  1.8503  0.5095
12115TIP3    H257761   4.628   6.059  15.498 -1.3136  0.4383  0.3613
12116TIP3   OH257762   1.600   5.674  15.348 -0.3650  0.4047  0.0423
12116TIP3    H157763   1.575   5.711  15.264 -2.2449 -1.6674 -0.3749
12116TIP3    H257764   1.519   5.669  15.398 -0.1286 -2.4270  0.3146
12117TIP3   OH257765   1.836   6.446   3.223  0.0144 -0.3657  0.6046
12117TIP3    H157766   1.878   6.433   3.308  0.1462  0.4556  0.6786
12117TIP3    H257767   1.750   6.482   3.244  0.0046 -0.2623  0.3936
12118TIP3   OH257768   5.521   2.565  15.515 -0.5612 -0.2330  0.3421
12118TIP3    H157769   5.454   2.520  15.567 -0.7845  0.0348  0.2928
12118TIP3    H257770   5.586   2.498  15.496 -0.4272 -0.3108  1.0505
12119TIP3   OH257771   0.444   3.512   4.904 -0.2902 -0.0193 -0.4420
12119TIP3    H157772   0.462   3.495   4.811 -0.9279  0.9595 -0.7526
12119TIP3    H257773   0.531   3.507   4.946 -0.0629 -0.9583 -0.9956
12120TIP3   OH257774   0.032   0.030  15.114 -0.2619  0.2394 -0.3884
12120TIP3    H157775   0.083   0.054  15.037  1.4228 -0.6445  0.3926
12120TIP3    H257776  -0.057   0.061  15.095  0.5048  1.6738 -1.8806
12121TIP3   OH257777   6.746   1.318   3.929  0.2780 -0.2039 -0.1827
12121TIP3    H157778   6.655   1.287   3.926 -0.3388  1.4641  0.1879
12121TIP3    H257779   6.797   1.244   3.896 -1.1022 -1.5673  0.5598
12122TIP3   OH257780   5.658   6.745   1.523 -0.6260  0.2543  0.2304
12122TIP3    H157781   5.595   6.800   1.571 -0.8141  0.9826 -0.8265
12122TIP3    H257782   5.664   6.785   1.437 -0.7859 -1.4126 -0.6016
12123TIP3   OH257783   1.501   1.897   4.719 -0.0334 -0.1075 -0.1628
12123TIP3    H157784   1.438   1.949   4.769 -1.8058 -0.8855 -1.4631
12123TIP3    H257785   1.585   1.911   4.763 -1.1802  0.6342  1.9173
12124TIP3   OH257786   0.892   4.368   5.108  0.2892 -0.4840 -0.1160
12124TIP3    H157787   0.943   4.330   5.180 -1.0837  1.6064  2.1369
12124TIP3    H257788   0.813   4.314   5.104  0.7590 -1.1474 -0.7132
12125TIP3   OH257789   2.957   5.366  15.919 -0.3077 -0.8373 -1.0555
12125TIP3    H157790   3.008   5.410  15.851  0.7326 -2.6451 -1.5061
12125TIP3    H257791   2.902   5.304  15.871 -0.4417 -1.2875 -0.3361
12126TIP3   OH257792   3.784   0.814   0.046  0.5906  0.2459  0.0365
12126TIP3    H157793   3.785   0.823  -0.049 -0.7047 -0.1087 -0.0247
12126TIP3    H257794   3.711   0.868   0.075  0.4601 -0.2997  0.7558
12127TIP3   OH257795   4.128   0.421  13.032 -0.6554 -0.1212 -0.1031
12127TIP3    H157796   4.063   0.473  13.080 -0.3663 -0.3447  0.5389
12127TIP3    H257797   4.096   0.331  13.039  0.3646 -0.4010  1.3011
12128TIP3   OH257798   4.278   4.611   0.974 -0.0834  0.2852 -0.5284
12128TIP3    H157799   4.344   4.566   1.026 -0.7575  1.1311  1.1313
12128TIP3    H257800   4.305   4.597   0.884  1.6624 -0.4275  0.0648
12129TIP3   OH257801   6.246   5.168   0.044 -0.8585 -0.3476 -0.8887
12129TIP3    H157802   6.186   5.234   0.080 -0.3442 -0.2769 -0.1557
12129TIP3    H257803   6.280   5.209  -0.035 -1.3618 -0.1732 -1.0238
12130TIP3   OH257804   0.644   4.092   2.057 -0.0673 -0.1902  0.5664
12130TIP3    H157805   0.589   4.116   2.132  1.4253  1.6765  1.1288
12130TIP3    H257806   0.685   4.173   2.030  2.5074 -1.4972  0.2507
12131TIP3   OH257807   1.610   2.472  15.483  0.2672 -0.8514  0.7860
12131TIP3    H157808   1.599   2.385  15.446  0.0249 -0.9386  1.0614
12131TIP3    H257809   1.525   2.493  15.522 -0.4557  0.4660 -1.2937
12132TIP3   OH257810   1.113   3.790  10.926  0.1613 -0.3911  0.2115
12132TIP3    H157811   1.017   3.792  10.926  0.1587  1.6734 -0.5471
12132TIP3    H257812   1.135   3.720  10.865 -0.8425 -1.4786  1.0626
12133TIP3   OH257813   4.256   2.541   4.514 -0.3955  0.0347 -0.0860
12133TIP3    H157814   4.293   2.492   4.441 -0.2816  1.3214 -0.9095
12133TIP3    H257815   4.265   2.633   4.490 -3.3903  0.4716  0.0133
12134TIP3   OH257816   1.082   5.934   0.344  0.2658 -0.3000  0.1697
12134TIP3    H157817   1.020   5.889   0.286 -2.4946 -0.0981  2.7408
12134TIP3    H257818   1.103   5.869   0.411 -0.1371  0.7839  1.3828
12135TIP3   OH257819   5.433   4.650  16.719 -0.1225 -0.8845 -0.3941
12135TIP3    H157820   5.507   4.699  16.756 -0.7431  0.6190 -1.0575
12135TIP3    H257821   5.464   4.620  16.633 -0.6921  0.9527 -1.2903
12136TIP3   OH257822   3.307   2.642   3.874 -0.0882 -0.2625  0.0199
12136TIP3    H157823   3.384   2.691   3.905 -0.9124  0.7585  0.5057
12136TIP3    H257824   3.281   2.589   3.949 -0.1065 -0.2999 -0.0130
12137TIP3   OH257825   0.053   0.684  15.105 -0.0048  0.2249 -0.5484
12137TIP3    H157826   0.095   0.638  15.032 -0.1851 -1.7893  0.5364
12137TIP3    H257827   0.042   0.616  15.172 -3.4095  1.0643 -0.0941
12138TIP3   OH257828   3.629   5.158  17.111  0.7221  0.7369  0.3960
12138TIP3    H157829   3.716   5.121  17.096  0.5362  1.0873 -2.1023
12138TIP3    H257830   3.621   5.225  17.043 -1.3601  0.9505  0.8096
12139TIP3   OH257831   2.072   0.508  10.714  0.0019  0.0350 -0.0401
12139TIP3    H157832   2.152   0.548  10.680  1.2572 -1.6113  0.7965
12139TIP3    H257833   2.087   0.414  10.704 -1.9155 -0.3083  0.0112
12140TIP3   OH257834   1.335   3.238  13.365 -0.1878  0.0670 -0.0717
12140TIP3    H157835   1.322   3.328  13.395  0.8362  0.8222 -1.7532
12140TIP3    H257836   1.260   3.222  13.307 -0.0050  0.1000 -0.3196
12141TIP3   OH257837   2.377   0.141   5.442  0.5078  0.3584  0.6354
12141TIP3    H157838   2.327   0.137   5.523 -0.7988 -0.0128 -0.1559
12141TIP3    H257839   2.395   0.049   5.420  0.9485  0.4605  0.5517
12142TIP3   OH257840   0.189   4.570   6.351  0.4934  0.4543  0.3441
12142TIP3    H157841   0.233   4.525   6.279  1.6743  0.0721  1.2697
12142TIP3    H257842   0.147   4.500   6.401  1.1821  0.4996  1.0126
12143TIP3   OH257843   5.450   1.459  13.378  0.2768  0.5586 -0.5833
12143TIP3    H157844   5.432   1.495  13.291  0.8346 -1.1567 -1.4494
12143TIP3    H257845   5.501   1.528  13.422  0.7336  1.1152 -1.9211
12144TIP3   OH257846   4.026   6.021   2.773 -0.1262  0.6004  0.1248
12144TIP3    H157847   4.095   6.082   2.748  0.6947 -0.7001 -0.8940
12144TIP3    H257848   4.068   5.935   2.773 -1.4556 -0.0810  0.6846
12145TIP3   OH257849   6.666   6.327   4.270  0.2912  0.2812  0.3740
12145TIP3    H157850   6.674   6.349   4.362 -2.6666 -0.3907  0.8881
12145TIP3    H257851   6.654   6.232   4.269  0.9627  0.1886 -0.7871
12146TIP3   OH257852   3.471   0.973  12.880 -0.0123  0.2792  0.2656
12146TIP3    H157853   3.376   0.984  12.881 -0.0642  0.1347  2.5489
12146TIP3    H257854   3.505   1.058  12.852 -0.8019  0.0794 -1.3769
12147TIP3   OH257855   4.431   4.950  15.230  0.1250  0.0456 -0.4609
12147TIP3    H157856   4.506   4.998  15.265  0.4724 -0.1557 -0.9270
12147TIP3    H257857   4.448   4.859  15.254  0.1204 -0.0244 -0.7223
12148TIP3   OH257858   3.070   1.411   5.998  0.1153 -0.1701 -0.1444
12148TIP3    H157859   3.089   1.318   6.009 -0.8012 -0.3079  0.3529
12148TIP3    H257860   2.988   1.425   6.045 -0.9435  0.4344 -2.0694
12149TIP3   OH257861   1.514   3.153  15.557  0.3249  0.7929  0.1829
12149TIP3    H157862   1.476   3.075  15.518 -0.7117  1.2077  0.3123
12149TIP3    H257863   1.575   3.121  15.622  2.0020  0.0833 -1.6535
12150TIP3   OH257864   3.579   4.210  12.720  0.2280  0.0080 -0.0303
12150TIP3    H157865   3.571   4.115  12.728 -0.4360  0.1749  1.6604
12150TIP3    H257866   3.667   4.224  12.686  0.6288 -1.1857  0.4623
12151TIP3   OH257867   6.704   0.322   1.952  0.4892 -0.1708 -0.4320
12151TIP3    H157868   6.700   0.417   1.959  1.4027 -0.2071  1.4827
12151TIP3    H257869   6.613   0.293   1.952  0.2059  0.6560  0.6805
12152TIP3   OH257870   3.849   3.183  12.799  0.1241  0.4791  0.2793
12152TIP3    H157871   3.809   3.096  12.799 -1.7080  1.2067 -1.8438
12152TIP3    H257872   3.849   3.209  12.891 -1.7008 -0.7674  0.6883
12153TIP3   OH257873   1.806   3.350   2.195 -0.2429  0.0775  0.2454
12153TIP3    H157874   1.728   3.356   2.251  0.7508  3.1228  1.5222
12153TIP3    H257875   1.772   3.357   2.106 -1.5298 -0.1867  0.6846
12154TIP3   OH257876   5.687   0.503  13.718  0.6547  0.4092 -0.3126
12154TIP3    H157877   5.638   0.436  13.671  1.1434  0.4003 -0.8115
12154TIP3    H257878   5.708   0.463  13.802 -0.3114  0.4631 -0.0240
12155TIP3   OH257879   3.335   4.939   0.058  1.0667 -0.2657 -0.1436
12155TIP3    H157880   3.344   4.973   0.147 -1.3446 -0.5391  0.2905
12155TIP3    H257881   3.371   4.851   0.061  1.1700 -0.2014  0.5203
12156TIP3   OH257882   2.102   5.211   2.559 -0.3984 -0.0373  0.0770
12156TIP3    H157883   2.093   5.145   2.628 -2.2924  0.6725  0.5962
12156TIP3    H257884   2.067   5.169   2.481  0.1449 -0.2698 -0.0417
12157TIP3   OH257885   5.817   3.080  11.789 -0.0357 -0.1933 -0.1419
12157TIP3    H157886   5.770   3.154  11.827  0.7341  0.7478 -0.9486
12157TIP3    H257887   5.756   3.043  11.725 -0.9706 -1.1876  1.2744
12158TIP3   OH257888   2.225   6.386   2.548  0.5038 -0.1413  0.3202
12158TIP3    H157889   2.169   6.327   2.598  0.4843 -0.2250  0.1997
12158TIP3    H257890   2.208   6.473   2.585  0.9078 -0.2802  0.8403
12159TIP3   OH257891   3.759   5.795  12.221  0.5125 -0.2592 -0.5923
12159TIP3    H157892   3.731   5.875  12.177  1.5738 -0.2328 -1.2646
12159TIP3    H257893   3.787   5.823  12.308 -0.1535 -0.0761 -0.4304
12160TIP3   OH257894   6.752   0.471  16.834 -0.2068  0.2245  0.5745
12160TIP3    H157895   6.747   0.470  16.929 -0.0018  2.1515  0.6485
12160TIP3    H257896   6.843   0.495  16.815 -0.2823  0.0092 -0.0918
12161TIP3   OH257897   1.919   4.027  11.018 -0.5122  0.2253 -0.2868
12161TIP3    H157898   1.850   3.966  10.990  0.1042 -0.9647  0.6498
12161TIP3    H257899   1.994   4.005  10.963 -0.4181  0.4642 -0.2542
12162TIP3   OH257900   3.558   6.320  15.489  0.4214 -0.4397 -0.4038
12162TIP3    H157901   3.504   6.389  15.527  1.4644  0.4058 -0.4174
12162TIP3    H257902   3.618   6.295  15.559  2.7756  1.5652 -1.5469
12163TIP3   OH257903   6.721   2.691   0.094  0.3441 -0.2909  0.4048
12163TIP3    H157904   6.640   2.645   0.069  0.9412 -0.6283 -1.0419
12163TIP3    H257905   6.764   2.632   0.155 -0.8553  0.2431  1.8076
12164TIP3   OH257906   1.615   1.195  10.718 -0.1849 -0.1172 -0.0783
12164TIP3    H157907   1.583   1.129  10.656  1.0940 -0.7359 -0.1099
12164TIP3    H257908   1.600   1.279  10.673  0.7993 -0.5608 -1.3053
12165TIP3   OH257909   4.716   0.569  15.918  0.1041 -0.2869 -0.2542
12165TIP3    H157910   4.737   0.657  15.950 -0.9994 -0.4877  1.1251
12165TIP3    H257911   4.636   0.581  15.866 -0.3733 -0.5458  0.4118
12166TIP3   OH257912   3.049   4.951  12.680 -0.1644  0.0931 -0.3823
12166TIP3    H157913   3.036   5.009  12.606 -0.3742  1.1472  0.4514
12166TIP3    H257914   3.135   4.976  12.716 -0.2582 -0.1086 -0.0060
12167TIP3   OH257915   2.346   2.028  14.462 -0.3254  0.5269 -0.3900
12167TIP3    H157916   2.266   2.079  14.474 -0.4708 -0.0304  1.2010
12167TIP3    H257917   2.339   1.956  14.526  1.6430  0.7127  0.0998
12168TIP3   OH257918   5.713   1.304  14.601 -0.4904  0.1165  0.2078
12168TIP3    H157919   5.720   1.343  14.514 -0.4460  1.8002  0.9243
12168TIP3    H257920   5.631   1.255  14.599  0.2563 -1.1488 -1.2371
12169TIP3   OH257921   4.050   5.330  15.754  0.0451  0.2798 -0.5872
12169TIP3    H157922   4.064   5.290  15.839 -0.4370  0.3751 -0.4604
12169TIP3    H257923   3.990   5.271  15.708 -3.5627  2.4550  0.8847
12170TIP3   OH257924   0.754   1.771  15.839  0.0311 -0.3196  0.4877
12170TIP3    H157925   0.775   1.756  15.931 -0.2396  0.7570  0.7416
12170TIP3    H257926   0.827   1.733  15.791  0.8411  0.2691  1.2168
12171TIP3   OH257927   1.823   6.253  16.460 -0.6553  0.6631  0.1622
12171TIP3    H157928   1.767   6.207  16.523 -0.7214  1.1421  0.4590
12171TIP3    H257929   1.883   6.304  16.515 -0.4943  0.8215 -0.1634
12172TIP3   OH257930   6.616   3.344   3.548  0.3574 -0.0359  0.0805
12172TIP3    H157931   6.708   3.347   3.522  0.4104  0.9797  0.3285
12172TIP3    H257932   6.594   3.251   3.548  1.1376 -0.2347 -0.8161
12173TIP3   OH257933   4.205   3.346  15.798 -0.0232  0.7779  0.3397
12173TIP3    H157934   4.204   3.254  15.773 -1.8127  0.2957  1.8996
12173TIP3    H257935   4.129   3.384  15.754  0.5815  1.4610 -0.1251
12174TIP3   OH257936   3.723   4.212  14.862 -0.0077 -0.0622 -0.3586
12174TIP3    H157937   3.655   4.183  14.801  1.7248 -1.7296 -1.6414
12174TIP3    H257938   3.799   4.229  14.806  0.7683  1.3635  1.0575
12175TIP3   OH257939   1.113   2.264   1.001  0.1600 -0.1207 -0.0690
12175TIP3    H157940   1.066   2.195   1.047 -0.7218  0.8534  0.5417
12175TIP3    H257941   1.119   2.336   1.064  3.1200 -0.4298  0.1171
12176TIP3   OH257942   3.907   4.754   6.224  0.4808 -0.1085  0.0352
12176TIP3    H157943   3.987   4.800   6.250  0.3571  0.1385 -0.0201
12176TIP3    H257944   3.923   4.663   6.249 -0.1003  0.3140  2.1379
12177TIP3   OH257945   0.561   3.851  11.431 -0.3622 -0.2750  0.4166
12177TIP3    H157946   0.547   3.941  11.401  0.7644 -0.2389 -0.0432
12177TIP3    H257947   0.488   3.802  11.395 -1.4116  0.5839  1.3108
12178TIP3   OH257948   4.102   0.104  16.647  0.1468 -0.2024  0.0526
12178TIP3    H157949   4.048   0.073  16.574  0.8194  1.5497 -1.2574
12178TIP3    H257950   4.058   0.183  16.678  1.5100  0.8539 -0.5773
12179TIP3   OH257951   5.397   4.058   4.871  0.1984 -0.2243  0.0640
12179TIP3    H157952   5.418   4.012   4.952 -0.0010 -1.2858 -0.4628
12179TIP3    H257953   5.305   4.084   4.881  0.2223 -0.2127  0.2474
12180TIP3   OH257954   6.581   3.888  14.941 -0.0142 -0.0469 -0.0850
12180TIP3    H157955   6.494   3.847  14.941 -1.0772  2.0230 -0.4749
12180TIP3    H257956   6.633   3.834  14.882 -1.3118 -0.8454 -0.5588
12181TIP3   OH257957   6.219   5.690   1.751  0.1943  0.0413 -0.2453
12181TIP3    H157958   6.258   5.604   1.737  0.1102 -0.0147 -0.1325
12181TIP3    H257959   6.212   5.699   1.846  1.8031  0.8796 -0.1608
12182TIP3   OH257960   2.314   1.387  15.663 -0.1430 -0.7483 -0.4785
12182TIP3    H157961   2.305   1.479  15.688  0.5779 -0.3792 -1.4997
12182TIP3    H257962   2.230   1.347  15.687  0.1855 -0.2668  1.6889
12183TIP3   OH257963   4.958   2.789   2.300  0.3821 -0.1027  0.0600
12183TIP3    H157964   4.971   2.695   2.314  0.3899 -0.2416 -0.8588
12183TIP3    H257965   4.869   2.806   2.330 -0.3336 -0.7914 -1.5991
12184TIP3   OH257966   0.061   0.998   0.334 -0.0339  0.0202  0.3285
12184TIP3    H157967   0.020   0.932   0.278  1.1910 -0.3652 -0.1396
12184TIP3    H257968   0.028   1.081   0.300 -2.1692 -0.3277  1.3861
12185TIP3   OH257969   5.057   4.866  11.977  0.3957 -0.4527 -0.2870
12185TIP3    H157970   5.073   4.813  11.899  0.5238 -0.2796 -0.3805
12185TIP3    H257971   5.041   4.803  12.047  0.3809 -0.6105 -0.4325
12186TIP3   OH257972   0.530   0.869  12.090  0.5108 -0.2253 -0.3313
12186TIP3    H157973   0.472   0.916  12.031 -0.9961 -0.8154  0.6335
12186TIP3    H257974   0.472   0.813  12.142  2.0052 -1.3594  0.1986
12187TIP3   OH257975   4.011   0.426   2.876  0.1776 -0.7310 -0.1834
12187TIP3    H157976   3.981   0.349   2.923 -0.6471 -0.1849  0.2004
12187TIP3    H257977   3.932   0.468   2.844  0.7275 -1.8157 -3.3399
12188TIP3   OH257978   1.227   2.161  14.445  0.1686  0.1144 -0.0349
12188TIP3    H157979   1.236   2.121  14.358 -1.5710 -1.2427  0.3404
12188TIP3    H257980   1.258   2.094  14.506  0.7951  0.8197  0.4285
12189TIP3   OH257981   4.456   1.453  14.226 -0.3019 -0.4113 -0.3672
12189TIP3    H157982   4.529   1.440  14.166  2.4610  2.6207  1.9747
12189TIP3    H257983   4.450   1.371  14.275  0.6644 -1.1514 -1.4339
12190TIP3   OH257984   5.619   0.037   4.112  0.2350  0.3682 -0.7743
12190TIP3    H157985   5.642  -0.017   4.036  1.4417  1.2784 -1.0785
12190TIP3    H257986   5.591  -0.026   4.179 -0.3957 -0.4736 -1.8005
12191TIP3   OH257987   4.857   5.422  14.663 -0.4834 -0.0947 -0.7568
12191TIP3    H157988   4.934   5.426  14.607 -1.1771  3.2094 -1.7021
12191TIP3    H257989   4.891   5.435  14.752  0.0973  1.8294 -1.2118
12192TIP3   OH257990   2.251   6.690   5.832 -0.5765  0.6084 -0.0511
12192TIP3    H157991   2.198   6.735   5.897 -2.5414 -1.1738 -0.3108
12192TIP3    H257992   2.226   6.598   5.839  3.0334 -0.4999  0.2533
12193TIP3   OH257993   2.620   1.145  10.980  0.0205  0.2810  0.2816
12193TIP3    H157994   2.623   1.231  11.021 -2.3600 -0.0893  1.3367
12193TIP3    H257995   2.659   1.159  10.893  0.0016  2.3161  0.5548
12194TIP3   OH257996   0.619   4.723   3.804 -0.3456  0.2598  0.6125
12194TIP3    H157997   0.599   4.797   3.746  0.0098  0.4857  0.7735
12194TIP3    H257998   0.536   4.702   3.845 -0.4104  0.6963  0.7080
12195TIP3   OH257999   1.903   3.922  14.192  0.7596 -0.1458  0.2264
12195TIP3    H158000   1.993   3.947  14.171 -0.3527  1.2203 -3.8917
12195TIP3    H258001   1.870   3.994  14.246  1.5820  0.2826  0.1726
12196TIP3   OH258002   3.303   2.769   2.441  0.2426 -0.1830  0.3916
12196TIP3    H158003   3.374   2.716   2.479 -0.7872 -2.8489 -1.1393
12196TIP3    H258004   3.223   2.727   2.472 -0.6576  1.0341 -0.2171
12197TIP3   OH258005   5.522   3.144   3.902 -0.7562 -0.4133 -0.2656
12197TIP3    H158006   5.472   3.065   3.920 -1.2085 -0.2088 -0.6214
12197TIP3    H258007   5.553   3.173   3.987 -2.1919  0.0974  0.0888
12198TIP3   OH258008   0.772   0.096   1.482 -0.6261  0.0560  0.1049
12198TIP3    H158009   0.707   0.049   1.534 -1.5847  0.0092 -1.0957
12198TIP3    H258010   0.847   0.037   1.478 -0.8512 -0.2808  0.7306
12199TIP3   OH258011   5.109   1.461  16.964 -0.0619  0.1246 -0.0796
12199TIP3    H158012   5.076   1.372  16.977  0.0234  0.2958  1.5985
12199TIP3    H258013   5.036   1.517  16.991 -0.3813  0.6025 -1.8230
12200TIP3   OH258014   5.942   3.763  13.314  0.2023 -0.0868 -0.2445
12200TIP3    H158015   5.979   3.792  13.231  0.4923 -2.1762 -0.8968
12200TIP3    H258016   5.934   3.844  13.366  4.1163  0.7749 -0.6396
12201TIP3   OH258017   3.206   3.210   3.243 -0.6073 -0.2024 -0.4185
12201TIP3    H158018   3.201   3.302   3.215 -0.0650 -0.1737 -0.4214
12201TIP3    H258019   3.255   3.212   3.325 -2.5980 -0.2321  0.8288
12202TIP3   OH258020   5.266   3.062   4.208 -0.2871 -0.4283 -0.0868
12202TIP3    H158021   5.297   3.148   4.180 -2.6281  0.0658 -1.4269
12202TIP3    H258022   5.199   3.081   4.274  0.6749 -1.3616  1.2233
12203TIP3   OH258023   6.100   0.564  17.305  0.0347 -0.6366 -0.3353
12203TIP3    H158024   6.191   0.564  17.336  0.5471  4.2996 -0.9327
12203TIP3    H258025   6.108   0.563  17.209 -0.4531 -0.0167 -0.3937
12204TIP3   OH258026   2.307   5.814  12.087  0.2100  0.9144  0.1147
12204TIP3    H158027   2.238   5.766  12.132  0.1682  0.9295  0.0676
12204TIP3    H258028   2.307   5.901  12.127  1.2877  0.4252  1.2420
12205TIP3   OH258029   5.586   1.554  10.626 -0.2071 -0.1019 -0.0220
12205TIP3    H158030   5.630   1.470  10.615  1.0534  0.1977  2.1741
12205TIP3    H258031   5.654   1.619  10.609 -1.2196  0.5442 -1.9054
12206TIP3   OH258032   6.622   4.895  13.851 -0.1969  0.1611 -0.0585
12206TIP3    H158033   6.603   4.868  13.761 -1.2094  1.6014 -0.3147
12206TIP3    H258034   6.536   4.911  13.889  0.2900  1.1821  0.6334
12207TIP3   OH258035   4.980   5.746  12.253 -0.3084 -0.2781  0.0928
12207TIP3    H158036   4.891   5.721  12.229 -0.2782 -0.3071  0.0130
12207TIP3    H258037   5.022   5.664  12.280 -0.0882 -0.3773 -0.5457
12208TIP3   OH258038   0.928   2.029  13.591 -0.5490  0.0183 -0.1395
12208TIP3    H158039   0.933   2.061  13.500 -1.7189  0.1956 -0.1556
12208TIP3    H258040   0.969   1.942  13.588  1.1284  0.7723 -0.4392
12209TIP3   OH258041   6.022   1.292   1.455  0.5508 -0.5865 -0.0718
12209TIP3    H158042   6.064   1.249   1.530 -0.0046 -0.3252  0.3966
12209TIP3    H258043   5.929   1.295   1.478  0.8233  3.0619  1.0470
12210TIP3   OH258044   1.680   1.894  13.647 -0.3572  0.2429 -0.4026
12210TIP3    H158045   1.723   1.868  13.566 -1.7844 -1.8396 -0.5623
12210TIP3    H258046   1.714   1.833  13.713 -1.6005 -0.1814 -0.1346
12211TIP3   OH258047   4.335   6.174  12.459 -0.2300  0.7113  0.2363
12211TIP3    H158048   4.359   6.258  12.421 -1.4113  0.4195 -1.2498
12211TIP3    H258049   4.395   6.111  12.418 -0.3560  0.6293  0.1761
12212TIP3   OH258050   1.130   0.105   5.974 -0.1569  0.0338  0.7004
12212TIP3    H158051   1.145   0.011   5.984 -1.7434 -0.5638 -1.5869
12212TIP3    H258052   1.162   0.126   5.886  0.1743  1.6716  1.1607
12213TIP3   OH258053   1.936   0.398   5.828  0.9012 -0.2441 -0.4989
12213TIP3    H158054   1.957   0.396   5.922  0.6959 -1.1564 -0.4640
12213TIP3    H258055   1.840   0.403   5.825  0.9337  0.4161 -0.6684
12214TIP3   OH258056   0.641   5.485   3.885  0.2207 -0.2191  0.6883
12214TIP3    H158057   0.650   5.560   3.826  1.6704 -0.9568 -0.0815
12214TIP3    H258058   0.598   5.520   3.963  1.2502  1.5196  0.5225
12215TIP3   OH258059   3.463   0.130  11.574  0.2638 -0.0191  0.1919
12215TIP3    H158060   3.468   0.170  11.661  0.2838 -0.8061  0.5608
12215TIP3    H258061   3.370   0.138  11.550  0.3388  0.6058  0.0799
12216TIP3   OH258062   6.030   0.582  15.734 -0.0214 -0.5794 -0.6163
12216TIP3    H158063   5.939   0.606  15.752 -0.1837  0.0305 -2.1515
12216TIP3    H258064   6.068   0.568  15.821 -1.4621 -0.4335  0.0651
12217TIP3   OH258065   3.515   6.250   2.590 -0.3559 -0.1338  0.2296
12217TIP3    H158066   3.499   6.321   2.653  0.4545  0.8213 -0.6076
12217TIP3    H258067   3.512   6.170   2.643 -0.1238  0.6101  1.4115
12218TIP3   OH258068   0.074   2.869  11.248 -0.2793  0.0482  0.1279
12218TIP3    H158069   0.023   2.790  11.229  0.2325 -0.7087  1.6740
12218TIP3    H258070   0.079   2.916  11.165  0.1290 -1.9766 -1.0512
12219TIP3   OH258071   4.428   0.695  13.694 -0.0914  0.5287  0.2861
12219TIP3    H158072   4.431   0.706  13.599  1.2503  0.6521  0.3318
12219TIP3    H258073   4.512   0.656  13.717  0.1549  1.7476  1.5889
12220TIP3   OH258074   2.329   3.877   6.780  1.0987  0.1163  0.0232
12220TIP3    H158075   2.267   3.819   6.737  0.6320 -0.5775  1.5484
12220TIP3    H258076   2.286   3.963   6.779  0.8761  0.0019 -0.4148
12221TIP3   OH258077   1.950   5.026  16.932  0.0151 -0.0262 -0.0614
12221TIP3    H158078   1.915   4.997  17.017 -1.7993  1.0648 -0.3723
12221TIP3    H258079   1.925   5.118  16.927  1.4979  0.3490 -1.1224
12222TIP3   OH258080   0.312   4.475   2.049 -0.1110 -0.0802 -0.4182
12222TIP3    H158081   0.219   4.455   2.039  0.1328 -0.5639 -2.2024
12222TIP3    H258082   0.322   4.562   2.009 -0.0784  0.8039  1.4395
12223TIP3   OH258083   5.476   2.587  11.847 -0.0393 -0.4261  0.3557
12223TIP3    H158084   5.408   2.654  11.855 -1.4141 -1.3018 -2.5787
12223TIP3    H258085   5.538   2.623  11.783  1.7607 -0.1172  2.1670
12224TIP3   OH258086   2.663   3.636   3.880 -0.4511  0.3251  0.3125
12224TIP3    H158087   2.699   3.712   3.834  0.4905  0.1395  0.7142
12224TIP3    H258088   2.737   3.601   3.930 -0.6220 -1.3527 -0.5023
12225TIP3   OH258089   3.144   3.447   3.990  0.3783  0.1540 -0.3505
12225TIP3    H158090   3.120   3.363   3.950 -0.4074 -0.4070  1.1697
12225TIP3    H258091   3.109   3.441   4.079  1.9940  1.3326  0.4211
12226TIP3   OH258092   4.227   3.330  11.363  0.4213 -0.3581 -0.4489
12226TIP3    H158093   4.320   3.305  11.364  1.1045  2.0056  0.5639
12226TIP3    H258094   4.189   3.273  11.296  2.8570 -0.4843 -1.8674
12227TIP3   OH258095   5.749   3.858  15.563  0.2625  0.0249 -0.6246
12227TIP3    H158096   5.700   3.913  15.501 -0.6840  0.6995  0.6667
12227TIP3    H258097   5.720   3.769  15.543 -1.1466  0.3662 -0.2204
12228TIP3   OH258098   2.363   6.144  15.369 -0.0363 -0.1472 -0.6787
12228TIP3    H158099   2.330   6.182  15.288  1.2388  0.6149 -0.8658
12228TIP3    H258100   2.394   6.057  15.344 -3.5219 -1.7197 -0.1299
12229TIP3   OH258101   3.565   6.688   5.040 -0.4033 -0.6748 -0.2663
12229TIP3    H158102   3.481   6.735   5.037  0.2543  0.5504 -0.3332
12229TIP3    H258103   3.607   6.709   4.956 -0.2499 -1.7111 -0.4530
12230TIP3   OH258104   3.999   3.184  16.091 -0.1924  0.6096  0.2142
12230TIP3    H158105   3.970   3.096  16.069  0.4839  0.7210 -1.2969
12230TIP3    H258106   3.925   3.240  16.069 -0.5162  0.4524  0.8933
12231TIP3   OH258107   4.008   0.886   2.614 -0.3818  0.2733 -0.1986
12231TIP3    H158108   3.932   0.898   2.670 -0.6805  1.6168 -0.8451
12231TIP3    H258109   4.080   0.928   2.662  0.4476 -2.6643  1.3151
12232TIP3   OH258110   4.488   4.427  17.318 -0.2240 -0.1222  0.3198
12232TIP3    H158111   4.455   4.400  17.403 -1.2168 -0.3576 -0.1205
12232TIP3    H258112   4.444   4.510  17.300  0.0802 -0.0077  0.0949
12233TIP3   OH258113   4.699   3.674  10.577  0.0914 -0.8561 -0.4393
12233TIP3    H158114   4.714   3.629  10.494  1.2855 -1.8815  0.3067
12233TIP3    H258115   4.668   3.606  10.637  0.9122 -0.4962  0.4203
12234TIP3   OH258116   4.843   2.404  17.199 -0.1694  0.1612 -0.4516
12234TIP3    H158117   4.936   2.413  17.176  0.0606  0.8263  0.6614
12234TIP3    H258118   4.800   2.472  17.147  0.0212  0.1369 -0.6458
12235TIP3   OH258119   3.708   5.170   3.137  0.1757 -0.0547  0.2413
12235TIP3    H158120   3.783   5.229   3.126 -0.9878  1.1597 -1.9532
12235TIP3    H258121   3.671   5.194   3.221  2.1864 -0.6859  1.3848
12236TIP3   OH258122   0.300   5.300  13.432  0.6257 -0.4934  0.0557
12236TIP3    H158123   0.283   5.291  13.338 -1.4028  1.4851  0.1628
12236TIP3    H258124   0.272   5.217  13.470  0.7820 -1.0336 -0.9824
12237TIP3   OH258125   3.730   1.608   3.972  0.4567  0.3517 -0.0685
12237TIP3    H158126   3.680   1.599   4.053  1.6499 -0.7872  0.6015
12237TIP3    H258127   3.669   1.645   3.909 -1.8179 -2.5888  0.1806
12238TIP3   OH258128   3.519   4.993   6.299 -0.3297  0.3148 -0.4155
12238TIP3    H158129   3.582   4.965   6.232 -1.3797 -0.2746 -1.1962
12238TIP3    H258130   3.570   5.002   6.379  0.8932  0.6542 -1.2059
12239TIP3   OH258131   6.036   4.470  17.104 -0.1534  0.0845  0.3928
12239TIP3    H158132   6.072   4.438  17.187  0.8728  0.3827  0.0756
12239TIP3    H258133   6.107   4.521  17.066 -1.3649  1.8699  0.4003
12240TIP3   OH258134   3.329   2.151   3.942 -0.1228  0.4178  0.2258
12240TIP3    H158135   3.385   2.081   3.975  0.3571  0.6346 -0.1246
12240TIP3    H258136   3.377   2.232   3.960 -0.4715  0.6314  0.2213
12241TIP3   OH258137   0.600   4.145   3.756  0.2224  0.4879 -0.1017
12241TIP3    H158138   0.667   4.081   3.730 -2.7179 -3.1564  0.3256
12241TIP3    H258139   0.618   4.162   3.848  0.4573 -0.6952  0.0955
12242TIP3   OH258140   5.598   3.006  11.629 -0.1392 -0.5454 -0.2483
12242TIP3    H158141   5.509   2.970  11.635  0.0598 -0.9355  0.4351
12242TIP3    H258142   5.632   2.970  11.547 -1.3552  1.3385 -1.6759
12243TIP3   OH258143   4.211   3.275  14.713  0.3543  0.4377 -0.2790
12243TIP3    H158144   4.238   3.198  14.664  3.0539  0.0805  1.5389
12243TIP3    H258145   4.199   3.243  14.803 -3.1902  1.2893 -0.3110
12244TIP3   OH258146   3.370   2.998  14.245 -0.3092  0.4315 -0.3582
12244TIP3    H158147   3.316   3.026  14.171 -0.6608 -0.2259 -0.3588
12244TIP3    H258148   3.330   2.916  14.274 -1.0835  1.4072  1.5062
12245TIP3   OH258149   2.716   4.975   5.418 -0.5770  0.6534 -0.3697
12245TIP3    H158150   2.758   4.977   5.504 -0.0913  0.4307 -0.5989
12245TIP3    H258151   2.729   5.062   5.382 -0.6215  0.6913 -0.2948
12246TIP3   OH258152   2.834   3.717   4.071  0.0480 -0.2832 -0.1409
12246TIP3    H158153   2.786   3.789   4.111 -0.3768 -0.8281  0.3330
12246TIP3    H258154   2.922   3.753   4.056 -0.4207  0.6433 -0.8087
12247TIP3   OH258155   1.441   0.172   0.285 -0.5385 -0.4153 -0.1024
12247TIP3    H158156   1.388   0.143   0.211 -0.3719  1.6542 -1.0996
12247TIP3    H258157   1.400   0.254   0.313  1.3248  0.5384 -0.0368
12248TIP3   OH258158   5.998   0.497  15.218  0.0996  0.9000 -0.5993
12248TIP3    H158159   5.968   0.495  15.309 -0.1047  1.3193 -0.6539
12248TIP3    H258160   5.961   0.419  15.178  1.1970  0.0625 -0.0149
12249TIP3   OH258161   2.124   1.934   0.941 -0.4433  0.0680  0.3323
12249TIP3    H158162   2.199   1.977   0.980  1.1033 -1.7775 -0.4134
12249TIP3    H258163   2.068   1.912   1.015  0.4008  0.3070  1.0611
12250TIP3   OH258164   4.698   0.283  14.403  0.5652 -0.4710  0.3086
12250TIP3    H158165   4.609   0.272  14.369 -0.7153 -1.0989  3.4405
12250TIP3    H258166   4.743   0.202  14.380 -0.4361 -1.1324  0.6129
12251TIP3   OH258167   5.232   5.701  12.721 -0.6035  0.4101 -0.4476
12251TIP3    H158168   5.148   5.657  12.735 -0.9860  1.4648  0.8098
12251TIP3    H258169   5.219   5.752  12.641 -1.9193  2.1242  0.7565
12252TIP3   OH258170   6.713   5.956  12.624  0.3217  0.0244  0.5945
12252TIP3    H158171   6.669   5.876  12.594 -0.5509  0.5531  0.4479
12252TIP3    H258172   6.792   5.962  12.570 -0.7106  0.4235 -0.9075
12253TIP3   OH258173   3.198   0.338  13.790  0.0543  0.7017 -0.3557
12253TIP3    H158174   3.175   0.395  13.863  0.2300  2.7963 -1.8346
12253TIP3    H258175   3.276   0.377  13.752 -0.8401  0.5634 -2.5120
12254TIP3   OH258176   3.253   5.454  15.445  0.0726  0.0611  0.5512
12254TIP3    H158177   3.172   5.503  15.430 -0.5610 -1.3895 -1.2251
12254TIP3    H258178   3.223   5.369  15.479  0.7360 -0.8410 -1.0371
12255TIP3   OH258179   6.415   2.162  16.002 -0.2454  0.0065  0.2161
12255TIP3    H158180   6.511   2.159  16.000 -0.2097  0.6288 -2.4719
12255TIP3    H258181   6.388   2.070  15.999  0.3095 -0.1488 -0.4835
12256TIP3   OH258182   6.630   4.230   3.907 -0.1325 -0.5500  0.5102
12256TIP3    H158183   6.702   4.287   3.935 -0.7264  0.1772  0.5876
12256TIP3    H258184   6.637   4.228   3.812 -1.2599  1.2667  0.3313
12257TIP3   OH258185   5.544   5.362   4.286  0.4550  0.0457 -0.0298
12257TIP3    H158186   5.531   5.422   4.360 -0.5087  1.9512 -1.6674
12257TIP3    H258187   5.631   5.325   4.301  0.3953  0.5578  1.9147
12258TIP3   OH258188   5.106   5.860   3.231 -0.0766 -0.1100  0.2369
12258TIP3    H158189   5.021   5.881   3.192  0.1006  0.1936  0.0156
12258TIP3    H258190   5.124   5.933   3.290 -0.4492 -0.6758  1.0708
12259TIP3   OH258191   3.084   6.571   2.918  0.2813 -0.2694  0.0299
12259TIP3    H158192   3.105   6.565   3.011 -2.1515 -1.7387  0.5566
12259TIP3    H258193   3.129   6.496   2.879  0.5388 -0.1796  0.1450
12260TIP3   OH258194   6.088   5.446   2.322 -0.2035  0.2302 -0.0862
12260TIP3    H158195   6.086   5.364   2.371 -0.9293  0.2381 -0.1000
12260TIP3    H258196   6.007   5.491   2.345 -0.7723  0.0425 -1.6058
12261TIP3   OH258197   3.419   2.340  11.126  0.0721 -0.1821 -0.6168
12261TIP3    H158198   3.410   2.297  11.041 -0.9209 -1.4729  0.1168
12261TIP3    H258199   3.387   2.429  11.112  1.8016  0.2743 -2.0593
12262TIP3   OH258200   4.184   0.786  14.727 -0.2375  0.1171 -0.7903
12262TIP3    H158201   4.279   0.786  14.733 -0.2074  0.5671 -1.1860
12262TIP3    H258202   4.154   0.779  14.818  0.1941  2.3197 -0.4069
12263TIP3   OH258203   0.421   2.355   4.768 -0.4390  0.5817 -0.0923
12263TIP3    H158204   0.517   2.361   4.761 -0.5356  0.8105 -1.2715
12263TIP3    H258205   0.406   2.332   4.860  0.7505  0.5045  0.0999
12264TIP3   OH258206   2.328   1.817  15.242  0.0213  0.1267 -0.2761
12264TIP3    H158207   2.277   1.807  15.161  2.0496 -1.4340 -1.4537
12264TIP3    H258208   2.393   1.884  15.221  0.3865 -0.0861  0.1766
12265TIP3   OH258209   4.997   3.681   1.245 -0.2901 -0.2089  0.4803
12265TIP3    H158210   4.917   3.729   1.265  0.1893  0.7900  0.0369
12265TIP3    H258211   5.044   3.736   1.183  0.3444 -1.1880  0.0594
12266TIP3   OH258212   2.973   3.456  15.501  0.4035 -0.0605  0.3423
12266TIP3    H158213   2.932   3.372  15.484 -0.2087  0.5180 -1.2315
12266TIP3    H258214   3.067   3.440  15.493  0.2159 -0.1949 -2.1132
12267TIP3   OH258215   4.660   5.124  17.111  0.2656  0.3936  0.2708
12267TIP3    H158216   4.583   5.147  17.163 -0.1340  0.9239 -0.5318
12267TIP3    H258217   4.732   5.173  17.151  0.2379 -0.2523  1.1411
12268TIP3   OH258218   3.760   4.452   1.382 -0.1014  0.2713  0.2815
12268TIP3    H158219   3.845   4.480   1.415  0.5501 -0.7149 -0.5111
12268TIP3    H258220   3.742   4.369   1.426 -1.0949  0.9082  1.1312
12269TIP3   OH258221   0.902   3.514  11.950  0.0165  0.7057  0.2592
12269TIP3    H158222   0.843   3.579  11.989 -2.2814 -1.1523  0.1132
12269TIP3    H258223   0.886   3.434  12.000  0.9484 -0.3785 -1.0971
12270TIP3   OH258224   4.376   2.409   4.841  0.2051  0.2526  0.4787
12270TIP3    H158225   4.296   2.358   4.833 -0.0702  0.6787  0.5023
12270TIP3    H258226   4.349   2.499   4.826  0.6966  0.3895  0.3914
12271TIP3   OH258227   0.692   1.950   1.636  0.5710  0.3612  0.4593
12271TIP3    H158228   0.601   1.954   1.664  0.3120 -1.3894  0.0031
12271TIP3    H258229   0.724   2.040   1.647 -1.0111  0.8860  1.2122
12272TIP3   OH258230   0.337   3.739  14.014 -0.2193  0.5475  0.0906
12272TIP3    H158231   0.292   3.791  14.081 -0.3451  0.4939  0.0475
12272TIP3    H258232   0.272   3.728  13.945 -0.4006 -0.1834  0.3624
12273TIP3   OH258233   5.031   5.289  11.350  0.3218 -0.1943 -0.2381
12273TIP3    H158234   5.070   5.329  11.273  0.0986 -0.4366 -0.4750
12273TIP3    H258235   5.081   5.325  11.423  0.1862  0.4437 -0.4567
12274TIP3   OH258236   1.934   5.429   2.979 -0.2574 -0.0572  0.4418
12274TIP3    H158237   1.914   5.412   2.887  0.8872  1.6115 -0.1650
12274TIP3    H258238   2.019   5.386   2.992 -0.3640 -0.1918  0.6825
12275TIP3   OH258239   6.303   3.675  17.266  0.2643  0.5499  0.5646
12275TIP3    H158240   6.350   3.742  17.217  0.7454 -0.1610  0.0388
12275TIP3    H258241   6.371   3.617  17.300 -0.2328 -0.7116 -0.5303
12276TIP3   OH258242   1.594   3.222  13.314  0.0585 -0.5894 -0.3462
12276TIP3    H158243   1.609   3.237  13.407  0.0502 -0.7077 -0.3260
12276TIP3    H258244   1.499   3.214  13.306  0.1487 -2.1206 -0.1273
12277TIP3   OH258245   6.387   1.141   2.438  0.1608  1.1269 -0.5440
12277TIP3    H158246   6.468   1.116   2.482 -0.1988 -0.1362 -0.5490
12277TIP3    H258247   6.317   1.105   2.493 -0.2906 -1.8144 -2.7905
12278TIP3   OH258248   3.920   0.100  16.225  0.2197 -0.1416 -0.3122
12278TIP3    H158249   3.856   0.170  16.235 -0.3263 -0.7558  0.7196
12278TIP3    H258250   3.987   0.136  16.168 -0.8897  0.6339 -1.1820
12279TIP3   OH258251   5.119   4.309  13.834  0.6645  0.3435 -0.2712
12279TIP3    H158252   5.147   4.363  13.908  1.0305 -0.2902  0.0706
12279TIP3    H258253   5.152   4.355  13.757  2.2681 -0.1117  0.0933
12280TIP3   OH258254   4.493   2.726   2.760  0.0335  0.8292  0.0226
12280TIP3    H158255   4.471   2.784   2.832 -0.3364  0.4886  0.1812
12280TIP3    H258256   4.415   2.725   2.705 -1.7825 -3.0386  2.3066
12281TIP3   OH258257   3.490   1.074   5.183  0.5502  0.7511  0.5821
12281TIP3    H158258   3.478   1.166   5.160 -0.6274  0.4901  0.0697
12281TIP3    H258259   3.524   1.076   5.272  0.6152  1.6906  0.5434
12282TIP3   OH258260   0.154   2.386  15.268 -0.4188 -0.5198 -0.1818
12282TIP3    H158261   0.086   2.444  15.304  1.7366  2.7909 -1.0311
12282TIP3    H258262   0.108   2.303  15.252 -3.7936  0.9377  0.9419
12283TIP3   OH258263   4.008   2.781   1.184 -0.1405  0.2288  0.1090
12283TIP3    H158264   4.041   2.743   1.265 -0.7353 -0.6218 -0.0406
12283TIP3    H258265   4.032   2.719   1.116 -0.3648  0.5397 -0.2609
12284TIP3   OH258266   3.781   3.577  13.072  0.4244  0.6710  0.1794
12284TIP3    H158267   3.703   3.535  13.034  0.3918 -0.8763  1.8173
12284TIP3    H258268   3.854   3.524  13.039  0.5828  0.7782  0.3577
12285TIP3   OH258269   6.613   5.843  13.812  0.5213 -0.2220  0.1216
12285TIP3    H158270   6.704   5.843  13.840  0.9482  0.5983 -1.1734
12285TIP3    H258271   6.615   5.809  13.723 -0.5460 -0.8508  0.3101
12286TIP3   OH258272   5.444   5.141  13.923 -0.1044 -0.1199  0.0421
12286TIP3    H158273   5.432   5.076  13.992  1.0529  0.0694  0.4465
12286TIP3    H258274   5.467   5.090  13.845  1.0725 -0.1923  0.4268
12287TIP3   OH258275   0.198   3.029  13.932 -0.6886 -0.1352 -0.2370
12287TIP3    H158276   0.186   3.122  13.948  2.0280  0.6004 -1.8367
12287TIP3    H258277   0.235   2.995  14.014 -0.4373  0.4628 -0.1019
12288TIP3   OH258278   4.131   3.875   6.301 -0.5463  0.2329 -0.3143
12288TIP3    H158279   4.158   3.933   6.229  0.4156 -1.5126 -1.4409
12288TIP3    H258280   4.115   3.934   6.374 -0.5244  1.9993 -1.6525
12289TIP3   OH258281   2.571   3.223   4.251 -0.2146 -0.0718 -0.0008
12289TIP3    H158282   2.636   3.229   4.321 -0.3527  1.1077  0.0356
12289TIP3    H258283   2.617   3.253   4.173 -0.3432 -0.4743 -0.2333
12290TIP3   OH258284   3.672   0.053  12.380 -0.0057  0.1281  0.5160
12290TIP3    H158285   3.715  -0.016  12.331 -0.1572 -0.3596  1.0544
12290TIP3    H258286   3.706   0.135  12.343 -1.1272 -0.1863 -1.3258
12291TIP3   OH258287   4.432   1.304   6.512  0.2163  0.3941 -0.3110
12291TIP3    H158288   4.357   1.302   6.572 -0.2247  0.2372 -0.8562
12291TIP3    H258289   4.436   1.394   6.481 -0.0356  0.2974 -0.6324
12292TIP3   OH258290   4.069   1.370  16.094  0.1679  0.3341 -0.0164
12292TIP3    H158291   4.084   1.423  16.172  0.5746  0.4256 -0.1559
12292TIP3    H258292   3.992   1.318  16.115  1.7998 -1.6070  1.4837
12293TIP3   OH258293   4.508   0.076   4.233  0.2580  0.0056  0.5488
12293TIP3    H158294   4.602   0.096   4.238  0.3504  0.0400 -0.9553
12293TIP3    H258295   4.489   0.073   4.139 -1.5367  1.3324  0.8265
12294TIP3   OH258296   2.487   3.180  16.528 -0.2909 -0.1809  0.2535
12294TIP3    H158297   2.481   3.086  16.514  0.7606 -0.9942  4.0141
12294TIP3    H258298   2.396   3.211  16.522 -0.7612 -1.5750 -0.2417
12295TIP3   OH258299   3.741   4.639   4.047  0.6488  0.0507 -0.2955
12295TIP3    H158300   3.668   4.610   3.992 -0.2051  3.1410 -0.9478
12295TIP3    H258301   3.703   4.653   4.133  0.4738  1.4642 -0.5833
12296TIP3   OH258302   1.968   1.701  11.017  0.2403 -0.1195  0.0571
12296TIP3    H158303   1.904   1.659  11.075 -1.6857  2.7906  0.2314
12296TIP3    H258304   2.048   1.706  11.070 -0.8038  0.4293  1.6333
12297TIP3   OH258305   4.257   4.344   2.226 -0.6698 -0.2509  0.1545
12297TIP3    H158306   4.289   4.382   2.308 -2.2377  0.4201  0.5011
12297TIP3    H258307   4.162   4.356   2.230 -0.6679  1.8007 -2.7226
12298TIP3   OH258308   0.145   5.479   0.124  0.3479 -0.1097  0.2555
12298TIP3    H158309   0.058   5.517   0.128  0.3104 -0.2411  0.7612
12298TIP3    H258310   0.130   5.385   0.112  0.4401  0.1027 -2.1196
12299TIP3   OH258311   1.122   4.367  14.388 -0.1713  0.3204 -0.5113
12299TIP3    H158312   1.091   4.398  14.474 -2.0932 -0.7527 -0.7578
12299TIP3    H258313   1.160   4.444  14.347 -1.5106  1.4926  0.3391
12300TIP3   OH258314   2.186   6.413   1.323  0.1057 -0.5446 -0.0382
12300TIP3    H158315   2.249   6.472   1.363  0.6653 -1.5238  0.5580
12300TIP3    H258316   2.190   6.433   1.229  0.4432  0.1924  0.1285
12301TIP3   OH258317   1.025   1.041   2.340  0.3196 -0.4088 -0.2403
12301TIP3    H158318   0.932   1.021   2.353  0.5048  0.0540  2.2451
12301TIP3    H258319   1.068   0.956   2.341  0.0117 -0.5859 -0.8664
12302TIP3   OH258320   1.924   4.044   5.411 -0.0866 -0.1899  0.5201
12302TIP3    H158321   1.984   4.090   5.470  1.1198  0.1360 -0.8966
12302TIP3    H258322   1.966   3.959   5.397 -0.3536 -0.2511  0.1014
12303TIP3   OH258323   4.075   4.335  10.810  0.3268 -0.8315 -0.0005
12303TIP3    H158324   4.135   4.261  10.809 -0.4975 -1.5174  0.1739
12303TIP3    H258325   3.997   4.302  10.855 -0.2640 -0.0298 -0.4155
12304TIP3   OH258326   1.799   0.239   0.996 -0.9731 -0.2783  0.2458
12304TIP3    H158327   1.851   0.284   1.061 -2.6596  1.4846  0.4724
12304TIP3    H258328   1.814   0.146   1.013  0.4518  0.1606  1.5851
12305TIP3   OH258329   1.850   2.308  16.764 -0.4207 -0.5890 -0.0792
12305TIP3    H158330   1.847   2.388  16.816  0.5896 -1.2014  0.9733
12305TIP3    H258331   1.896   2.245  16.820  1.9200 -0.9115 -2.1869
12306TIP3   OH258332   2.329   3.564  13.218  0.5878  0.5181 -0.1330
12306TIP3    H158333   2.371   3.583  13.134  0.2783 -0.0061 -0.4124
12306TIP3    H258334   2.314   3.650  13.257  0.1769  0.8109 -0.8993
12307TIP3   OH258335   4.479   1.158   2.161  0.3814 -0.2776  0.1494
12307TIP3    H158336   4.564   1.113   2.164  0.6672  0.2914  1.5730
12307TIP3    H258337   4.473   1.202   2.246 -0.3138  1.5933 -0.8062
12308TIP3   OH258338   2.021   6.596   6.756  0.4616  0.1618 -0.5866
12308TIP3    H158339   1.955   6.529   6.741  0.7653 -0.2737 -0.0599
12308TIP3    H258340   2.045   6.585   6.849  2.4492 -0.8084 -1.1511
12309TIP3   OH258341   0.140   3.049  12.673  0.4369  0.0049 -0.3366
12309TIP3    H158342   0.087   2.987  12.622 -0.2697  0.9222 -0.7343
12309TIP3    H258343   0.165   3.000  12.751 -0.5237 -0.6238 -0.4086
12310TIP3   OH258344   1.111   3.885  15.417  0.2261  0.0640  0.4695
12310TIP3    H158345   1.195   3.928  15.435 -0.6235  1.1889  2.0324
12310TIP3    H258346   1.046   3.943  15.458 -1.4372 -0.1472 -1.7080
12311TIP3   OH258347   6.634   3.353  12.169  0.0607 -0.0133  0.0948
12311TIP3    H158348   6.598   3.273  12.132 -1.5038  0.0609  1.3327
12311TIP3    H258349   6.713   3.326  12.215 -0.1528 -0.7452  0.0364
12312TIP3   OH258350   1.628   3.935   2.525 -0.2679  0.2127  0.2519
12312TIP3    H158351   1.665   3.919   2.612 -0.6603  0.0999  0.3972
12312TIP3    H258352   1.546   3.981   2.541  0.1652  1.1350 -0.1057
12313TIP3   OH258353   4.340   1.602  15.790  0.1211  0.0199  0.2590
12313TIP3    H158354   4.290   1.658  15.849 -0.2447  0.6951 -0.6642
12313TIP3    H258355   4.313   1.630  15.702  2.2241  0.5058 -0.2837
12314TIP3   OH258356   4.802   5.856   4.901  1.1216 -0.4350  0.5009
12314TIP3    H158357   4.855   5.781   4.928  1.1243 -0.1257  1.3855
12314TIP3    H258358   4.855   5.899   4.834  0.0946 -2.5243 -1.7836
12315TIP3   OH258359   5.347   3.329   3.088 -0.4205  0.9260 -0.2418
12315TIP3    H158360   5.290   3.340   3.164  0.2026  3.1903 -0.0378
12315TIP3    H258361   5.434   3.350   3.119  0.7090 -2.7078 -0.5103
12316TIP3   OH258362   2.003   0.665  11.965 -0.7018 -0.0539  0.7807
12316TIP3    H158363   2.070   0.731  11.984 -1.6985  1.0557  0.5442
12316TIP3    H258364   1.933   0.683  12.027 -1.6671  0.1272 -0.3254
12317TIP3   OH258365   5.802   5.189  15.286  0.3649  0.0174  0.2415
12317TIP3    H158366   5.887   5.234  15.290  0.6118 -0.1835 -1.8413
12317TIP3    H258367   5.738   5.259  15.292  0.7388  0.5440 -1.3285
12318TIP3   OH258368   3.967   0.857   3.299 -0.6985  0.5898 -0.5321
12318TIP3    H158369   3.887   0.909   3.301  0.1890  1.9747  0.8902
12318TIP3    H258370   4.020   0.892   3.370  0.5711 -1.2893 -0.4830
12319TIP3   OH258371   1.011   6.351   0.889 -0.1796  0.0579 -0.1512
12319TIP3    H158372   0.980   6.345   0.799  1.4883  1.2288 -0.8602
12319TIP3    H258373   0.951   6.297   0.939  1.5352 -4.7590 -2.6266
12320TIP3   OH258374   2.819   4.445  11.454 -0.4750  0.1759  0.1308
12320TIP3    H158375   2.867   4.363  11.468  0.7296  0.5573 -1.4305
12320TIP3    H258376   2.848   4.503  11.524 -0.3709 -0.3298  0.5050
12321TIP3   OH258377   5.649   0.166  14.064 -0.2062  0.2198 -0.1077
12321TIP3    H158378   5.604   0.226  14.123 -0.3944  0.0807 -0.1083
12321TIP3    H258379   5.738   0.162  14.097 -0.6790 -1.0568  1.1187
12322TIP3   OH258380   0.566   3.655  11.856  0.0342  0.2130  0.1600
12322TIP3    H158381   0.625   3.693  11.922 -0.6796  0.9994  0.3714
12322TIP3    H258382   0.482   3.698  11.872 -0.4725 -0.5233 -0.4564
12323TIP3   OH258383   1.597   6.629   0.909  0.2007 -0.0885  0.3225
12323TIP3    H158384   1.691   6.635   0.925  0.6213 -1.3910 -1.3712
12323TIP3    H258385   1.571   6.718   0.885  0.9240  0.3465  1.1017
12324TIP3   OH258386   6.490   3.004   0.808 -0.1665 -0.5360 -0.4422
12324TIP3    H158387   6.459   2.988   0.719  0.3148 -2.4423 -0.3174
12324TIP3    H258388   6.413   3.035   0.856 -0.5293  0.0891 -1.3964
12325TIP3   OH258389   4.825   1.046  12.422 -0.1445  0.0538  0.2909
12325TIP3    H158390   4.920   1.052  12.417  0.0170 -1.6332  0.4601
12325TIP3    H258391   4.808   0.997  12.503 -1.1225 -0.0764  0.0242
12326TIP3   OH258392   6.433   4.733  11.988 -0.1058  0.4004  0.1684
12326TIP3    H158393   6.511   4.681  11.972 -0.8864 -1.3278  1.6458
12326TIP3    H258394   6.370   4.672  12.027 -2.7111  1.3628 -2.1772
12327TIP3   OH258395   1.064   6.004  10.786  0.1387 -0.5935  0.7306
12327TIP3    H158396   1.026   6.018  10.873 -0.6153  1.7267  0.0988
12327TIP3    H258397   1.115   5.923  10.795  0.6719 -0.0589  3.5190
12328TIP3   OH258398   1.822   3.682  14.520  0.3134 -0.5302  0.2474
12328TIP3    H158399   1.821   3.777  14.503 -0.1905 -0.5779  0.0098
12328TIP3    H258400   1.825   3.676  14.615 -0.8327 -0.2659  0.3225
12329TIP3   OH258401   4.820   1.884  14.653 -0.0302 -0.1497 -0.0342
12329TIP3    H158402   4.762   1.924  14.717  0.7301  0.7283  0.1196
12329TIP3    H258403   4.831   1.793  14.684  1.4842  0.6253  1.9401
12330TIP3   OH258404   6.019   1.708  12.880  0.3310  0.5099 -0.3828
12330TIP3    H158405   6.044   1.752  12.798  1.3827  0.3074 -0.1811
12330TIP3    H258406   5.969   1.774  12.928 -1.4181  0.2262 -1.7176
12331TIP3   OH258407   5.087   1.202   1.867  0.6981  0.4423 -0.2420
12331TIP3    H158408   5.139   1.267   1.914 -0.1270  1.9564 -1.3135
12331TIP3    H258409   5.137   1.121   1.874  2.4155  1.4770  0.0837
12332TIP3   OH258410   3.956   0.277   5.062  0.7074  0.1123  0.6683
12332TIP3    H158411   3.916   0.287   4.976 -0.0885 -0.9027  0.8960
12332TIP3    H258412   3.929   0.356   5.110  1.6036  0.9472 -0.1547
12333TIP3   OH258413   2.978   0.385   6.720  0.4645 -0.6148  0.1622
12333TIP3    H158414   3.062   0.358   6.684  1.4343 -1.0711  2.5559
12333TIP3    H258415   2.952   0.460   6.667  2.4428 -0.4081 -0.5953
12334TIP3   OH258416   4.508   4.373   5.637 -0.1617 -0.1911  0.0989
12334TIP3    H158417   4.459   4.299   5.601 -1.3247 -0.1298  1.4925
12334TIP3    H258418   4.561   4.335   5.707  0.1033  0.1101  0.0632
12335TIP3   OH258419   1.493   6.651  10.471 -0.0912 -0.0819  0.3970
12335TIP3    H158420   1.503   6.718  10.538  0.1327 -1.7644  2.1283
12335TIP3    H258421   1.414   6.676  10.424 -0.5060  0.9185  1.5820
12336TIP3   OH258422   1.594   2.876   4.947 -0.3251  0.1344 -0.2656
12336TIP3    H158423   1.517   2.821   4.959 -0.8775  0.8383 -0.4713
12336TIP3    H258424   1.559   2.961   4.920  0.6476 -0.3891 -3.6161
12337TIP3   OH258425   1.353   1.050   3.707 -0.3326  0.0167  0.1509
12337TIP3    H158426   1.263   1.037   3.676  0.1657  0.1489 -1.4896
12337TIP3    H258427   1.382   0.962   3.733 -0.7575 -0.1279  0.1442
12338TIP3   OH258428   1.261   5.558  10.516  0.2001 -0.9923 -0.9838
12338TIP3    H158429   1.191   5.499  10.485 -0.9826 -1.4862  2.2471
12338TIP3    H258430   1.321   5.501  10.564 -0.0779  0.1599  0.8038
12339TIP3   OH258431   3.494   6.514  10.936 -0.5981  0.5263  0.0166
12339TIP3    H158432   3.456   6.598  10.914  1.3474  1.6915  0.8319
12339TIP3    H258433   3.571   6.506  10.879  0.8878  0.7120  1.8558
12340TIP3   OH258434   0.748   4.587   2.109 -0.8610 -0.1861  0.6272
12340TIP3    H158435   0.811   4.647   2.148  0.5711 -0.2959 -1.3630
12340TIP3    H258436   0.765   4.503   2.150  1.4585 -0.5823 -0.9268
12341TIP3   OH258437   4.859   3.034   0.439 -0.2518  0.0853 -0.2580
12341TIP3    H158438   4.928   3.039   0.373  0.4516  1.2514  0.5151
12341TIP3    H258439   4.811   2.954   0.418  0.3702  0.0601 -1.7514
12342TIP3   OH258440   5.467   3.605   5.730 -0.0638  0.6156 -0.1129
12342TIP3    H158441   5.477   3.554   5.811  0.9161  0.6156 -0.2223
12342TIP3    H258442   5.524   3.561   5.667 -0.4488  0.9033 -0.6731
12343TIP3   OH258443   6.745   2.646  11.481  0.3538  0.0599 -0.4794
12343TIP3    H158444   6.797   2.576  11.441 -0.2654 -0.6044 -0.1411
12343TIP3    H258445   6.704   2.691  11.406  2.8302  1.8174 -0.9295
12344TIP3   OH258446   3.375   2.661  13.374 -0.4799  0.6239  0.0331
12344TIP3    H158447   3.400   2.751  13.354  1.8785  0.0727  0.1391
12344TIP3    H258448   3.411   2.609  13.302  0.0229 -0.4293  0.9999
12345TIP3   OH258449   4.958   5.269  11.740  0.5727 -0.1019 -0.3637
12345TIP3    H158450   5.050   5.273  11.716  0.4310  1.2129 -0.7654
12345TIP3    H258451   4.958   5.239  11.831  1.6584  3.1711  0.8660
12346TIP3   OH258452   4.071   2.341   0.553  0.2588  0.6235  0.4393
12346TIP3    H158453   4.083   2.337   0.458 -1.2106 -2.3499  0.2456
12346TIP3    H258454   4.091   2.252   0.582 -1.0648  0.9900  2.6668
12347TIP3   OH258455   0.756   1.036   1.194 -0.1644 -0.4072 -0.3407
12347TIP3    H158456   0.691   1.084   1.143 -2.6672 -0.5018  2.4352
12347TIP3    H258457   0.708   0.960   1.227  0.9672  0.0582  2.7105
12348TIP3   OH258458   1.278   0.004   0.087  0.0201  0.0745  0.1584
12348TIP3    H158459   1.264   0.025  -0.006 -0.5524 -0.8376  0.0331
12348TIP3    H258460   1.355  -0.053   0.086 -0.9679 -1.2905  0.0629
12349TIP3   OH258461   0.528   3.911   1.900 -0.2135  0.2623 -0.0712
12349TIP3    H158462   0.546   3.960   1.980  1.3167 -0.9533  0.3698
12349TIP3    H258463   0.608   3.863   1.882 -0.0884  1.3592 -3.0146
12350TIP3   OH258464   1.382   5.363   5.203  0.0190 -0.3448 -0.5741
12350TIP3    H158465   1.341   5.378   5.118  0.4809  0.8526 -0.6085
12350TIP3    H258466   1.310   5.371   5.266  0.1784  2.1601 -0.5965
12351TIP3   OH258467   2.833   0.636  14.461  0.8616  0.6041  0.7465
12351TIP3    H158468   2.769   0.684  14.514 -1.1148 -0.3120 -0.6762
12351TIP3    H258469   2.853   0.695  14.389 -1.0698 -0.3510 -0.6495
12352TIP3   OH258470   1.708   1.299  16.550  0.0905  0.1232  0.3890
12352TIP3    H158471   1.630   1.244  16.556 -0.2044  0.5104  0.1757
12352TIP3    H258472   1.709   1.330  16.459  1.9976 -2.0582 -0.4236
12353TIP3   OH258473   6.699   1.726   2.096 -0.3991 -0.1877 -0.2980
12353TIP3    H158474   6.691   1.666   2.022 -1.7558 -0.1385 -0.2116
12353TIP3    H258475   6.726   1.670   2.169 -2.9040 -0.9916  0.1038
12354TIP3   OH258476   5.178   1.108  15.418 -0.2038 -0.0441 -0.4229
12354TIP3    H158477   5.152   1.141  15.332 -0.0299 -0.8079 -0.7734
12354TIP3    H258478   5.114   1.146  15.478 -0.6774  0.0215 -0.9625
12355TIP3   OH258479   2.623   0.113   3.692  0.0487 -0.1285 -0.2560
12355TIP3    H158480   2.556   0.181   3.690 -0.1784 -0.3452 -0.0381
12355TIP3    H258481   2.631   0.090   3.784  0.2628 -0.2623 -0.3072
12356TIP3   OH258482   6.470   3.109  14.663 -0.3784 -0.0044 -0.5628
12356TIP3    H158483   6.497   3.085  14.574  0.0293 -0.3431 -0.3526
12356TIP3    H258484   6.432   3.196  14.654  0.3585  0.2857 -0.9488
12357TIP3   OH258485   6.701   1.340   3.030  0.0685 -0.5405  0.6000
12357TIP3    H158486   6.669   1.423   2.995  0.1148 -1.0384 -0.6812
12357TIP3    H258487   6.634   1.277   3.004  1.1488 -1.2820 -0.4579
12358TIP3   OH258488   2.176   3.835  14.732 -0.3305  0.3684 -0.0435
12358TIP3    H158489   2.202   3.767  14.795  2.3061 -0.2083 -1.5638
12358TIP3    H258490   2.147   3.786  14.656 -1.0676  1.0068 -0.1755
12359TIP3   OH258491   5.912   2.807   3.656  0.2107  0.2261 -0.3873
12359TIP3    H158492   5.822   2.780   3.642 -0.2797  0.6615  1.6138
12359TIP3    H258493   5.964   2.731   3.630 -0.7280 -0.1228 -1.3061
12360TIP3   OH258494   4.061   3.389   0.652  0.0432  0.0589 -0.3578
12360TIP3    H158495   4.071   3.339   0.733 -1.4637  0.0482 -0.1383
12360TIP3    H258496   4.018   3.470   0.679  2.1112  1.3604 -0.7640
12361TIP3   OH258497   2.212   5.967   0.371 -0.0182  0.1490  0.5130
12361TIP3    H158498   2.296   5.922   0.371  0.3750  0.8388  2.0312
12361TIP3    H258499   2.176   5.952   0.459 -1.4954 -0.1402 -0.0999
12362TIP3   OH258500   5.595   3.823  16.615  0.0885  0.3378  0.4593
12362TIP3    H158501   5.548   3.905  16.604 -0.3026  0.1012  0.3608
12362TIP3    H258502   5.567   3.769  16.541  0.5432  0.2089  0.3776
12363TIP3   OH258503   6.300   2.525  13.843 -0.3527  0.6899 -0.2237
12363TIP3    H158504   6.333   2.614  13.852 -0.6054  0.6183  1.9308
12363TIP3    H258505   6.367   2.480  13.792 -0.5159  2.2216 -1.8763
12364TIP3   OH258506   6.281   0.343   1.895 -0.2336 -0.1791  1.1048
12364TIP3    H158507   6.256   0.322   1.805  1.4094  1.2328  0.2418
12364TIP3    H258508   6.231   0.422   1.915 -0.4243 -0.3619  1.3553
12365TIP3   OH258509   1.336   1.462   4.752 -1.1728 -0.5578  0.0411
12365TIP3    H158510   1.300   1.543   4.788 -0.4948  0.4143 -1.3570
12365TIP3    H258511   1.431   1.474   4.754 -1.0878 -0.8361 -1.1731
12366TIP3   OH258512   1.066   5.142   3.139  0.3876 -0.2193  0.9639
12366TIP3    H158513   1.147   5.133   3.088 -0.7555  0.1324 -1.0203
12366TIP3    H258514   1.073   5.229   3.179  0.8561 -0.0593  0.5466
12367TIP3   OH258515   6.367   4.189   3.569  0.1002  0.0750  0.4365
12367TIP3    H158516   6.368   4.160   3.660 -1.1933  1.0409  0.7897
12367TIP3    H258517   6.279   4.169   3.538  0.3803  0.1835 -0.4583
12368TIP3   OH258518   5.806   2.291   1.970 -0.1229  0.6349 -0.3383
12368TIP3    H158519   5.833   2.383   1.958 -0.5587  1.1873  2.3173
12368TIP3    H258520   5.885   2.248   2.002  0.3084 -0.1857 -2.3338
12369TIP3   OH258521   6.622   3.269  12.645  0.0719 -0.1219 -0.7601
12369TIP3    H158522   6.602   3.195  12.587  1.4650 -0.7691 -0.4494
12369TIP3    H258523   6.712   3.294  12.621  0.2266  0.3742  0.3014
12370TIP3   OH258524   2.750   1.284   0.840  0.3425  0.0482 -0.1368
12370TIP3    H158525   2.812   1.321   0.777 -0.9270  0.9632 -0.9060
12370TIP3    H258526   2.670   1.271   0.789 -0.3338 -0.3881  1.0010
12371TIP3   OH258527   4.409   3.003   1.539 -0.6069 -0.7173 -0.1498
12371TIP3    H158528   4.333   3.061   1.541  0.6286  1.0292  2.5702
12371TIP3    H258529   4.475   3.054   1.492  0.0257 -0.4968  0.9406
12372TIP3   OH258530   0.377   3.259   6.294 -0.9141 -0.0421  0.2772
12372TIP3    H158531   0.429   3.305   6.360  0.6097 -0.0978 -0.8162
12372TIP3    H258532   0.315   3.206   6.345 -1.6298  1.9484  1.5814
12373TIP3   OH258533   3.034   1.684  15.957 -0.4272 -0.1088  0.0016
12373TIP3    H158534   3.003   1.637  15.879 -0.5084 -0.5853  0.3166
12373TIP3    H258535   3.049   1.615  16.022 -2.4155  0.4550  1.1329
12374TIP3   OH258536   6.371   1.012  14.039  0.4501 -0.3078  0.5388
12374TIP3    H158537   6.409   0.960  14.111  0.7176 -1.6630 -0.5281
12374TIP3    H258538   6.280   1.025  14.065  0.8819  0.4349  1.7633
12375TIP3   OH258539   5.660   0.068   0.455  0.1930 -0.0215 -0.2736
12375TIP3    H158540   5.593   0.067   0.523  0.8055  1.1600  0.3886
12375TIP3    H258541   5.743   0.064   0.503  0.6346  0.8090 -0.9339
12376TIP3   OH258542   2.137   0.267  16.717 -0.3439 -0.2997  0.0549
12376TIP3    H158543   2.073   0.225  16.775  0.3550 -1.3411  0.1005
12376TIP3    H258544   2.199   0.308  16.777  0.0321 -0.8421  0.0397
12377TIP3   OH258545   3.469   0.820   4.552 -0.2234  0.1576  0.1540
12377TIP3    H158546   3.452   0.792   4.462  1.4411  0.8630 -0.4167
12377TIP3    H258547   3.553   0.779   4.574 -0.9511 -0.5810  1.6570
12378TIP3   OH258548   6.256   0.720  12.950  0.1253  0.0697  0.1601
12378TIP3    H158549   6.260   0.759  13.037 -0.0830 -0.2015  0.2916
12378TIP3    H258550   6.222   0.632  12.965  1.6609 -0.5913  0.0184
12379TIP3   OH258551   3.281   1.368  11.591  0.0335  0.2973 -0.0278
12379TIP3    H158552   3.369   1.375  11.630 -0.0669  0.8009  0.1162
12379TIP3    H258553   3.291   1.405  11.504 -0.2437  1.2499  0.3299
12380TIP3   OH258554   5.294   0.007   1.250  0.4959 -0.3860  0.2425
12380TIP3    H158555   5.213   0.057   1.250  0.0020 -1.1516  1.4282
12380TIP3    H258556   5.266  -0.085   1.258  1.3883 -0.8917 -1.6630
12381TIP3   OH258557   1.299   1.913  13.855  0.0762  0.4199 -0.0236
12381TIP3    H158558   1.209   1.913  13.824  0.2355  0.1122 -0.5026
12381TIP3    H258559   1.349   1.959  13.787  0.3901 -0.0533 -0.1249
12382TIP3   OH258560   4.166   2.648   1.862  0.2106  0.0542  0.2093
12382TIP3    H158561   4.234   2.583   1.880 -0.3251 -0.1934  1.3842
12382TIP3    H258562   4.196   2.727   1.908  0.2353  0.2776 -0.1811
12383TIP3   OH258563   3.061   3.487  15.788  0.4521  0.4838 -0.4047
12383TIP3    H158564   3.038   3.497  15.695 -0.1516 -2.0218 -0.5899
12383TIP3    H258565   2.977   3.497  15.834  0.8035  2.0863 -0.0318
12384TIP3   OH258566   1.963   0.837   3.138  0.2372  0.2004  0.6959
12384TIP3    H158567   1.985   0.759   3.087  0.0186  1.0415 -0.7138
12384TIP3    H258568   1.916   0.803   3.214  0.2733 -1.0480  0.1858
12385TIP3   OH258569   1.161   3.628   1.310  0.7272  0.1941  0.3945
12385TIP3    H158570   1.246   3.619   1.266  0.6362 -0.1480  0.2915
12385TIP3    H258571   1.130   3.715   1.284  0.8577  0.1552  0.1080
12386TIP3   OH258572   5.164   6.646  11.652 -0.5445 -0.0335 -0.1792
12386TIP3    H158573   5.152   6.584  11.581  0.6098 -0.0723 -0.3665
12386TIP3    H258574   5.124   6.727  11.620  0.9864  0.2905 -1.4005
12387TIP3   OH258575   2.361   6.531  13.587  0.1787  0.5373  0.5756
12387TIP3    H158576   2.335   6.439  13.579  1.0972  0.3887 -1.5963
12387TIP3    H258577   2.440   6.529  13.641  0.6351 -0.0674 -0.0903
12388TIP3   OH258578   1.046   4.233   3.066  0.3330 -0.3501  0.3991
12388TIP3    H158579   1.026   4.246   2.973  2.3730  1.4995  0.1229
12388TIP3    H258580   0.977   4.279   3.113  2.2397  3.8548 -0.4413
12389TIP3   OH258581   6.114   2.671   1.471 -0.0401 -0.7120  0.0863
12389TIP3    H158582   6.109   2.618   1.391 -0.5532  0.7304 -0.8627
12389TIP3    H258583   6.150   2.755   1.443 -2.4054  0.6730  0.9010
12390TIP3   OH258584   4.638   1.851   0.452  0.5745 -0.5340  0.4069
12390TIP3    H158585   4.590   1.772   0.429  0.4048 -0.6256  1.0594
12390TIP3    H258586   4.663   1.889   0.368 -0.4609 -0.5937  0.0531
12391TIP3   OH258587   2.456   5.740   2.897 -0.1959  0.5987 -0.1150
12391TIP3    H158588   2.505   5.770   2.821 -0.1011  1.2322  0.1935
12391TIP3    H258589   2.365   5.743   2.870 -0.0527 -3.7515 -1.8851
12392TIP3   OH258590   3.039   6.471  12.649 -0.3127  0.7603  0.3705
12392TIP3    H158591   3.066   6.422  12.727  1.0143 -0.7206 -0.9446
12392TIP3    H258592   2.958   6.515  12.675 -1.8315 -2.4386  1.5663
12393TIP3   OH258593   4.067   3.618   0.297 -0.2351 -0.4866  0.6533
12393TIP3    H158594   4.104   3.532   0.315  0.4055 -0.0684  1.3569
12393TIP3    H258595   4.140   3.668   0.261 -0.7000 -0.3378 -0.1192
12394TIP3   OH258596   4.001   6.313  13.555 -0.5829 -0.4465 -0.1943
12394TIP3    H158597   4.051   6.394  13.566  0.2982 -1.0493  0.3515
12394TIP3    H258598   4.062   6.251  13.517 -1.4895 -0.6444 -1.4050
12395TIP3   OH258599   0.219   2.011  14.259 -0.2073  0.3127  0.9361
12395TIP3    H158600   0.183   1.934  14.302 -0.2617  1.0223  2.2263
12395TIP3    H258601   0.314   2.003  14.270 -0.0584 -0.5236 -0.6573
12396TIP3   OH258602   2.380   3.075   2.083 -0.2128  0.1665  0.1102
12396TIP3    H158603   2.292   3.110   2.069 -0.0714  0.0235 -1.2520
12396TIP3    H258604   2.434   3.116   2.015  0.4392 -0.9212 -0.0511
12397TIP3   OH258605   2.309   0.895   2.609  0.7228 -0.1741 -0.1124
12397TIP3    H158606   2.270   0.980   2.629  0.9429 -0.0968 -0.0135
12397TIP3    H258607   2.400   0.902   2.639  0.4617 -0.8060  0.8679
12398TIP3   OH258608   4.035   5.316  13.961 -0.4693 -0.7987  0.4116
12398TIP3    H158609   4.059   5.275  13.878  0.9232 -2.7436  1.6717
12398TIP3    H258610   3.940   5.323  13.958 -0.3546  1.4553 -2.2853
12399TIP3   OH258611   1.766   1.361  11.890  0.5320  0.2928  0.0202
12399TIP3    H158612   1.756   1.367  11.984  1.5088 -0.3628  0.1809
12399TIP3    H258613   1.730   1.275  11.867 -0.0119  0.5883 -0.2557
12400TIP3   OH258614   6.309   4.448  13.503 -0.4805 -0.6766 -0.8875
12400TIP3    H158615   6.255   4.392  13.448 -0.9176 -0.2797 -0.8683
12400TIP3    H258616   6.389   4.397  13.519  0.2367 -0.2985 -2.9548
12401TIP3   OH258617   2.036   3.482   3.885  0.0599 -0.1230  0.9428
12401TIP3    H158618   1.968   3.418   3.863 -0.3331  0.2679  1.0184
12401TIP3    H258619   2.117   3.444   3.849  0.0310 -1.1905  1.9594
12402TIP3   OH258620   1.380   2.521   0.872  0.4378 -0.2369  0.1562
12402TIP3    H158621   1.339   2.565   0.946 -1.5158 -2.5649  0.5788
12402TIP3    H258622   1.461   2.570   0.857 -0.6808  2.2664  1.7163
12403TIP3   OH258623   1.914   0.925   2.351  0.1298  0.2166 -0.1121
12403TIP3    H158624   1.855   0.993   2.318 -1.2140 -0.9989 -0.3090
12403TIP3    H258625   1.866   0.843   2.338  2.1539 -0.9059 -0.9267
12404TIP3   OH258626   5.227   5.960   4.530 -0.0196  0.7742 -0.2383
12404TIP3    H158627   5.216   6.009   4.449  0.5450  2.1165  0.4413
12404TIP3    H258628   5.170   5.884   4.522 -1.8610  2.1689 -0.8733
12405TIP3   OH258629   3.194   4.473  12.991  0.2366 -0.3487 -0.3871
12405TIP3    H158630   3.259   4.437  12.930  1.9223  0.5983  0.7888
12405TIP3    H258631   3.191   4.566  12.970 -0.6206 -0.3425 -0.2815
12406TIP3   OH258632   1.857   2.611   5.347 -0.4081  0.1427  0.0699
12406TIP3    H158633   1.792   2.577   5.286 -2.2229  1.1848  1.3074
12406TIP3    H258634   1.883   2.535   5.399  1.9898 -1.0031 -2.5430
12407TIP3   OH258635   6.683   4.308   5.043  0.1035  0.3529 -0.4258
12407TIP3    H158636   6.620   4.249   5.002 -0.2858  0.8766 -0.5889
12407TIP3    H258637   6.640   4.337   5.123 -0.3125  1.5291 -1.0527
12408TIP3   OH258638   5.247   5.790   0.712 -0.3887 -0.4506  0.6766
12408TIP3    H158639   5.271   5.828   0.628 -0.8933 -1.4641  0.0482
12408TIP3    H258640   5.219   5.864   0.766  0.4978  0.2760  0.1560
12409TIP3   OH258641   6.518   3.140  12.904 -0.3823 -0.0437 -0.1820
12409TIP3    H158642   6.478   3.181  12.827 -0.7999  0.1090  0.1135
12409TIP3    H258643   6.445   3.100  12.951  0.0049 -1.0389 -0.4036
12410TIP3   OH258644   3.865   5.076  14.550  0.0292 -0.0749 -0.1830
12410TIP3    H158645   3.771   5.060  14.562 -0.0563  1.0289  0.7720
12410TIP3    H258646   3.903   4.988  14.541 -0.8734 -0.6423  1.2010
12411TIP3   OH258647   1.173   1.444   4.261 -0.1138 -0.7772  0.4856
12411TIP3    H158648   1.244   1.500   4.292  2.2383 -1.1548 -3.5414
12411TIP3    H258649   1.217   1.365   4.229 -2.7300 -2.3899  0.5202
12412TIP3   OH258650   4.759   5.907  10.900  0.1673  0.5230  0.6513
12412TIP3    H158651   4.782   5.844  10.832 -2.1734 -0.4176  0.6685
12412TIP3    H258652   4.773   5.992  10.858  1.2441  0.0077 -0.0986
12413TIP3   OH258653   6.039   0.552   1.507 -0.2428 -0.3937  0.2262
12413TIP3    H158654   5.999   0.493   1.570  1.2046 -1.5761  0.1120
12413TIP3    H258655   6.084   0.618   1.560  1.2020 -1.5443  0.4843
12414TIP3   OH258656   0.782   6.072  17.142 -0.7699 -0.8093  0.5095
12414TIP3    H158657   0.695   6.087  17.180 -0.0175  0.3918  1.8736
12414TIP3    H258658   0.838   6.137  17.184  0.5597 -0.7245 -1.2496
12415TIP3   OH258659   6.691   1.987   3.085 -0.1077  0.1636 -0.2954
12415TIP3    H158660   6.692   2.046   3.009  0.8645 -0.1042 -0.5007
12415TIP3    H258661   6.607   2.004   3.127 -0.4608  0.6516 -1.1714
12416TIP3   OH258662   0.955   4.886   3.184 -0.6040 -0.2943 -0.1395
12416TIP3    H158663   1.043   4.866   3.153 -0.5988 -1.0806  0.3429
12416TIP3    H258664   0.950   4.982   3.184  0.1418 -0.2517 -0.4580
12417TIP3   OH258665   1.491   1.312   4.126  0.1311 -0.1803  0.0949
12417TIP3    H158666   1.428   1.256   4.170 -0.8378  0.2881 -0.6647
12417TIP3    H258667   1.539   1.253   4.067 -0.0754 -0.4128  0.1598
12418TIP3   OH258668   1.169   4.008   4.704  0.5016  0.8599 -0.9535
12418TIP3    H158669   1.102   4.071   4.679  0.5409  1.0047 -0.7021
12418TIP3    H258670   1.227   4.057   4.762 -1.0992 -0.1484  1.6856
12419TIP3   OH258671   2.464   2.547  10.483  0.0700  1.2769  0.0519
12419TIP3    H158672   2.453   2.455  10.508 -1.0839  1.7256  1.3455
12419TIP3    H258673   2.386   2.567  10.431  1.6259  0.8296 -2.6669
12420TIP3   OH258674   3.454   4.026   3.999  0.2067 -0.3084  0.3767
12420TIP3    H158675   3.537   4.065   3.971  0.0132  0.6759  1.1225
12420TIP3    H258676   3.389   4.067   3.943  0.1685 -0.7991  0.0517
12421TIP3   OH258677   6.109   5.625   0.350 -0.2142 -0.6344  0.2243
12421TIP3    H158678   6.159   5.670   0.417  0.9717  0.9123 -1.6148
12421TIP3    H258679   6.020   5.658   0.359  0.0647  0.0002  0.6629
12422TIP3   OH258680   1.559   6.182   2.036 -0.3346 -0.4999 -0.2223
12422TIP3    H158681   1.640   6.219   2.071 -0.7406  0.1262  0.0719
12422TIP3    H258682   1.512   6.149   2.113 -0.4522 -0.6743 -0.3674
12423TIP3   OH258683   0.662   5.098  13.468  0.2392 -0.0617 -0.1902
12423TIP3    H158684   0.601   5.025  13.458 -0.0641  0.1860 -0.1381
12423TIP3    H258685   0.611   5.167  13.510  0.7151 -0.0699  0.4188
12424TIP3   OH258686   5.857   5.852  14.147  0.4672  0.3711 -0.3668
12424TIP3    H158687   5.883   5.930  14.099  1.2560 -0.0602 -0.6471
12424TIP3    H258688   5.886   5.868  14.237  1.7761 -0.1254 -0.6860
12425TIP3   OH258689   0.697   6.228  11.383 -0.2962  0.0706 -0.2447
12425TIP3    H158690   0.789   6.201  11.376 -0.5075 -1.0558  0.8366
12425TIP3    H258691   0.674   6.257  11.295  0.6515 -1.1429 -0.9317
12426TIP3   OH258692   1.304   3.737   3.730  0.1419  0.5375 -0.3066
12426TIP3    H158693   1.211   3.759   3.736  0.2039  0.4608  1.8583
12426TIP3    H258694   1.315   3.664   3.791  1.2977 -0.7357 -1.9545
12427TIP3   OH258695   2.826   4.829   4.222 -0.3072  0.0379 -0.1944
12427TIP3    H158696   2.766   4.880   4.276  0.5212  0.4299  0.3831
12427TIP3    H258697   2.786   4.743   4.216 -0.4051 -0.0267  1.0907
12428TIP3   OH258698   3.977   2.174  15.575 -0.2456  0.1978  0.8347
12428TIP3    H158699   3.971   2.268  15.587  1.5669  0.5682 -0.6660
12428TIP3    H258700   4.029   2.143  15.649  2.3550  0.9949 -0.5264
12429TIP3   OH258701   1.677   3.087   6.176  0.3621 -0.6091 -0.2264
12429TIP3    H158702   1.718   3.141   6.108  0.8261 -1.7985 -0.9245
12429TIP3    H258703   1.709   3.124   6.258 -3.0128  3.1780 -0.3601
12430TIP3   OH258704   4.089   6.497  10.921  0.4370 -0.2911  0.0045
12430TIP3    H158705   4.036   6.523  10.996  1.0398 -1.5491  0.8992
12430TIP3    H258706   4.101   6.578  10.871  2.1274  1.1761  2.5719
12431TIP3   OH258707   4.300   2.741  13.920  0.2438  0.5019 -0.1176
12431TIP3    H158708   4.307   2.822  13.870  2.6339  0.3534 -0.1661
12431TIP3    H258709   4.240   2.686  13.870  0.0167  1.5781 -1.0525
12432TIP3   OH258710   5.213   5.451   2.661  0.1422  0.2428  0.1102
12432TIP3    H158711   5.218   5.490   2.748  2.0249 -0.7841  0.5144
12432TIP3    H258712   5.227   5.524   2.601 -1.6792  1.0475  0.6123
12433TIP3   OH258713   2.509   4.436  15.857  0.1769 -0.0134 -0.2082
12433TIP3    H158714   2.499   4.346  15.824 -2.2595  0.3406 -0.5425
12433TIP3    H258715   2.538   4.424  15.948  2.6381 -1.0355 -1.0272
12434TIP3   OH258716   3.206   2.682   2.824 -0.0852 -0.0846  0.0636
12434TIP3    H158717   3.156   2.608   2.857 -0.7180 -1.2799 -3.1899
12434TIP3    H258718   3.141   2.739   2.783  0.7433  0.7568 -0.1388
12435TIP3   OH258719   1.681   2.621   5.099  0.3218  0.1646 -0.2227
12435TIP3    H158720   1.733   2.657   5.027  1.8629 -2.4440 -0.5344
12435TIP3    H258721   1.601   2.589   5.056  0.9687 -0.8396 -0.7069
12436TIP3   OH258722   3.315   6.551   0.070  0.0568  0.2010 -0.2121
12436TIP3    H158723   3.345   6.639   0.093  0.2845  0.1993 -0.5011
12436TIP3    H258724   3.285   6.559  -0.021 -0.1659  0.0393 -0.1551
12437TIP3   OH258725   6.282   0.117  17.044  0.7794 -0.0232 -0.2815
12437TIP3    H158726   6.351   0.069  17.089  1.4987 -0.2207 -1.5514
12437TIP3    H258727   6.305   0.111  16.951 -1.0862 -0.2957 -0.7545
12438TIP3   OH258728   0.698   1.853  16.330  0.1957 -0.8270 -0.0771
12438TIP3    H158729   0.653   1.916  16.273 -1.5224 -0.7467  1.2963
12438TIP3    H258730   0.761   1.906  16.378  1.9874 -0.9620 -2.1156
12439TIP3   OH258731   0.139   4.862  13.074 -0.1882  0.0407  0.2816
12439TIP3    H158732   0.170   4.920  13.143 -2.4189 -0.2392  1.6115
12439TIP3    H258733   0.048   4.888  13.060 -0.5066 -1.5327 -0.8182
12440TIP3   OH258734   6.052   3.304   1.538  0.3285 -0.0539 -0.1708
12440TIP3    H158735   5.973   3.311   1.591  1.5288  0.4678  1.6455
12440TIP3    H258736   6.042   3.371   1.471 -0.1461  1.0177  0.9341
12441TIP3   OH258737   0.721   5.468  11.974 -0.6531 -0.2065 -0.1429
12441TIP3    H158738   0.799   5.458  12.027  0.3393  1.3847 -1.2151
12441TIP3    H258739   0.649   5.472  12.037 -0.1963 -3.6542  0.7946
12442TIP3   OH258740   1.854   6.319  15.097 -0.3456 -0.2451 -0.0281
12442TIP3    H158741   1.797   6.374  15.150  1.7106  0.8995  1.1311
12442TIP3    H258742   1.844   6.352  15.008 -1.0748  0.2641  0.2352
12443TIP3   OH258743   1.618   5.436   2.223 -0.3197  0.1877  0.3480
12443TIP3    H158744   1.587   5.441   2.132  0.2151  0.1499  0.1583
12443TIP3    H258745   1.538   5.440   2.276 -0.6027  0.7208 -0.1061
12444TIP3   OH258746   3.734   3.313  12.601  0.5794 -0.2176 -0.6347
12444TIP3    H158747   3.776   3.277  12.679  0.8158 -0.9628 -1.0897
12444TIP3    H258748   3.695   3.237  12.557 -1.1930  0.4287 -0.2836
12445TIP3   OH258749   5.356   2.118   4.163  0.0852 -0.5491 -0.4525
12445TIP3    H158750   5.395   2.116   4.251 -1.3983 -1.3302  0.2143
12445TIP3    H258751   5.419   2.168   4.110  0.9292  0.0796  1.0827
12446TIP3   OH258752   5.597   2.640  13.572  0.3264  0.2179  0.0819
12446TIP3    H158753   5.684   2.624  13.537  0.2548  1.2925 -0.6647
12446TIP3    H258754   5.582   2.734  13.556 -0.8561  0.1048  0.4216
12447TIP3   OH258755   4.810   5.870  11.730 -0.3019 -0.4939 -0.3777
12447TIP3    H158756   4.870   5.813  11.683  1.7072  0.7216  0.5993
12447TIP3    H258757   4.760   5.811  11.786  0.0768 -1.5193 -1.0894
12448TIP3   OH258758   0.598   5.214   4.818  0.1249  0.1762  0.3951
12448TIP3    H158759   0.552   5.169   4.889  0.6579  0.6408  1.0473
12448TIP3    H258760   0.529   5.257   4.768 -0.1795  0.6131  1.1803
12449TIP3   OH258761   0.922   3.995   0.016  0.1135 -0.0984  0.2932
12449TIP3    H158762   0.969   4.061   0.067  1.1342 -0.4392 -0.1829
12449TIP3    H258763   0.943   3.912   0.057 -1.7164 -0.1185  1.3129
12450TIP3   OH258764   1.020   3.484  14.659 -0.2291  0.2830  0.3207
12450TIP3    H158765   0.979   3.462  14.742  2.3270 -1.3499  1.2536
12450TIP3    H258766   0.986   3.420  14.597  1.0011 -1.2103  1.1374
12451TIP3   OH258767   3.582   5.372  12.358  0.4715  0.0793  0.3387
12451TIP3    H158768   3.559   5.319  12.281 -2.0843 -1.2252  1.8860
12451TIP3    H258769   3.678   5.369  12.360  0.5978 -0.2855 -2.4557
12452TIP3   OH258770   1.278   4.060   1.619 -0.9130 -0.5847 -0.1784
12452TIP3    H158771   1.195   4.094   1.586 -0.3218  0.9814 -0.1402
12452TIP3    H258772   1.345   4.118   1.583 -0.1336  0.4404  2.6472
12453TIP3   OH258773   6.315   3.131  14.995 -0.3094 -0.9770  0.5856
12453TIP3    H158774   6.375   3.185  14.944 -0.5394 -1.1701  0.1098
12453TIP3    H258775   6.298   3.054  14.941 -1.7275 -0.4922  0.2927
12454TIP3   OH258776   3.407   5.919  12.082  0.3484  0.4810  1.0108
12454TIP3    H158777   3.502   5.905  12.090  0.2171 -1.2178  0.0887
12454TIP3    H258778   3.370   5.875  12.159  0.1764 -0.9698  0.1218
12455TIP3   OH258779   3.550   4.774   4.702  0.0858  0.1637 -0.5192
12455TIP3    H158780   3.526   4.787   4.793  0.0135 -0.0757 -0.5033
12455TIP3    H258781   3.588   4.858   4.675  1.7380 -0.3058  0.2330
12456TIP3   OH258782   4.262   2.813   0.602 -0.1728  0.3102 -0.3094
12456TIP3    H158783   4.335   2.784   0.657 -1.8782 -1.9478  0.9497
12456TIP3    H258784   4.214   2.875   0.657  1.7359  3.3593 -1.8517
12457TIP3   OH258785   0.139   0.841  16.610  0.0425 -0.6064 -0.3925
12457TIP3    H158786   0.066   0.852  16.671  0.5443  2.7286 -0.1849
12457TIP3    H258787   0.099   0.801  16.533 -2.0554  0.9618 -0.2250
12458TIP3   OH258788   2.436   2.955   3.466  0.1557 -0.4933 -1.0163
12458TIP3    H158789   2.464   2.864   3.475  1.1397  0.0258  3.7886
12458TIP3    H258790   2.517   3.004   3.452  0.0546 -0.1084 -0.2902
12459TIP3   OH258791   5.820   2.741  16.659  0.5218 -0.3099  0.2187
12459TIP3    H158792   5.728   2.722  16.674  0.4603 -0.0165  0.2347
12459TIP3    H258793   5.864   2.656  16.660  0.0751 -0.5723 -1.0465
12460TIP3   OH258794   0.105   6.538   1.774 -0.0750  0.0058  0.0348
12460TIP3    H158795   0.035   6.599   1.797 -0.4771 -0.7562  0.8689
12460TIP3    H258796   0.060   6.458   1.747  0.4383  0.1774 -1.4278
12461TIP3   OH258797   4.495   3.092   0.273  0.3674 -0.0535  0.8290
12461TIP3    H158798   4.440   3.021   0.305  1.9430 -0.8598  1.8839
12461TIP3    H258799   4.525   3.137   0.352 -2.9084  3.7924  0.2215
12462TIP3   OH258800   1.750   4.132   4.252  0.3287 -0.3301 -0.0445
12462TIP3    H158801   1.816   4.198   4.231  0.1631  0.3590  1.4582
12462TIP3    H258802   1.744   4.134   4.347 -2.3051  0.1140 -0.1438
12463TIP3   OH258803   6.591   1.015  12.104  0.3026 -0.0983 -0.0946
12463TIP3    H158804   6.617   1.061  12.025  0.1747 -1.1939 -0.7981
12463TIP3    H258805   6.572   1.084  12.167 -1.2074  0.8447 -1.5206
12464TIP3   OH258806   4.521   5.720   3.319  0.5700 -0.1570  0.0422
12464TIP3    H158807   4.602   5.705   3.368  0.5427  2.5836  1.0770
12464TIP3    H258808   4.540   5.688   3.231  3.3352  1.6390 -0.1328
12465TIP3   OH258809   0.540   4.286  14.205 -0.4155 -0.3466 -0.7840
12465TIP3    H158810   0.495   4.369  14.193 -1.7394 -1.1350 -1.5571
12465TIP3    H258811   0.632   4.306  14.187 -0.6414  1.0252 -0.5353
12466TIP3   OH258812   1.515   0.488   2.740  0.0435  1.1703  0.5040
12466TIP3    H158813   1.514   0.430   2.664 -0.9027  0.4267  1.0628
12466TIP3    H258814   1.484   0.572   2.706 -1.2586  0.6021  0.2459
12467TIP3   OH258815   1.444   0.269  12.088  0.3372  0.6509  0.5424
12467TIP3    H158816   1.361   0.309  12.063  2.2610  2.9082 -3.0273
12467TIP3    H258817   1.462   0.206  12.019  2.2519  1.3386  0.3493
12468TIP3   OH258818   5.465   4.819  13.069  0.6305 -0.5465 -0.2170
12468TIP3    H158819   5.493   4.732  13.041 -0.9930 -0.5529 -2.0940
12468TIP3    H258820   5.461   4.869  12.987 -0.1013  0.7952  0.6183
12469TIP3   OH258821   2.271   5.747  13.171 -0.4875 -0.2625 -0.3764
12469TIP3    H158822   2.333   5.674  13.180  1.0583  0.9381 -0.6637
12469TIP3    H258823   2.270   5.789  13.257 -0.0760  0.3375 -0.6586
12470TIP3   OH258824   6.190   4.985  16.067  0.4299  0.2501  0.2992
12470TIP3    H158825   6.125   4.942  16.123  0.7418 -2.5131 -1.3104
12470TIP3    H258826   6.138   5.033  16.002 -0.0143 -1.0832 -0.3488
12471TIP3   OH258827   3.563   0.604  14.466  0.0389  0.3219  0.9909
12471TIP3    H158828   3.618   0.530  14.492 -0.8315 -0.4611  0.6707
12471TIP3    H258829   3.619   0.660  14.413  0.4502 -0.5937  0.4539
12472TIP3   OH258830   2.659   6.036   3.591 -0.0981  0.0261 -0.0056
12472TIP3    H158831   2.577   6.026   3.638  0.0021 -1.1700 -0.0769
12472TIP3    H258832   2.713   5.962   3.619  0.3884 -0.0651 -1.1183
12473TIP3   OH258833   4.714   2.201   4.508  0.5840 -0.0750  0.0605
12473TIP3    H158834   4.651   2.266   4.539  1.8276  1.2696 -0.1488
12473TIP3    H258835   4.660   2.137   4.460 -0.9065 -0.2821  1.8721
12474TIP3   OH258836   5.244   2.941   1.588 -0.3442  0.0451 -0.4674
12474TIP3    H158837   5.241   2.931   1.493  1.4099 -0.7342 -0.4773
12474TIP3    H258838   5.176   3.005   1.607  0.3617  1.5162 -2.4493
12475TIP3   OH258839   4.072   6.710   2.717 -0.0833  0.3101  0.2998
12475TIP3    H158840   4.059   6.623   2.680  0.4944  0.5761 -0.5453
12475TIP3    H258841   4.145   6.700   2.777  0.3433  0.3243 -0.2114
12476TIP3   OH258842   4.669   5.453   4.968  0.0469  0.3227 -0.0214
12476TIP3    H158843   4.613   5.531   4.959 -0.1717  0.4863  2.1097
12476TIP3    H258844   4.758   5.488   4.975 -0.2258  0.6997  3.2330
12477TIP3   OH258845   5.500   1.887  16.656  0.4972 -0.0703 -0.3219
12477TIP3    H158846   5.520   1.884  16.749  1.3520  1.4331 -0.4336
12477TIP3    H258847   5.558   1.822  16.616 -0.2041 -1.0585  0.2209
12478TIP3   OH258848   3.212   1.529   6.599  0.0800 -0.1166  0.2808
12478TIP3    H158849   3.294   1.523   6.648 -0.0722 -1.0843  0.4394
12478TIP3    H258850   3.224   1.470   6.525 -1.0469 -1.5054  1.1689
12479TIP3   OH258851   2.130   5.186   0.919  0.0690  0.5880  0.0818
12479TIP3    H158852   2.035   5.184   0.909  0.1696 -1.0933 -0.9499
12479TIP3    H258853   2.146   5.147   1.005 -0.1194 -1.1916 -0.6514
12480TIP3   OH258854   5.335   3.663  15.946 -0.1865  0.6650 -0.4956
12480TIP3    H158855   5.330   3.567  15.947  0.0826  0.5881 -2.5470
12480TIP3    H258856   5.386   3.683  15.867 -1.6309  2.5507 -1.0020
12481TIP3   OH258857   3.137   6.597   0.690 -0.4525 -0.2893  0.2701
12481TIP3    H158858   3.124   6.518   0.638  3.8365 -0.9305 -0.2074
12481TIP3    H258859   3.122   6.669   0.628  1.6196 -0.9862 -1.1683
12482TIP3   OH258860   5.563   3.039   3.294 -0.3438  0.0686 -0.7382
12482TIP3    H158861   5.650   3.000   3.305 -0.8505 -0.7634  0.5124
12482TIP3    H258862   5.561   3.111   3.357 -0.4958  0.1998 -0.8932
12483TIP3   OH258863   5.723   5.090   3.060  0.2861 -0.0694  0.9236
12483TIP3    H158864   5.634   5.088   3.024  0.2552 -1.0013  1.0258
12483TIP3    H258865   5.747   4.998   3.068  2.1142  0.1473 -1.2002
12484TIP3   OH258866   3.884   3.207   2.978 -0.0912 -0.0698 -0.1174
12484TIP3    H158867   3.972   3.244   2.986 -0.3567  0.4877  0.2193
12484TIP3    H258868   3.861   3.219   2.885 -0.1826  0.6316 -0.0083
12485TIP3   OH258869   1.044   1.976  14.701 -0.2296 -0.0365 -0.1674
12485TIP3    H158870   1.095   1.944  14.628 -0.7023  1.9209 -1.4296
12485TIP3    H258871   0.957   1.938  14.688 -0.3562  0.4364 -0.7260
12486TIP3   OH258872   5.645   0.519   3.913  0.2174  0.1218  0.0183
12486TIP3    H158873   5.705   0.588   3.883  0.8527 -0.9996 -1.4215
12486TIP3    H258874   5.686   0.484   3.992  2.4690 -1.7298 -1.8035
12487TIP3   OH258875   3.436   5.825   4.882  0.0515  0.1232  0.1851
12487TIP3    H158876   3.414   5.788   4.967  2.5972  1.7503  1.6636
12487TIP3    H258877   3.498   5.763   4.844  0.5262  0.4060  0.4822
12488TIP3   OH258878   3.868   0.744   4.875 -0.2623 -0.1701  0.1733
12488TIP3    H158879   3.923   0.666   4.872  0.5190  0.3065  1.5317
12488TIP3    H258880   3.927   0.817   4.859 -1.0887  0.1497 -1.7011
12489TIP3   OH258881   3.420   4.999   0.305 -0.1560 -0.4807 -0.3658
12489TIP3    H158882   3.465   5.079   0.277 -1.7246  0.2971 -0.7627
12489TIP3    H258883   3.355   5.029   0.369 -0.5606 -1.4769 -0.2983
12490TIP3   OH258884   4.749   0.737  16.670  0.7456  0.0977 -0.0840
12490TIP3    H158885   4.735   0.674  16.600 -1.0660  1.0949 -0.6909
12490TIP3    H258886   4.706   0.698  16.747  0.5528  0.1091 -0.1859
12491TIP3   OH258887   1.322   2.630  15.860 -0.1731 -0.7715  0.2551
12491TIP3    H158888   1.413   2.650  15.882  0.0297 -0.8543 -0.4625
12491TIP3    H258889   1.328   2.563  15.792 -0.7351 -0.0555 -0.5282
12492TIP3   OH258890   0.383   3.002   6.013 -0.2293 -0.1007  0.5252
12492TIP3    H158891   0.352   3.062   5.944  0.1238 -1.4048 -0.8231
12492TIP3    H258892   0.312   2.938   6.022  0.9736 -1.7309 -0.8918
12493TIP3   OH258893   1.071   2.634   5.285 -0.0817  0.3062 -0.2344
12493TIP3    H158894   1.137   2.688   5.328  0.2437  0.0566 -0.4172
12493TIP3    H258895   1.009   2.697   5.248 -0.7466  0.5081  1.1813
12494TIP3   OH258896   1.920   4.511  11.823 -0.2475  0.5885 -0.1290
12494TIP3    H158897   1.870   4.438  11.785  0.1101  0.3177 -0.0863
12494TIP3    H258898   1.888   4.518  11.913 -1.3989  1.5029 -0.5758
12495TIP3   OH258899   4.090   6.508  15.611 -0.1979 -0.3061  0.2493
12495TIP3    H158900   4.071   6.415  15.622  0.7880 -0.6260 -0.5439
12495TIP3    H258901   4.048   6.532  15.529  0.6103 -0.3847 -0.2002
12496TIP3   OH258902   3.635   6.701   6.113  0.4254 -0.0809 -0.0785
12496TIP3    H158903   3.661   6.687   6.022 -1.2279 -0.5304 -0.5120
12496TIP3    H258904   3.673   6.627   6.161  0.0337 -0.6736 -0.6694
12497TIP3   OH258905   4.359   2.067  15.133 -0.4533  0.4379  0.5877
12497TIP3    H158906   4.282   2.090  15.185 -0.7790  1.2290 -0.1974
12497TIP3    H258907   4.325   2.060  15.043 -0.1617 -2.1738  0.6181
12498TIP3   OH258908   4.289   6.574   4.641  0.0480  0.1333 -0.4196
12498TIP3    H158909   4.338   6.652   4.616 -0.5607  1.0783  1.2004
12498TIP3    H258910   4.205   6.607   4.673 -1.4650 -1.3995 -2.4920
12499TIP3   OH258911   4.356   4.103  15.671  0.0040  0.0994 -0.8800
12499TIP3    H158912   4.309   4.119  15.589 -0.7781 -0.1412 -0.4875
12499TIP3    H258913   4.382   4.191  15.700 -0.0211  0.2171 -1.2008
12500TIP3   OH258914   5.014   1.914  14.946 -0.0872  0.2527 -0.0772
12500TIP3    H158915   4.937   1.881  14.991  0.3416 -2.0079 -0.9108
12500TIP3    H258916   4.980   1.980  14.885 -1.2544 -0.2400  0.0296
12501TIP3   OH258917   5.131   0.817   0.603 -0.1076 -0.3784 -0.0118
12501TIP3    H158918   5.192   0.832   0.531 -0.7551 -0.7180 -0.6384
12501TIP3    H258919   5.147   0.726   0.629 -1.0218 -0.7885 -0.8351
12502TIP3   OH258920   6.182   4.435   4.308  0.3589 -0.1168  0.1878
12502TIP3    H158921   6.182   4.430   4.212 -0.3189 -0.6796  0.2049
12502TIP3    H258922   6.128   4.360   4.335  1.8853 -0.9498  1.0573
12503TIP3   OH258923   1.496   3.798   0.520  0.0806  0.3071 -0.0397
12503TIP3    H158924   1.586   3.820   0.543 -0.5715  0.9976  2.0493
12503TIP3    H258925   1.443   3.834   0.592 -1.5946 -2.6879  0.3922
12504TIP3   OH258926   2.490   4.067   1.656  0.1103 -0.0615 -0.5644
12504TIP3    H158927   2.471   4.151   1.614 -1.4819 -0.2025 -0.2124
12504TIP3    H258928   2.582   4.072   1.681  0.0281  1.5871 -0.5176
12505TIP3   OH258929   4.546   5.198   5.458 -0.2038  0.5923  0.1201
12505TIP3    H158930   4.595   5.278   5.475  1.6556  0.2602 -2.8445
12505TIP3    H258931   4.512   5.210   5.369 -0.4382 -1.6186 -0.1493
12506TIP3   OH258932   4.925   5.561  11.869 -0.0524 -0.1338 -0.4004
12506TIP3    H158933   4.866   5.631  11.838 -0.0702 -0.3566 -0.8850
12506TIP3    H258934   4.950   5.515  11.789  1.8999  0.8131 -0.3821
12507TIP3   OH258935   4.455   2.960  13.814  0.6465 -0.3828  0.1530
12507TIP3    H158936   4.491   2.926  13.733  1.6352 -1.0646  0.8489
12507TIP3    H258937   4.532   2.982  13.867  0.0383 -0.7443  1.2167
12508TIP3   OH258938   1.053   3.729  11.543  0.1958 -0.1043 -0.9632
12508TIP3    H158939   1.068   3.801  11.482  0.2542  0.7526  0.0334
12508TIP3    H258940   1.084   3.762  11.627  0.6920 -1.4772 -0.5737
12509TIP3   OH258941   1.171   5.527   6.534 -0.4819 -0.1050  0.6477
12509TIP3    H158942   1.143   5.551   6.622 -0.3440 -0.2791  0.7410
12509TIP3    H258943   1.141   5.599   6.478 -0.1876  0.2175  0.9030
12510TIP3   OH258944   5.307   3.070   1.124 -0.0424 -0.0366  0.2920
12510TIP3    H158945   5.331   2.978   1.112 -0.7152 -0.0712 -1.0364
12510TIP3    H258946   5.228   3.081   1.071  0.4908  1.4934 -0.2559
12511TIP3   OH258947   5.504   1.899  16.231  0.0033 -0.2386  0.0120
12511TIP3    H158948   5.485   1.884  16.138  0.4254 -1.3497  0.0924
12511TIP3    H258949   5.594   1.931  16.233 -0.3418  0.7600 -0.0311
12512TIP3   OH258950   1.290   5.054   0.749 -0.4781 -0.2032  0.2282
12512TIP3    H158951   1.220   5.024   0.806 -0.5645  0.1564  0.3134
12512TIP3    H258952   1.335   5.122   0.799 -0.6468  0.2235 -0.1841
12513TIP3   OH258953   4.886   1.903   4.601 -0.1477 -0.9226  0.0257
12513TIP3    H158954   4.856   1.849   4.674 -0.9170  0.4851  0.8121
12513TIP3    H258955   4.840   1.869   4.524 -0.0002 -1.8701  0.3446
12514TIP3   OH258956   2.038   5.181   4.066  0.2166  0.0433  0.1701
12514TIP3    H158957   2.037   5.244   4.138  0.9600  0.5971 -0.2785
12514TIP3    H258958   1.953   5.138   4.070 -0.5429  1.4723  0.1537
12515TIP3   OH258959   3.133   2.169   1.824 -0.0085  0.0556  0.1442
12515TIP3    H158960   3.067   2.195   1.760 -0.4488  1.0599  0.9902
12515TIP3    H258961   3.171   2.251   1.855  1.4545 -0.4883 -0.1137
12516TIP3   OH258962   6.668   0.165   6.461  0.0381 -0.1907  1.0337
12516TIP3    H158963   6.716   0.116   6.527  0.1760 -2.5024 -0.6586
12516TIP3    H258964   6.580   0.176   6.497  0.4108 -0.4593  2.0375
12517TIP3   OH258965   1.926   3.622   0.893 -0.0111  0.1557  0.0966
12517TIP3    H158966   1.912   3.716   0.891 -0.9187  0.0615 -2.7752
12517TIP3    H258967   2.011   3.609   0.850 -0.4010 -0.3468 -0.5593
12518TIP3   OH258968   0.084   3.058  12.217 -0.5696  0.8401  0.3444
12518TIP3    H158969   0.045   3.042  12.132 -2.7295  0.8736  1.2714
12518TIP3    H258970   0.169   3.013  12.214 -1.5557 -1.0447 -1.0413
12519TIP3   OH258971   2.337   1.749  13.774  0.0572  0.6490  0.1665
12519TIP3    H158972   2.377   1.697  13.844 -1.4439 -0.7720  0.0061
12519TIP3    H258973   2.300   1.685  13.713 -0.2374  1.8832 -1.0072
12520TIP3   OH258974   3.688   4.893   0.624  0.2275 -0.6207 -0.2206
12520TIP3    H158975   3.676   4.799   0.640 -2.4767 -0.5536 -1.4645
12520TIP3    H258976   3.679   4.903   0.529  1.7639  0.7740 -0.2693
12521TIP3   OH258977   5.960   5.491   2.593 -0.2202  0.0302 -0.1940
12521TIP3    H158978   6.024   5.540   2.645  1.8326  0.3670 -2.8335
12521TIP3    H258979   5.920   5.431   2.655  2.6347 -0.1556  1.6738
12522TIP3   OH258980   5.387   5.046   5.556  0.1762 -0.4869 -0.0604
12522TIP3    H158981   5.442   4.984   5.604  0.0248  1.1655  2.3676
12522TIP3    H258982   5.343   5.098   5.623 -0.3813  1.7071 -1.9757
12523TIP3   OH258983   0.795   6.008   2.213  0.4145 -0.1144  0.3556
12523TIP3    H158984   0.852   6.021   2.138 -1.1173  1.4226 -0.6186
12523TIP3    H258985   0.770   6.096   2.240  0.3794 -0.6633  2.2685
12524TIP3   OH258986   4.482   2.734  12.187 -0.1774 -0.3593  0.1306
12524TIP3    H158987   4.404   2.713  12.239 -0.0060  0.3716  0.6935
12524TIP3    H258988   4.474   2.827  12.168 -0.8589 -0.8153 -2.2229
12525TIP3   OH258989   2.761   0.313  14.363 -0.6041  0.1339 -0.1812
12525TIP3    H158990   2.825   0.294  14.294 -2.2578  1.0145 -2.0495
12525TIP3    H258991   2.813   0.345  14.436  1.1170  0.6960 -1.5800
12526TIP3   OH258992   0.238   1.966   5.603 -0.3628  0.2385  0.0995
12526TIP3    H158993   0.263   2.021   5.529  0.0332  0.1270  0.1511
12526TIP3    H258994   0.154   1.927   5.577  0.1174 -0.3576 -0.5793
12527TIP3   OH258995   6.443   2.088  13.657  0.2794  0.4208  0.5358
12527TIP3    H158996   6.471   2.076  13.747 -0.0419  1.5266  0.7975
12527TIP3    H258997   6.507   2.150  13.620  2.4909 -2.5773 -1.0547
12528TIP3   OH258998   4.209   3.430  10.598 -0.8956 -0.1319  0.2783
12528TIP3    H158999   4.161   3.494  10.545  0.5487  0.3695 -0.5073
12528TIP3    H259000   4.252   3.482  10.666  0.4860 -0.1870 -0.5104
12529TIP3   OH259001   5.472   3.199  10.684 -0.3159  0.6099  0.3804
12529TIP3    H159002   5.528   3.254  10.628  0.3677  0.0438  0.4819
12529TIP3    H259003   5.440   3.130  10.625  0.5724 -0.1087  0.6999
12530TIP3   OH259004   2.356   4.420  16.941 -0.2906  0.1146  0.0529
12530TIP3    H159005   2.346   4.329  16.968 -2.7424 -0.3793 -2.1455
12530TIP3    H259006   2.266   4.453  16.933  0.4896  2.1646 -0.9722
12531TIP3   OH259007   2.686   2.818   4.007 -0.6404 -0.4270 -0.1054
12531TIP3    H159008   2.696   2.805   4.102 -0.2119  0.0907 -0.0760
12531TIP3    H259009   2.775   2.808   3.973  0.0207  3.4506  0.0465
12532TIP3   OH259010   1.976   3.459  13.991 -0.0038 -0.1467 -0.2572
12532TIP3    H159011   2.036   3.529  14.016  0.3295  0.5769 -2.8016
12532TIP3    H259012   2.016   3.379  14.025  0.6075  0.6646  1.0159
12533TIP3   OH259013   4.140   0.750  15.009 -0.1011 -0.0540  0.4475
12533TIP3    H159014   4.102   0.826  15.053 -1.0548  1.2190 -2.3284
12533TIP3    H259015   4.074   0.681  15.019 -0.8821  0.6044 -0.0623
12534TIP3   OH259016   3.704   2.313   2.085 -0.4543 -0.3487  0.0035
12534TIP3    H159017   3.756   2.380   2.040 -0.5684  0.4578  1.0225
12534TIP3    H259018   3.668   2.358   2.161 -0.7118 -1.5282  0.6081
12535TIP3   OH259019   2.363   0.214   4.053  0.1877  0.2091 -0.0941
12535TIP3    H159020   2.383   0.129   4.093  0.4599  0.6856  0.8247
12535TIP3    H259021   2.364   0.275   4.127  0.3026  1.0577 -0.7883
12536TIP3   OH259022   6.600   2.379   5.426  0.0755 -0.2371 -0.1611
12536TIP3    H159023   6.692   2.354   5.429 -0.1881 -1.3101 -0.6489
12536TIP3    H259024   6.555   2.303   5.389 -0.9238  0.5051 -0.5227
12537TIP3   OH259025   0.102   0.460   4.791  0.4561  0.3793 -0.0064
12537TIP3    H159026   0.020   0.412   4.799 -0.5704  2.0635  0.0234
12537TIP3    H259027   0.122   0.489   4.880  0.5689  0.8023 -0.1676
12538TIP3   OH259028   2.107   1.077  15.110 -0.4047 -0.6330  0.1661
12538TIP3    H159029   2.181   1.088  15.170  0.3210 -0.4714 -0.7387
12538TIP3    H259030   2.072   0.990  15.132  1.1606 -1.4921 -0.5545
12539TIP3   OH259031   1.342   1.541   0.847  0.2120  0.1553  0.0944
12539TIP3    H159032   1.398   1.534   0.769 -1.9395  0.5037 -1.5588
12539TIP3    H259033   1.374   1.619   0.892  0.3117  1.0570 -1.4647
12540TIP3   OH259034   3.411   4.945  15.343 -0.1349 -0.0315 -0.5618
12540TIP3    H159035   3.455   4.860  15.342 -1.3062 -0.6648 -0.2971
12540TIP3    H259036   3.461   4.997  15.406  3.0435  0.9048 -3.4877
12541TIP3   OH259037   1.752   5.940   1.584 -0.0420  0.2296  0.2770
12541TIP3    H159038   1.764   5.888   1.663 -2.9836 -0.3694  0.4368
12541TIP3    H259039   1.828   5.919   1.530  0.0904 -2.3793  1.3412
12542TIP3   OH259040   3.921   0.643  14.610  0.1430 -0.0276 -0.5940
12542TIP3    H159041   3.834   0.669  14.640  0.4473  0.8180 -0.4263
12542TIP3    H259042   3.910   0.624  14.517  0.0057  1.1877 -0.8402
12543TIP3   OH259043   1.243   4.290  11.418 -0.5228  0.4049 -0.0980
12543TIP3    H159044   1.165   4.311  11.468 -1.8281 -4.6399  0.5270
12543TIP3    H259045   1.213   4.285  11.327  0.1260  2.3959 -0.4600
12544TIP3   OH259046   5.410   0.422  10.608 -0.1278 -0.1413  0.5640
12544TIP3    H159047   5.405   0.457  10.519 -0.6065  2.0023  1.3779
12544TIP3    H259048   5.504   0.408  10.622 -0.1221 -1.8138 -0.6794
12545TIP3   OH259049   4.013   5.391   5.768  0.8294  0.2438 -0.1828
12545TIP3    H159050   3.945   5.324   5.779  0.1806  1.0983  1.3385
12545TIP3    H259051   4.091   5.353   5.808  0.7750 -0.0275 -0.3275
12546TIP3   OH259052   4.718   6.041  12.890 -0.9719 -0.0929 -0.1291
12546TIP3    H159053   4.784   6.009  12.828 -0.7886  1.7738 -0.9682
12546TIP3    H259054   4.634   6.025  12.846 -1.0990 -2.1193  0.7735
12547TIP3   OH259055   1.560   0.878   2.987 -0.4526 -0.7764 -0.0622
12547TIP3    H159056   1.598   0.866   3.074  1.4573  0.0771 -0.7145
12547TIP3    H259057   1.518   0.964   2.990  0.4429 -0.3204 -0.2328
12548TIP3   OH259058   1.111   4.828   1.356 -0.3377  0.1335  0.0061
12548TIP3    H159059   1.068   4.804   1.438 -0.1484 -0.1365  0.0261
12548TIP3    H259060   1.099   4.752   1.299 -0.2573  0.2237 -0.1313
12549TIP3   OH259061   0.870   3.293   5.466  0.2502  0.1273  0.4403
12549TIP3    H159062   0.920   3.365   5.427 -1.0631  0.2875 -1.0633
12549TIP3    H259063   0.811   3.336   5.528  0.1122  0.2391  0.2315
12550TIP3   OH259064   3.186   4.610   1.136  0.4446 -0.2798  0.0108
12550TIP3    H159065   3.271   4.632   1.098  0.4395 -1.2158 -0.5785
12550TIP3    H259066   3.125   4.615   1.063  0.1793 -0.6316  0.2076
12551TIP3   OH259067   0.325   2.196   4.025 -0.1650  0.1434  0.2377
12551TIP3    H159068   0.290   2.174   4.111 -0.7408 -0.0693 -0.0418
12551TIP3    H259069   0.285   2.280   4.003 -0.3666 -0.0130 -0.0067
12552TIP3   OH259070   1.342   5.766   6.195 -0.4276 -0.0755 -0.6540
12552TIP3    H159071   1.408   5.721   6.142  0.5123  0.7649 -0.2428
12552TIP3    H259072   1.334   5.712   6.274 -0.4471 -0.3365 -0.8338
12553TIP3   OH259073   0.982   0.428   5.109  0.5188  0.1516 -0.2260
12553TIP3    H159074   0.973   0.343   5.154 -0.1787  0.2311 -0.2077
12553TIP3    H259075   1.063   0.420   5.059  0.2319 -0.6959 -0.5799
12554TIP3   OH259076   2.131   0.171   3.894 -0.3349  0.0328 -0.8229
12554TIP3    H159077   2.210   0.171   3.948 -0.1201  0.0999 -1.1347
12554TIP3    H259078   2.075   0.238   3.934  0.4572  1.2102 -1.5937
12555TIP3   OH259079   4.265   3.738   4.388 -0.0726  0.3273  0.0123
12555TIP3    H159080   4.275   3.649   4.421 -0.9579 -0.1876 -1.0360
12555TIP3    H259081   4.354   3.765   4.365  0.1726 -0.3724  0.1103
12556TIP3   OH259082   0.874   6.484  17.113 -0.4427  0.1405  0.3779
12556TIP3    H159083   0.825   6.501  17.032 -1.2419 -1.3380  0.5025
12556TIP3    H259084   0.848   6.554  17.173  1.0224  1.9141 -0.9618
12557TIP3   OH259085   2.035   0.809  16.363 -0.5660 -0.5108  0.2171
12557TIP3    H159086   2.004   0.873  16.427 -1.9720 -0.5454 -0.3953
12557TIP3    H259087   2.097   0.754  16.411  0.3681  1.0442  0.8624
12558TIP3   OH259088   5.640   1.466   5.461  0.3736  0.1260 -0.4541
12558TIP3    H159089   5.562   1.468   5.517  0.4917 -1.6261 -0.1401
12558TIP3    H259090   5.609   1.495   5.375 -0.1784  1.2818  0.1088
12559TIP3   OH259091   0.734   1.838  13.550  0.3224  0.3961  0.6504
12559TIP3    H159092   0.650   1.873  13.578  1.2663  0.6863  3.4604
12559TIP3    H259093   0.789   1.915  13.535  0.0719  0.2179 -1.4297
12560TIP3   OH259094   4.099   1.654  13.581  0.1390 -0.0693 -0.0932
12560TIP3    H159095   4.167   1.659  13.648 -1.4944 -1.0453  1.7702
12560TIP3    H259096   4.053   1.737  13.588 -0.3194 -0.3511  0.3775
12561TIP3   OH259097   3.562   6.305   1.176  0.5381 -0.1153 -0.1373
12561TIP3    H159098   3.588   6.239   1.112 -1.8731 -0.2470 -1.0673
12561TIP3    H259099   3.634   6.368   1.176  1.4021 -1.0363 -1.6417
12562TIP3   OH259100   0.981   5.457  12.337 -0.7073 -0.0961  0.7271
12562TIP3    H159101   0.970   5.372  12.295  2.0547 -0.6225  0.9100
12562TIP3    H259102   0.929   5.517  12.284 -3.0243 -1.8780  0.7867
12563TIP3   OH259103   5.529   2.297  10.960 -0.1224  0.0058  0.3793
12563TIP3    H159104   5.566   2.342  10.883 -1.2976  0.2916 -0.0329
12563TIP3    H259105   5.550   2.205  10.946 -1.9429 -0.2157 -1.2647
12564TIP3   OH259106   2.010   3.827   5.672 -0.2165 -0.2065 -0.2300
12564TIP3    H159107   2.081   3.848   5.733 -0.2887 -0.0464 -0.2000
12564TIP3    H259108   2.053   3.784   5.598  0.2017  1.6938 -1.1543
12565TIP3   OH259109   2.395   3.321  14.152  0.1345  0.6662 -0.1998
12565TIP3    H159110   2.456   3.394  14.163  1.5223 -0.1719 -1.8334
12565TIP3    H259111   2.366   3.328  14.061 -1.0619  0.1622  0.1246
12566TIP3   OH259112   2.312   1.993   2.434 -0.1469  0.4344  0.0475
12566TIP3    H159113   2.374   2.047   2.483 -0.1432 -1.7828  2.7434
12566TIP3    H259114   2.237   2.051   2.417 -0.4421  1.2338  3.4045
12567TIP3   OH259115   5.373   6.386   3.672 -0.1558  0.0450 -0.2640
12567TIP3    H159116   5.285   6.377   3.638 -0.6414  2.1868  0.2931
12567TIP3    H259117   5.429   6.384   3.595 -0.9681  1.7247 -0.9285
12568TIP3   OH259118   4.747   6.374   2.534 -0.5840 -0.5903 -0.5433
12568TIP3    H159119   4.770   6.448   2.476  0.5164 -0.7522 -0.3301
12568TIP3    H259120   4.757   6.409   2.622  0.3113 -1.0881 -0.4364
12569TIP3   OH259121   5.055   2.047  12.701 -0.1200  0.1581  0.0483
12569TIP3    H159122   5.007   2.130  12.705  0.8061  0.6629  1.9185
12569TIP3    H259123   5.147   2.072  12.712  0.3350 -0.9982 -0.9186
12570TIP3   OH259124   2.932   1.938  15.995 -0.0368 -0.4555 -0.1728
12570TIP3    H159125   2.922   1.945  15.900  1.1472 -0.7968 -0.3324
12570TIP3    H259126   2.993   1.866  16.007  0.8609  0.4410  0.8007
12571TIP3   OH259127   3.670   0.993  16.084  0.1314  0.2932 -0.3577
12571TIP3    H159128   3.722   1.005  16.004 -0.8266 -0.2627 -1.0811
12571TIP3    H259129   3.625   0.909  16.071  2.2401 -1.3525  2.0748
12572TIP3   OH259130   4.013   2.322  11.449  0.4009 -0.2116 -0.3161
12572TIP3    H159131   4.042   2.251  11.506 -0.1524 -1.2745 -1.2998
12572TIP3    H259132   3.918   2.311  11.443  0.2970  0.6735 -0.4092
12573TIP3   OH259133   2.185   1.373   3.223  0.3514  0.5160  0.0658
12573TIP3    H159134   2.098   1.381   3.263  0.2402  0.4947 -0.1667
12573TIP3    H259135   2.206   1.280   3.229 -0.6249  0.1154 -1.8795
12574TIP3   OH259136   3.405   2.530   5.242 -0.1367 -0.0663  0.0015
12574TIP3    H159137   3.350   2.554   5.168  0.4609 -1.3097 -0.8782
12574TIP3    H259138   3.376   2.587   5.313 -1.3864  0.4715 -0.9084
12575TIP3   OH259139   6.347   3.328  14.492  0.3509 -0.3964  0.0342
12575TIP3    H159140   6.279   3.266  14.466 -0.4965 -0.1564  1.5582
12575TIP3    H259141   6.330   3.406  14.438  0.6398 -1.0185 -0.9781
12576TIP3   OH259142   2.862   3.140   2.896 -0.0875  0.3111 -0.2233
12576TIP3    H159143   2.846   3.051   2.864  2.5612  0.4864 -2.3735
12576TIP3    H259144   2.815   3.195   2.833  1.3702  0.5108 -1.1700
12577TIP3   OH259145   0.938   6.075   6.659  0.2964  0.0759  0.1223
12577TIP3    H159146   0.979   5.989   6.650 -1.9154 -0.8580 -1.8058
12577TIP3    H259147   1.012   6.136   6.662  1.8889 -1.7850  0.3489
12578TIP3   OH259148   5.879   2.829   5.251  0.0357  0.0462  1.2937
12578TIP3    H159149   5.912   2.890   5.317 -0.4344  1.9188 -0.1168
12578TIP3    H259150   5.798   2.794   5.290  1.1857 -1.0448  2.8254
12579TIP3   OH259151   1.538   4.692  11.741  0.1379 -0.4021  0.0642
12579TIP3    H159152   1.532   4.596  11.745  3.8960 -0.7744  0.0462
12579TIP3    H259153   1.539   4.711  11.647  2.5982 -0.7661 -0.0502
12580TIP3   OH259154   1.413   3.415   2.752 -0.9160 -0.9785  0.3235
12580TIP3    H159155   1.326   3.452   2.763 -0.3424 -0.1600  2.4636
12580TIP3    H259156   1.474   3.485   2.776  0.2384 -2.5216  2.3214
12581TIP3   OH259157   2.186   4.670   1.707  0.5082  0.0752 -0.8780
12581TIP3    H159158   2.167   4.652   1.614  0.4576 -0.7888 -0.7066
12581TIP3    H259159   2.157   4.591   1.753 -1.4566  1.2939  0.1376
12582TIP3   OH259160   0.089   0.254  14.536  0.6122  0.4098  0.2923
12582TIP3    H159161   0.064   0.303  14.614  0.9853 -0.9166  1.3063
12582TIP3    H259162   0.040   0.172  14.543 -1.1454  1.1661 -2.1233
12583TIP3   OH259163   3.259   4.541  16.277 -0.0576  0.3325 -0.2784
12583TIP3    H159164   3.167   4.543  16.250 -0.3728  0.1495  0.7190
12583TIP3    H259165   3.304   4.601  16.218 -0.9789  1.0894 -0.2318
12584TIP3   OH259166   2.332   2.315   4.277  0.2461 -0.7822  0.3448
12584TIP3    H159167   2.241   2.288   4.264  0.3912 -0.9661 -0.3786
12584TIP3    H259168   2.327   2.400   4.320 -0.2503 -1.2903  1.3106
12585TIP3   OH259169   3.135   5.529  15.757  0.1691  0.1812 -0.4148
12585TIP3    H159170   3.229   5.529  15.735  0.4665  0.6128  0.8120
12585TIP3    H259171   3.117   5.618  15.786 -0.3982 -0.1576  0.2934
12586TIP3   OH259172   6.196   4.645   3.321 -0.0327 -0.4664  0.2126
12586TIP3    H159173   6.216   4.739   3.327 -1.4500 -0.1220 -0.0150
12586TIP3    H259174   6.279   4.604   3.297  0.3604  0.8695 -0.8211
12587TIP3   OH259175   1.848   2.209   2.984 -0.1395 -0.5096  0.2390
12587TIP3    H159176   1.858   2.142   3.051 -0.7855 -0.5054  0.3392
12587TIP3    H259177   1.824   2.160   2.905 -1.2153 -0.3542  0.4550
12588TIP3   OH259178   4.736   4.846  10.709 -0.0782 -0.2502 -0.3953
12588TIP3    H159179   4.825   4.879  10.703 -0.2188  0.1473 -0.3247
12588TIP3    H259180   4.733   4.774  10.647  0.4353 -0.5957 -0.0223
12589TIP3   OH259181   2.458   1.231   2.325 -0.5849  0.2507 -0.5747
12589TIP3    H159182   2.369   1.195   2.329 -0.1882 -0.7327 -0.2069
12589TIP3    H259183   2.481   1.249   2.416  0.1854 -1.0740 -0.4715
12590TIP3   OH259184   2.679   4.813  16.438 -0.0472  0.0608 -0.4686
12590TIP3    H159185   2.654   4.740  16.382  0.1894  0.1279 -0.6629
12590TIP3    H259186   2.698   4.884  16.377 -1.2025  0.5785 -0.2480
12591TIP3   OH259187   6.118   4.716   2.347 -0.1105  0.3302  0.4282
12591TIP3    H159188   6.124   4.694   2.440 -1.1586  0.4631  0.5418
12591TIP3    H259189   6.133   4.632   2.302  1.2257  0.4117  0.6653
12592TIP3   OH259190   4.725   5.224  12.792 -0.1179  0.4891  0.8514
12592TIP3    H159191   4.713   5.251  12.883  2.3944  0.8857  1.1294
12592TIP3    H259192   4.695   5.133  12.790  1.5254 -0.1555  2.5673
12593TIP3   OH259193   2.734   6.233   2.156  0.4049  0.4196 -0.0737
12593TIP3    H159194   2.802   6.238   2.224 -0.1732  0.2066  0.5259
12593TIP3    H259195   2.670   6.299   2.180 -0.2773 -0.2948  0.1217
12594TIP3   OH259196   6.172   5.278   5.853 -0.1186  0.0047  0.6300
12594TIP3    H159197   6.079   5.298   5.843  0.0743  1.5587  1.5972
12594TIP3    H259198   6.177   5.226   5.933 -0.1068  0.3144  0.8304
12595TIP3   OH259199   3.770   4.077  13.657 -0.1208 -0.0919 -0.2347
12595TIP3    H159200   3.763   4.089  13.752 -2.3554  1.1604 -0.4977
12595TIP3    H259201   3.808   3.990  13.647 -2.0421 -1.2796  1.8256
12596TIP3   OH259202   0.982   0.040   0.160 -0.3958 -0.0198  0.3136
12596TIP3    H159203   1.020   0.002   0.081 -0.2295  0.5661  0.1082
12596TIP3    H259204   1.000   0.134   0.153 -0.1432  0.0031  1.1800
12597TIP3   OH259205   4.800   0.875  11.256 -0.1251 -0.5025 -0.0042
12597TIP3    H159206   4.754   0.791  11.261 -1.9937  0.5048  0.4752
12597TIP3    H259207   4.886   0.853  11.220 -0.8027 -2.5213 -0.4999
12598TIP3   OH259208   1.975   4.107  13.330  0.2938 -0.5446 -0.2889
12598TIP3    H159209   1.880   4.098  13.324  0.1901  1.1855 -1.7601
12598TIP3    H259210   2.002   4.147  13.247  2.2704 -0.5831  0.2686
12599TIP3   OH259211   1.060   4.291   5.341 -0.5403 -0.2378 -0.7068
12599TIP3    H159212   1.058   4.227   5.413  1.4412 -0.9360 -1.2340
12599TIP3    H259213   1.091   4.372   5.382  0.8933 -0.7188 -0.8077
12600TIP3   OH259214   0.006   4.159   1.157 -0.0576 -0.0210  0.3106
12600TIP3    H159215  -0.023   4.069   1.140  2.2235 -0.8259  0.4374
12600TIP3    H259216   0.017   4.198   1.070  0.8022 -0.4913  0.2075
12601TIP3   OH259217   2.895   3.303   3.141 -0.7180 -0.2682  0.2737
12601TIP3    H159218   2.971   3.359   3.125 -0.9727  0.2627  0.8832
12601TIP3    H259219   2.881   3.257   3.058 -0.1640  0.1554 -0.0609
12602TIP3   OH259220   4.550   4.926  11.207 -0.1427 -0.4698  0.6973
12602TIP3    H159221   4.612   4.913  11.135  0.5028 -0.0862  1.1769
12602TIP3    H259222   4.560   4.847  11.261 -0.6695 -0.7850  0.3516
12603TIP3   OH259223   5.507   6.121   6.452  0.6472 -0.3222 -0.8165
12603TIP3    H159224   5.511   6.216   6.440  1.3014  0.2275  2.6537
12603TIP3    H259225   5.427   6.106   6.503  1.1725 -1.4766 -0.2796
12604TIP3   OH259226   0.473   5.003  12.405  0.3862 -0.6560  0.4825
12604TIP3    H159227   0.421   5.011  12.325  2.1452 -2.7131 -0.9983
12604TIP3    H259228   0.564   5.004  12.374  1.2152  0.4568  2.7147
12605TIP3   OH259229   4.850   3.149  10.700 -0.1803  0.7120 -0.0736
12605TIP3    H159230   4.783   3.086  10.672  2.1267 -1.5910 -0.7782
12605TIP3    H259231   4.804   3.232  10.704 -3.1078 -0.7513 -0.3794
12606TIP3   OH259232   5.763   4.682  13.637 -0.1180 -0.0637 -0.5026
12606TIP3    H159233   5.775   4.624  13.712 -0.3608 -0.5368 -0.8235
12606TIP3    H259234   5.700   4.636  13.581  0.4194  0.0579 -1.2202
12607TIP3   OH259235   5.156   5.144   2.939 -0.0400  0.2754 -0.1933
12607TIP3    H159236   5.135   5.229   2.977 -0.1851 -0.0003  0.3613
12607TIP3    H259237   5.071   5.103   2.922 -0.0499 -0.8493  2.0723
12608TIP3   OH259238   1.807   5.802   0.206 -0.2950 -0.1411 -0.2183
12608TIP3    H159239   1.824   5.896   0.209  0.9214 -0.3694  1.6250
12608TIP3    H259240   1.888   5.764   0.171 -0.4033 -0.5704 -0.0096
12609TIP3   OH259241   3.773   4.769  13.713 -0.2812 -0.8046  0.6523
12609TIP3    H159242   3.827   4.735  13.641 -0.3989 -0.0839  0.2212
12609TIP3    H259243   3.732   4.847  13.677  0.8136  0.4139  1.9647
12610TIP3   OH259244   3.787   5.952   4.277 -1.1995  0.1137 -0.6303
12610TIP3    H159245   3.756   6.041   4.260 -1.0162 -0.1997 -2.8269
12610TIP3    H259246   3.793   5.911   4.191  2.2343 -0.8854 -0.0553
12611TIP3   OH259247   0.809   1.563  13.282 -0.2751 -0.0822  0.3385
12611TIP3    H159248   0.735   1.616  13.312 -0.0440  0.4413 -0.0082
12611TIP3    H259249   0.854   1.537  13.362  0.3304  1.2889  0.4689
12612TIP3   OH259250   2.069   1.110  14.402  0.1031  0.7611 -0.2267
12612TIP3    H159251   2.036   1.060  14.328  1.0025 -2.1135  1.1459
12612TIP3    H259252   2.020   1.192  14.400 -1.3773 -0.0783 -2.7297
12613TIP3   OH259253   2.317   2.769  11.549  0.0322  0.1931 -0.2080
12613TIP3    H159254   2.258   2.696  11.568  1.3926 -0.8571  0.1976
12613TIP3    H259255   2.349   2.751  11.461  0.7054  0.0447  0.0597
12614TIP3   OH259256   5.394   3.669   0.949  0.0833  0.0530 -0.2741
12614TIP3    H159257   5.400   3.587   0.901  0.1383 -0.0345 -0.1180
12614TIP3    H259258   5.472   3.671   1.004 -0.4025 -0.2517  0.4425
12615TIP3   OH259259   0.712   6.266   4.932 -0.0587  0.1216 -0.4438
12615TIP3    H159260   0.759   6.343   4.964 -0.1204  1.0463 -2.4257
12615TIP3    H259261   0.696   6.214   5.011  2.9256  0.4783  0.5508
12616TIP3   OH259262   1.284   5.743  13.579 -0.1837  0.1211 -0.5804
12616TIP3    H159263   1.242   5.791  13.650  0.7104 -0.0431  0.0732
12616TIP3    H259264   1.222   5.672  13.559  0.8228 -1.6760  2.1069
12617TIP3   OH259265   3.502   2.874  11.690 -0.4675  0.2338  0.0986
12617TIP3    H159266   3.544   2.941  11.745 -1.8101 -0.1539  1.6887
12617TIP3    H259267   3.414   2.864  11.728  0.1133 -3.3920  0.7877
12618TIP3   OH259268   1.621   6.752  11.330 -0.0855  0.6714 -0.4254
12618TIP3    H159269   1.563   6.756  11.406  1.8390  1.1405  1.0841
12618TIP3    H259270   1.647   6.660  11.324 -3.1039 -0.1916 -2.8892
12619TIP3   OH259271   0.168   4.720  14.207  0.2377 -0.0151 -0.4834
12619TIP3    H159272   0.112   4.797  14.205  1.4936  0.9739  0.4274
12619TIP3    H259273   0.193   4.707  14.116  0.1136  0.7473 -0.6357
12620TIP3   OH259274   2.380   4.543   4.416  0.1070 -0.2664  0.3238
12620TIP3    H159275   2.302   4.539   4.471  0.5557 -0.3661  0.9777
12620TIP3    H259276   2.441   4.481   4.457  0.4890 -0.2640 -0.2302
12621TIP3   OH259277   5.707   3.593   4.439  0.0802 -0.2493 -0.4607
12621TIP3    H159278   5.744   3.594   4.351 -0.1605 -1.1143 -0.5823
12621TIP3    H259279   5.628   3.539   4.432 -0.4564  0.4270  0.0887
12622TIP3   OH259280   2.965   3.598   2.983  0.2057  0.7678 -0.5605
12622TIP3    H159281   2.964   3.614   2.888 -0.5986  1.4562 -0.4548
12622TIP3    H259282   2.874   3.613   3.010  0.7338  2.0756  0.5587
12623TIP3   OH259283   1.520   1.778  12.874  0.0308  0.4607 -0.5626
12623TIP3    H159284   1.595   1.769  12.934  0.1397  1.3243 -0.5591
12623TIP3    H259285   1.538   1.716  12.804 -0.9735 -1.9281  1.1473
12624TIP3   OH259286   2.282   5.528   1.272  0.3920 -0.2407  0.6210
12624TIP3    H159287   2.369   5.489   1.282 -0.2550 -1.6403  1.1300
12624TIP3    H259288   2.228   5.457   1.236 -0.0346  1.2989 -1.9596
12625TIP3   OH259289   4.048   2.957  11.575 -0.6382  0.7724  0.1972
12625TIP3    H159290   4.005   2.872  11.580 -0.3641  0.6212  0.0122
12625TIP3    H259291   4.069   2.979  11.666 -0.4962  0.5352  0.2206
12626TIP3   OH259292   5.789   3.076   3.698  0.1018 -0.0065  0.0751
12626TIP3    H159293   5.774   3.081   3.792  1.2748  0.1144  0.2582
12626TIP3    H259294   5.832   2.992   3.684  0.6651  0.3288 -0.2527
12627TIP3   OH259295   2.927   6.726  16.156 -0.4941 -0.0447  0.1883
12627TIP3    H159296   2.919   6.795  16.090 -0.8562  0.4306  0.7176
12627TIP3    H259297   2.975   6.768  16.228 -1.8438  0.0781  1.0628
12628TIP3   OH259298   6.484   0.204   2.565  0.8946 -0.2117  0.0893
12628TIP3    H159299   6.393   0.179   2.553  0.8469 -1.6493  2.7276
12628TIP3    H259300   6.530   0.161   2.493 -0.1927 -1.7717  0.2665
12629TIP3   OH259301   6.228   1.530   3.393  0.3593 -0.1199  0.4743
12629TIP3    H159302   6.315   1.490   3.396  0.3698 -0.0949  2.6511
12629TIP3    H259303   6.172   1.467   3.439 -0.5535  0.3456  0.0190
12630TIP3   OH259304   2.374   1.830   1.064 -0.8118 -0.9193  0.3908
12630TIP3    H159305   2.306   1.811   0.999  1.2468 -1.7979 -1.6287
12630TIP3    H259306   2.384   1.925   1.062 -1.7793 -0.7985  0.5569
12631TIP3   OH259307   6.533   2.203   4.919 -0.5267  0.1042 -0.3932
12631TIP3    H159308   6.593   2.273   4.943  0.6836 -0.6831 -1.0295
12631TIP3    H259309   6.544   2.137   4.987 -1.2657  0.2901 -0.0847
12632TIP3   OH259310   2.070   4.960   1.361 -0.7462  0.1246 -0.4086
12632TIP3    H159311   2.147   4.952   1.417 -1.4481  2.4212  1.0358
12632TIP3    H259312   2.103   4.947   1.272  1.1253  0.1179  0.2418
12633TIP3   OH259313   5.791   5.527   3.166  0.1694 -0.1191 -0.9697
12633TIP3    H159314   5.848   5.603   3.158 -2.5105  2.4936  1.8785
12633TIP3    H259315   5.844   5.462   3.211  2.2654  0.2851 -2.6815
12634TIP3   OH259316   4.411   6.098  11.230 -0.1136  0.1543  0.4873
12634TIP3    H159317   4.332   6.141  11.262  0.0116  0.8908 -0.1651
12634TIP3    H259318   4.426   6.136  11.143  0.4274 -0.6635  0.2063
12635TIP3   OH259319   3.402   5.685  15.769 -0.2955 -0.0227  0.1897
12635TIP3    H159320   3.376   5.711  15.681 -0.1260 -3.5082 -1.0589
12635TIP3    H259321   3.496   5.665  15.761 -0.3327 -0.6005  1.0835
12636TIP3   OH259322   6.214   0.259  11.561 -0.1835 -0.6114  0.3057
12636TIP3    H159323   6.155   0.281  11.634  1.6477 -1.3837  2.1097
12636TIP3    H259324   6.173   0.299  11.485 -1.7800  0.9536  1.8847
12637TIP3   OH259325   4.936   5.850  16.453 -1.0654 -0.5475  0.3488
12637TIP3    H159326   4.997   5.798  16.400  0.0398 -0.4642  1.4995
12637TIP3    H259327   4.877   5.786  16.491 -1.8856 -0.6104 -0.9545
12638TIP3   OH259328   4.389   1.229  14.358  0.8798 -0.2513 -0.4679
12638TIP3    H159329   4.412   1.147  14.314  0.7069 -1.3519  1.3795
12638TIP3    H259330   4.295   1.220  14.377  0.2203  1.5352 -2.5058
12639TIP3   OH259331   1.749   2.152  15.139 -0.1945 -0.1656 -0.3332
12639TIP3    H159332   1.762   2.057  15.142  0.3709 -0.0724  0.1538
12639TIP3    H259333   1.791   2.179  15.058 -0.9234 -0.4146 -0.8031
12640TIP3   OH259334   4.744   5.484  17.046 -0.2473  0.0340  0.4143
12640TIP3    H159335   4.663   5.529  17.072  0.5721  1.8113  0.0239
12640TIP3    H259336   4.730   5.460  16.955 -0.3855  0.2173  0.3863
12641TIP3   OH259337   4.859   6.746  12.779 -0.7744  0.2492 -0.4552
12641TIP3    H159338   4.838   6.814  12.843 -0.8155  0.3147 -0.5374
12641TIP3    H259339   4.905   6.679  12.829  1.1872  1.2973 -0.7914
12642TIP3   OH259340   4.643   5.462   5.502 -0.3428  0.7092 -0.8003
12642TIP3    H159341   4.736   5.481   5.516 -1.0424  3.5485  0.7649
12642TIP3    H259342   4.623   5.500   5.416 -0.1642  0.3495 -1.0071
12643TIP3   OH259343   0.874   6.412  12.623 -0.3942 -0.7737  0.5411
12643TIP3    H159344   0.929   6.345  12.665  1.2172  0.1261 -0.0509
12643TIP3    H259345   0.853   6.472  12.694  0.8500 -0.2113  0.4654
12644TIP3   OH259346   6.123   2.407  14.578 -0.6597 -0.3223  0.5399
12644TIP3    H159347   6.212   2.430  14.605 -0.2019 -1.4227  0.0089
12644TIP3    H259348   6.133   2.329  14.524 -1.8863 -0.0561 -0.1137
12645TIP3   OH259349   2.981   5.490  13.099 -0.4501  0.1897  0.3532
12645TIP3    H159350   2.898   5.499  13.053 -0.2840 -0.3212 -0.0486
12645TIP3    H259351   2.958   5.497  13.192 -1.0169 -0.5325  0.2720
12646TIP3   OH259352   1.737   5.283   0.442  0.0366 -0.2282  0.2074
12646TIP3    H159353   1.782   5.199   0.445  0.1946 -0.1251  1.2008
12646TIP3    H259354   1.755   5.323   0.528  1.3144  1.5252 -0.8030
12647TIP3   OH259355   5.901   3.596  14.067  0.3241 -0.5595  0.1685
12647TIP3    H159356   5.967   3.639  14.012 -0.1788  0.5348  0.3918
12647TIP3    H259357   5.893   3.652  14.143 -0.2961 -1.1113  0.5203
12648TIP3   OH259358   3.488   1.585  17.189  0.1394  0.5343 -0.2693
12648TIP3    H159359   3.500   1.640  17.112  1.3853  2.5848  1.2551
12648TIP3    H259360   3.575   1.583  17.230  0.3147 -3.1365 -0.4936
12649TIP3   OH259361   1.573   3.395  12.708  0.3373  0.7168 -0.0133
12649TIP3    H159362   1.546   3.328  12.646 -2.3206 -1.2932  3.0144
12649TIP3    H259363   1.645   3.356  12.756 -1.0607  0.0073  1.5976
12650TIP3   OH259364   5.331   4.142  13.180  0.4286  0.0340 -0.0882
12650TIP3    H159365   5.275   4.138  13.102 -0.5828  0.8143  0.5693
12650TIP3    H259366   5.301   4.220  13.227  1.2879 -0.1992  0.8799
12651TIP3   OH259367   2.441   0.210  12.370  0.1102  0.4116  0.4142
12651TIP3    H159368   2.490   0.209  12.452 -0.3900  0.1610  0.7154
12651TIP3    H259369   2.380   0.136  12.378 -0.1604  0.5842 -0.0424
12652TIP3   OH259370   1.157   2.751   2.197 -0.0803  0.6843 -0.4185
12652TIP3    H159371   1.114   2.666   2.185  0.2694  0.4793 -0.2295
12652TIP3    H259372   1.099   2.800   2.255 -1.5185  1.4747 -2.4120
12653TIP3   OH259373   2.726   4.746  15.789  0.4853 -0.0150 -0.7749
12653TIP3    H159374   2.773   4.807  15.732  0.5382  0.8008  0.1272
12653TIP3    H259375   2.666   4.700  15.730  0.9944  0.3532 -1.5983
12654TIP3   OH259376   3.942   2.980   3.253 -0.8796  0.5153 -0.3477
12654TIP3    H159377   3.883   2.918   3.211 -1.4289  0.4943  0.4247
12654TIP3    H259378   3.949   2.948   3.343  0.3681  0.4842 -0.4395
12655TIP3   OH259379   2.382   4.036   5.475 -0.1333 -0.1408  0.2551
12655TIP3    H159380   2.320   3.983   5.425 -0.2756  1.3254 -1.2178
12655TIP3    H259381   2.407   3.981   5.549 -0.8277 -1.9463 -0.7964
12656TIP3   OH259382   6.031   1.492   4.561  0.1121 -0.1382  0.5091
12656TIP3    H159383   6.109   1.522   4.514  0.9486 -0.8462  1.4085
12656TIP3    H259384   5.962   1.491   4.494  0.8014  0.7064 -0.2534
12657TIP3   OH259385   3.264   0.298   2.142 -0.0339 -0.7287 -0.3119
12657TIP3    H159386   3.281   0.369   2.205  1.5312 -1.9596  0.7528
12657TIP3    H259387   3.326   0.313   2.071 -0.9152 -0.0727 -0.9685
12658TIP3   OH259388   0.001   4.965  16.452 -0.8096  0.0405 -0.0870
12658TIP3    H159389  -0.092   4.989  16.456 -1.0795 -0.6681 -1.5399
12658TIP3    H259390   0.001   4.870  16.444  0.0465  0.0453 -0.2148
12659TIP3   OH259391   0.274   6.760   5.942  0.1526  0.1081  0.8118
12659TIP3    H159392   0.195   6.707   5.938 -0.5819  1.1325  1.1735
12659TIP3    H259393   0.310   6.743   6.029 -0.5361  0.8090  1.2451
12660TIP3   OH259394   0.883   4.654  13.972 -0.2659  0.1098  0.2656
12660TIP3    H159395   0.887   4.591  13.899 -0.1833  1.1262 -0.6270
12660TIP3    H259396   0.968   4.647  14.014  0.2306  0.5437 -0.6324
12661TIP3   OH259397   2.664   5.452   5.963 -0.5647 -0.2854  0.3136
12661TIP3    H159398   2.624   5.370   5.935  1.4639 -0.8551 -1.0878
12661TIP3    H259399   2.678   5.502   5.882 -0.7870  1.0083  1.0310
12662TIP3   OH259400   4.483   6.721  11.450  0.2996 -0.2509  0.3431
12662TIP3    H159401   4.417   6.682  11.393  0.5801 -0.0472 -0.1205
12662TIP3    H259402   4.448   6.708  11.539 -1.0732  1.1002  0.0393
12663TIP3   OH259403   5.129   4.272   5.513 -0.5437 -0.7579  0.1347
12663TIP3    H159404   5.177   4.353   5.533 -2.5482  0.3678  0.7030
12663TIP3    H259405   5.135   4.263   5.418  1.2696 -1.0084  0.2379
12664TIP3   OH259406   2.635   3.389  13.043  0.8918  0.2787  0.7641
12664TIP3    H159407   2.714   3.411  12.993  0.2792  0.8246  0.0293
12664TIP3    H259408   2.604   3.472  13.077  0.8457  0.0111  1.3958
12665TIP3   OH259409   3.559   5.725  14.000  0.3531  0.0324 -0.3655
12665TIP3    H159410   3.568   5.809  13.955  0.1562 -0.7215 -1.8703
12665TIP3    H259411   3.472   5.693  13.974  0.4597 -0.6869  0.1186
12666TIP3   OH259412   4.489   4.316   3.431 -0.4073 -0.1635  0.2788
12666TIP3    H159413   4.546   4.329   3.507  0.0497 -1.4460  0.1854
12666TIP3    H259414   4.470   4.222   3.432 -2.6438  0.2350  0.3949
12667TIP3   OH259415   4.339   3.843   6.052 -0.7471  0.4552  0.1093
12667TIP3    H159416   4.305   3.832   5.963 -0.1108  0.5145 -0.1473
12667TIP3    H259417   4.348   3.754   6.085 -2.9276  0.4574  0.8915
12668TIP3   OH259418   4.003   0.500   5.552 -0.4187 -0.2473 -0.4310
12668TIP3    H159419   4.083   0.454   5.575 -1.4547 -3.0264 -1.8438
12668TIP3    H259420   3.959   0.516   5.635  1.2036  0.6441  0.2921
12669TIP3   OH259421   4.479   2.825   5.008 -0.1001  0.8634 -0.5324
12669TIP3    H159422   4.510   2.874   5.085  0.2789 -0.5752  0.2583
12669TIP3    H259423   4.532   2.746   5.007 -0.0518  0.8886 -2.3423
12670TIP3   OH259424   2.028   1.143   1.847 -0.4382  0.1549  0.3845
12670TIP3    H159425   2.000   1.104   1.764  1.0147  1.8833 -1.0072
12670TIP3    H259426   1.977   1.098   1.914 -1.0339 -1.9161 -1.3664
12671TIP3   OH259427   2.147   4.142  15.719 -0.4164 -0.2486 -0.4565
12671TIP3    H159428   2.237   4.141  15.752 -0.4181  1.5810 -0.3034
12671TIP3    H259429   2.094   4.156  15.797 -0.9794 -2.4339 -0.3729
12672TIP3   OH259430   0.574   0.830   1.331 -0.5176 -0.1008 -0.6056
12672TIP3    H159431   0.500   0.789   1.375  0.1234  0.3520  0.9687
12672TIP3    H259432   0.651   0.798   1.378  0.1206  1.2881 -0.6570
12673TIP3   OH259433   4.232   5.238   2.006 -0.4238  0.3720  0.3199
12673TIP3    H159434   4.149   5.200   2.034  0.0968 -0.6252  0.5436
12673TIP3    H259435   4.213   5.276   1.920 -0.7853 -1.0739 -0.2677
12674TIP3   OH259436   3.276   0.667  15.607  0.3729 -0.7707 -0.2519
12674TIP3    H159437   3.276   0.646  15.514  0.5236  0.7508 -0.6241
12674TIP3    H259438   3.245   0.758  15.612  4.0303  0.6254  0.7592
12675TIP3   OH259439   2.865   1.644   0.024 -0.2334  0.3279 -0.1027
12675TIP3    H159440   2.955   1.640  -0.008 -0.0947 -1.4576  0.4241
12675TIP3    H259441   2.811   1.627  -0.053 -0.2744  3.0668 -0.7960
12676TIP3   OH259442   2.202   2.851   1.298  0.2680  0.1331 -0.4174
12676TIP3    H159443   2.209   2.797   1.219  0.0397  0.2763 -0.5355
12676TIP3    H259444   2.276   2.823   1.352  1.2461  1.0082 -1.2604
12677TIP3   OH259445   6.677   0.289   5.033  0.6461  0.3193 -0.4503
12677TIP3    H159446   6.591   0.301   4.993  1.3598 -1.9423 -2.9928
12677TIP3    H259447   6.694   0.371   5.079 -3.3340  0.3953  1.2567
12678TIP3   OH259448   4.188   3.031   1.981 -0.1124 -0.5380 -0.2028
12678TIP3    H159449   4.246   3.107   1.991  0.0728 -0.5590 -1.0673
12678TIP3    H259450   4.247   2.958   1.960 -0.3707 -0.7417 -0.2252
12679TIP3   OH259451   4.757   6.211  12.278  0.0674  0.7400 -0.3894
12679TIP3    H159452   4.715   6.125  12.276  2.1362 -0.3019 -1.2974
12679TIP3    H259453   4.749   6.243  12.188  0.7501  0.7574 -0.4471
12680TIP3   OH259454   5.286   5.272  12.907  0.4512  1.3951 -0.2752
12680TIP3    H159455   5.198   5.289  12.873  0.5859  0.3005 -1.2604
12680TIP3    H259456   5.341   5.338  12.865  0.0981  2.1303  0.4012
12681TIP3   OH259457   5.889   1.201   3.455 -0.0510 -0.9132  0.0967
12681TIP3    H159458   5.886   1.112   3.418  0.3458 -0.6898 -0.4829
12681TIP3    H259459   5.826   1.251   3.403 -0.1688 -0.8178  0.3310
12682TIP3   OH259460   5.550   3.395  14.553 -0.3143 -0.7821  0.2251
12682TIP3    H159461   5.456   3.378  14.560 -0.5903  0.5016 -0.1443
12682TIP3    H259462   5.589   3.308  14.540 -1.5719 -1.2124 -0.8935
12683TIP3   OH259463   1.773   2.460   2.646 -0.0315 -0.1586 -0.2607
12683TIP3    H159464   1.791   2.366   2.655  0.1546  0.0623  3.3809
12683TIP3    H259465   1.852   2.503   2.678 -0.4209  1.2388 -1.1082
12684TIP3   OH259466   3.189   2.539  14.395  0.1653 -0.3273  0.5797
12684TIP3    H159467   3.183   2.475  14.324  0.5536 -0.0317  0.2691
12684TIP3    H259468   3.143   2.499  14.468  0.7292 -1.1341  0.5124
12685TIP3   OH259469   3.450   4.181  13.727 -0.2244  0.3284  0.0028
12685TIP3    H159470   3.520   4.246  13.731  0.3904 -0.3720  1.0578
12685TIP3    H259471   3.413   4.179  13.816 -1.0318  0.0857 -0.3234
12686TIP3   OH259472   6.304   6.524  11.590 -0.7568  0.5831 -0.4576
12686TIP3    H159473   6.330   6.433  11.572 -0.7197  0.7513 -1.2839
12686TIP3    H259474   6.380   6.563  11.631 -0.5966  0.3754 -0.5523
12687TIP3   OH259475   4.138   2.557  14.223  0.3352 -0.2279 -0.1531
12687TIP3    H159476   4.098   2.546  14.309  0.9471 -1.6165 -0.0057
12687TIP3    H259477   4.066   2.584  14.166 -0.4674 -1.0296  0.4469
12688TIP3   OH259478   5.619   0.318  17.052 -0.6211 -0.0664  0.1692
12688TIP3    H159479   5.562   0.290  17.124 -1.0330 -0.0731 -0.1549
12688TIP3    H259480   5.560   0.361  16.990 -0.1395  0.7227  0.2375
12689TIP3   OH259481   4.372   2.748   4.192 -0.8179 -0.6975  0.0330
12689TIP3    H159482   4.402   2.760   4.282 -0.5337  1.0849 -0.2647
12689TIP3    H259483   4.426   2.676   4.158  0.6319  0.0664  0.6256
12690TIP3   OH259484   2.443   3.406   1.708  0.3612 -0.1566 -0.1202
12690TIP3    H159485   2.450   3.501   1.716 -0.2428 -0.2642  2.4240
12690TIP3    H259486   2.475   3.372   1.791 -0.4139 -2.1347 -0.5731
12691TIP3   OH259487   1.352   0.369  15.585 -0.1672  0.3689  0.2433
12691TIP3    H159488   1.283   0.434  15.599 -0.3856  0.4600 -1.1388
12691TIP3    H259489   1.434   0.417  15.597 -0.3312  0.8544 -0.5222
12692TIP3   OH259490   2.693   1.776  13.707 -0.4354 -0.0490 -0.6810
12692TIP3    H159491   2.750   1.703  13.683 -0.2989  0.7441 -2.9973
12692TIP3    H259492   2.753   1.849  13.722 -0.6468 -0.1046  0.5520
12693TIP3   OH259493   6.520   3.879  14.039  0.2450 -0.1559  0.9782
12693TIP3    H159494   6.567   3.839  13.966 -0.5841  0.1598  0.2606
12693TIP3    H259495   6.499   3.967  14.008 -1.5709 -0.5664  0.9317
12694TIP3   OH259496   4.304   5.716   2.351  0.3279 -0.3030  1.0002
12694TIP3    H159497   4.240   5.685   2.287 -1.1233 -0.3247  2.4024
12694TIP3    H259498   4.385   5.672   2.326 -0.3231 -0.7589 -0.4560
12695TIP3   OH259499   5.701   4.137  11.256 -0.0849 -0.1539 -0.1977
12695TIP3    H159500   5.694   4.081  11.333  0.3003 -2.3395 -1.6612
12695TIP3    H259501   5.794   4.157  11.250  0.0241 -0.7537 -0.5877
12696TIP3   OH259502   2.182   5.069   2.878 -0.6577 -0.1565  0.0305
12696TIP3    H159503   2.123   5.001   2.912 -1.5817  0.2339 -0.7473
12696TIP3    H259504   2.230   5.026   2.807 -0.5337 -0.2688  0.1813
12697TIP3   OH259505   5.683   5.664  14.004  0.2595 -0.5096  0.0607
12697TIP3    H159506   5.640   5.593  14.051 -1.2902  0.7463  0.5948
12697TIP3    H259507   5.711   5.725  14.072  0.1176  0.1794 -0.4849
12698TIP3   OH259508   0.478   1.928  15.662 -0.2203  0.4874  0.6248
12698TIP3    H159509   0.483   1.837  15.631  0.7189  0.6166  0.3889
12698TIP3    H259510   0.566   1.948  15.692  0.1810  2.0272 -1.3441
12699TIP3   OH259511   2.763   0.443  16.152  0.0547  0.1152 -0.2973
12699TIP3    H159512   2.759   0.393  16.070  2.0300  0.6220 -0.7663
12699TIP3    H259513   2.856   0.441  16.175 -0.2161  1.4744  1.0009
12700TIP3   OH259514   2.961   3.427  13.740  0.2503 -0.2933 -0.4487
12700TIP3    H159515   2.895   3.489  13.772 -0.1620 -1.1423  0.4110
12700TIP3    H259516   3.042   3.478  13.738  0.1106  0.0578  1.1525
12701TIP3   OH259517   4.387   4.840   2.924  0.3210 -0.3014 -0.2571
12701TIP3    H159518   4.388   4.841   2.828  0.1516  1.9799 -0.2950
12701TIP3    H259519   4.317   4.902   2.948 -0.4273 -1.6852  1.3621
12702TIP3   OH259520   6.055   4.341  16.069  0.3714  0.2951 -0.5105
12702TIP3    H159521   5.981   4.325  16.011 -0.1918  1.3807 -0.1137
12702TIP3    H259522   6.028   4.414  16.124  1.6242  0.5177 -0.1475
12703TIP3   OH259523   3.685   3.633   0.043  0.0785  0.2908  0.1818
12703TIP3    H159524   3.611   3.667  -0.008  0.4286  0.3901 -0.2676
12703TIP3    H259525   3.761   3.653  -0.011  0.2504 -1.8912 -0.4707
12704TIP3   OH259526   2.264   5.982  13.810  0.3158 -0.1699  0.3802
12704TIP3    H159527   2.303   5.907  13.765 -1.6779 -1.2410  0.3164
12704TIP3    H259528   2.232   6.038  13.740 -1.9807 -1.3991  0.3465
12705TIP3   OH259529   1.147   0.836   5.394  0.1682  0.2251  0.2051
12705TIP3    H159530   1.086   0.909   5.389  1.1077  0.9895 -0.5316
12705TIP3    H259531   1.094   0.759   5.373 -0.9983  0.5645  1.7293
12706TIP3   OH259532   5.721   4.849  14.030  0.2526  0.2358  0.2925
12706TIP3    H159533   5.632   4.876  14.006 -0.0605  1.1639  2.3049
12706TIP3    H259534   5.708   4.771  14.085  0.7570 -0.1601 -0.1394
12707TIP3   OH259535   4.026   3.938  14.202 -0.1401 -0.2027 -0.1216
12707TIP3    H159536   4.027   3.843  14.200 -0.4891 -0.2506  1.2368
12707TIP3    H259537   3.954   3.960  14.261  0.6488  0.8892  0.4700
12708TIP3   OH259538   2.898   1.108   1.450  0.0239 -0.4439  0.2722
12708TIP3    H159539   2.839   1.181   1.433  0.2097 -0.5619 -0.9808
12708TIP3    H259540   2.980   1.148   1.477  0.2586 -0.1533 -0.8302
12709TIP3   OH259541   1.808   0.595  15.410 -0.1079 -0.7098  0.4952
12709TIP3    H159542   1.782   0.669  15.465 -1.3445 -1.5102  1.0140
12709TIP3    H259543   1.820   0.522  15.470  0.8340 -1.0302 -0.0486
12710TIP3   OH259544   6.721   5.539   5.574 -0.5429 -0.1433  0.0615
12710TIP3    H159545   6.741   5.462   5.521  1.7608 -0.1516  0.8227
12710TIP3    H259546   6.728   5.508   5.665 -0.4442  0.7418  0.3713
12711TIP3   OH259547   0.170   5.138   2.237 -0.4578 -0.3538  0.0598
12711TIP3    H159548   0.170   5.155   2.331 -0.8176  0.0238 -0.0088
12711TIP3    H259549   0.095   5.080   2.223  0.8180 -2.1776  0.3102
12712TIP3   OH259550   5.540   5.913  11.906  0.3027  0.0729 -0.8225
12712TIP3    H159551   5.577   5.926  11.994 -0.7265  1.6791 -0.5768
12712TIP3    H259552   5.608   5.944  11.847  0.2636  0.8328 -0.4823
12713TIP3   OH259553   5.509   3.593   3.995 -0.1418  0.4504  0.1933
12713TIP3    H159554   5.506   3.615   3.901  1.3166  0.9793  0.2359
12713TIP3    H259555   5.596   3.553   4.007 -0.2161  0.6087  1.3616
12714TIP3   OH259556   6.302   3.555   5.664  0.6130  0.6917 -0.1738
12714TIP3    H159557   6.342   3.470   5.643  0.2799  0.8098 -1.3526
12714TIP3    H259558   6.364   3.619   5.630  0.9662  0.9392  0.9048
12715TIP3   OH259559   2.205   6.121  16.237 -0.3669  0.1690 -0.1290
12715TIP3    H159560   2.215   6.207  16.194  0.7131 -0.4793 -1.2423
12715TIP3    H259561   2.219   6.058  16.167  0.4134 -0.9320  0.9884
12716TIP3   OH259562   5.007   4.803   4.191 -0.3982 -0.6821 -0.5271
12716TIP3    H159563   4.995   4.801   4.096 -0.7987 -1.2190 -0.4740
12716TIP3    H259564   4.928   4.760   4.225 -0.8178  0.5548  0.1029
12717TIP3   OH259565   1.253   6.597  11.737 -0.4833  0.3046  0.0211
12717TIP3    H159566   1.199   6.518  11.747 -1.1140  0.8315  1.0752
12717TIP3    H259567   1.190   6.666  11.715  0.0067  0.5989 -0.4780
12718TIP3   OH259568   0.270   6.300  14.268 -0.3001 -0.1920  0.1049
12718TIP3    H159569   0.356   6.336  14.247 -0.5907  0.0539 -0.7021
12718TIP3    H259570   0.211   6.343  14.206 -0.9966 -0.3875  0.6268
12719TIP3   OH259571   3.134   3.299   1.556 -0.5306 -0.2647 -0.3877
12719TIP3    H159572   3.111   3.292   1.649  0.1383 -0.6518 -0.2477
12719TIP3    H259573   3.080   3.232   1.513 -0.6940 -0.2195 -0.2556
12720TIP3   OH259574   6.169   4.152  12.500  0.0362 -0.2278  0.0460
12720TIP3    H159575   6.238   4.087  12.488 -1.2904 -1.5534 -0.6469
12720TIP3    H259576   6.157   4.157  12.595  1.4548  0.4419  0.2062
12721TIP3   OH259577   6.096   0.097   3.850  0.3617 -0.3929  0.5793
12721TIP3    H159578   6.072   0.186   3.878 -1.8070 -1.0975  1.1459
12721TIP3    H259579   6.189   0.090   3.871  0.8136  2.0221 -0.2976
12722TIP3   OH259580   0.318   6.549  13.716  0.0921 -0.0104 -0.3311
12722TIP3    H159581   0.269   6.537  13.634 -2.8009  1.2667  1.0922
12722TIP3    H259582   0.345   6.460  13.740 -0.4948 -0.6237 -1.7923
12723TIP3   OH259583   3.962   1.145  15.148 -0.0257 -0.4182  0.4328
12723TIP3    H159584   3.896   1.169  15.083  0.1286  0.1487  0.4774
12723TIP3    H259585   4.021   1.220  15.151  1.1635 -1.2863 -0.2769
12724TIP3   OH259586   3.745   4.058   4.537  0.5155  0.0884  0.1838
12724TIP3    H159587   3.759   3.983   4.594 -0.5982 -0.9394 -0.8365
12724TIP3    H259588   3.824   4.062   4.483  0.8200  0.0151  0.6168
12725TIP3   OH259589   1.276   4.191   0.201  0.1944 -0.1532  0.5315
12725TIP3    H159590   1.312   4.160   0.284 -0.9206  0.0586  1.1124
12725TIP3    H259591   1.254   4.111   0.153 -0.0528 -0.2795  0.8494
12726TIP3   OH259592   0.159   6.495   0.357  0.0791  0.3800 -0.1578
12726TIP3    H159593   0.090   6.430   0.342  0.4769 -0.3692  1.1491
12726TIP3    H259594   0.196   6.511   0.270 -1.1114  0.0885 -0.7344
12727TIP3   OH259595   2.291   0.889   6.607  0.1650  0.0947 -0.3973
12727TIP3    H159596   2.244   0.943   6.543  0.3323 -0.5262 -1.0591
12727TIP3    H259597   2.383   0.908   6.592  0.2070 -0.0870 -0.3772
12728TIP3   OH259598   2.699   4.807   3.095  0.1881 -0.1474 -0.1367
12728TIP3    H159599   2.734   4.767   3.015  0.6253 -0.2808  0.1165
12728TIP3    H259600   2.773   4.856   3.131 -0.6040  1.7402 -0.9705
12729TIP3   OH259601   4.084   4.683  14.095 -0.3367  0.7240  0.4108
12729TIP3    H159602   4.016   4.679  14.028 -1.5637  2.2278  1.4986
12729TIP3    H259603   4.064   4.762  14.146  0.1806 -0.6359  2.8990
12730TIP3   OH259604   1.657   2.618   5.662 -0.4797 -0.2090  0.3677
12730TIP3    H159605   1.646   2.659   5.748  0.3936 -0.5744  0.6760
12730TIP3    H259606   1.724   2.670   5.619  1.1608 -1.6409  1.0384
12731TIP3   OH259607   2.078   2.275  13.546 -0.6219  0.5300  0.3764
12731TIP3    H159608   2.019   2.245  13.477 -1.9789 -0.2758  1.8273
12731TIP3    H259609   2.137   2.200  13.560 -0.0667  0.8519 -0.1685
12732TIP3   OH259610   4.513   5.556  16.452 -0.1454 -0.1623 -0.1153
12732TIP3    H159611   4.532   5.643  16.487  1.0402 -0.5660  0.3157
12732TIP3    H259612   4.600   5.517  16.438 -0.6569 -1.1868 -0.5172
12733TIP3   OH259613   1.714   0.092  10.771 -0.2417 -0.4258 -0.2932
12733TIP3    H159614   1.685   0.088  10.862  0.4927 -1.9347 -0.0886
12733TIP3    H259615   1.755   0.007  10.755  1.3109  0.4881 -1.4768
12734TIP3   OH259616   3.631   5.793  16.965 -0.2006  0.2007 -0.6258
12734TIP3    H159617   3.574   5.795  16.889 -2.0406 -0.0714  0.6906
12734TIP3    H259618   3.672   5.879  16.967 -0.7861  0.5060 -1.4324
12735TIP3   OH259619   1.919   6.644  16.842 -0.0033 -0.4492  0.4049
12735TIP3    H159620   2.002   6.626  16.886  0.7935 -1.0552 -1.2593
12735TIP3    H259621   1.913   6.740  16.842  1.4381 -0.3216 -0.6894
12736TIP3   OH259622   2.738   0.432  14.672 -0.2365  0.4039  0.0292
12736TIP3    H159623   2.828   0.439  14.641  0.1484  0.8809  1.1962
12736TIP3    H259624   2.704   0.522  14.666 -0.6871  0.2039 -0.5323
12737TIP3   OH259625   2.317   5.545   4.556 -0.1314 -0.0986  1.0644
12737TIP3    H159626   2.393   5.598   4.581 -0.9677  0.8355  1.7464
12737TIP3    H259627   2.353   5.469   4.511  1.1351  0.9598  0.2339
12738TIP3   OH259628   1.843   1.292   2.165  0.3361 -0.0811 -0.5481
12738TIP3    H159629   1.872   1.201   2.160  0.6301 -0.1658  1.6847
12738TIP3    H259630   1.757   1.292   2.122  0.3618 -1.3886 -0.6513
12739TIP3   OH259631   0.878   1.218   4.347  0.1452  0.0776  0.3793
12739TIP3    H159632   0.935   1.217   4.424 -0.0080  1.2519  0.5254
12739TIP3    H259633   0.917   1.153   4.288 -0.1060 -1.3064  1.6857
12740TIP3   OH259634   3.027   6.006   2.482 -0.1749 -0.1647 -0.3024
12740TIP3    H159635   3.110   6.015   2.529  1.5302  0.0867 -3.1038
12740TIP3    H259636   3.023   5.914   2.457  0.0515  0.1243 -1.4550
12741TIP3   OH259637   3.586   4.848   3.248  0.4619 -0.3685 -0.5701
12741TIP3    H159638   3.605   4.848   3.155 -1.1457 -0.7318 -0.9243
12741TIP3    H259639   3.657   4.798   3.288 -0.0784 -2.3247 -1.9018
12742TIP3   OH259640   2.562   4.531  12.158  0.7429  0.1027 -0.1987
12742TIP3    H159641   2.606   4.605  12.117 -1.1129  0.4044 -1.8061
12742TIP3    H259642   2.469   4.552  12.152  0.0713 -2.6790 -1.4935
12743TIP3   OH259643   3.032   3.329   0.946  0.3825  0.2099  0.5231
12743TIP3    H159644   3.115   3.296   0.980  1.7836  0.9470 -1.9166
12743TIP3    H259645   3.057   3.396   0.882 -2.0267 -0.3331 -1.1475
12744TIP3   OH259646   2.691   4.883   1.061  0.7309  0.8021 -0.1311
12744TIP3    H159647   2.689   4.822   0.987  0.7786  1.0786 -0.3613
12744TIP3    H259648   2.612   4.862   1.112  0.3071  1.0906 -0.6504
12745TIP3   OH259649   2.032   3.537   1.625  0.2052 -0.0128 -0.4579
12745TIP3    H159650   2.092   3.569   1.558  0.2099 -0.8092 -0.8498
12745TIP3    H259651   2.035   3.603   1.694 -0.1229  1.0273 -1.4223
12746TIP3   OH259652   4.482   2.952   5.789  0.4796 -0.0321  0.1774
12746TIP3    H159653   4.436   2.906   5.859 -1.3641  0.1126 -0.8901
12746TIP3    H259654   4.420   2.955   5.716  1.5847  1.5996 -0.7785
12747TIP3   OH259655   2.328   3.994  14.562  0.3090  0.3386  0.0890
12747TIP3    H159656   2.283   4.078  14.563 -0.7043 -0.1539 -1.2259
12747TIP3    H259657   2.286   3.943  14.630  0.1913  0.5362  0.1631
12748TIP3   OH259658   5.091   5.352  14.503  0.1128 -0.4025 -0.6030
12748TIP3    H159659   5.106   5.446  14.499 -0.7755 -0.1882  0.6073
12748TIP3    H259660   5.155   5.315  14.442  1.0577  0.9027 -0.4444
12749TIP3   OH259661   4.622   1.054   0.673  0.3063 -0.5454  0.1208
12749TIP3    H159662   4.655   1.127   0.620 -1.4796  0.6258  0.5302
12749TIP3    H259663   4.654   1.073   0.761  1.7201 -1.5096 -0.1420
12750TIP3   OH259664   3.015   3.560   5.737 -0.4072 -0.1397 -0.0549
12750TIP3    H159665   2.962   3.493   5.781 -2.0690  0.6345 -0.8124
12750TIP3    H259666   3.093   3.568   5.792 -0.7973 -1.7081  0.7950
12751TIP3   OH259667   5.316   4.260   2.916 -0.0130 -0.6143 -0.3084
12751TIP3    H159668   5.339   4.342   2.959 -0.8630 -0.6156  0.1537
12751TIP3    H259669   5.284   4.204   2.986 -0.4907 -0.9562 -0.7909
12752TIP3   OH259670   1.197   5.667   5.711 -0.2271 -0.1704  0.6576
12752TIP3    H159671   1.212   5.621   5.794 -0.6835  1.0131  1.4284
12752TIP3    H259672   1.249   5.747   5.719  1.1618 -0.8684 -0.9791
12753TIP3   OH259673   4.397   0.263   0.562 -0.2509  0.0806  0.4596
12753TIP3    H159674   4.463   0.197   0.541  1.0255  0.9051  1.6862
12753TIP3    H259675   4.321   0.213   0.593  0.3525 -0.8339  0.4772
12754TIP3   OH259676   3.738   6.469  15.863  0.3607 -0.1805  0.3874
12754TIP3    H159677   3.727   6.556  15.901  0.7315  0.4960 -0.9874
12754TIP3    H259678   3.725   6.409  15.936  3.1551  1.0885  2.1031
12755TIP3   OH259679   0.396   3.425   5.900  0.2340 -0.0342  0.6490
12755TIP3    H159680   0.419   3.507   5.944  2.2406  0.2225 -0.7312
12755TIP3    H259681   0.353   3.373   5.967  1.3293  1.1071  2.3312
12756TIP3   OH259682   3.418   4.919   2.492 -0.2392 -0.0973 -0.1249
12756TIP3    H159683   3.493   4.961   2.534 -1.2557  0.2542  1.4545
12756TIP3    H259684   3.363   4.889   2.565 -1.7397 -0.1304 -1.2059
12757TIP3   OH259685   4.277   1.005  16.884 -0.2766  0.2745  0.6432
12757TIP3    H159686   4.369   0.979  16.892  0.1218  1.4060  0.0045
12757TIP3    H259687   4.228   0.926  16.907  0.8552 -0.6688 -0.0347
12758TIP3   OH259688   6.567   1.518   0.648  0.3926  0.0020 -0.6033
12758TIP3    H159689   6.475   1.543   0.660  0.8102  1.5711 -0.4747
12758TIP3    H259690   6.603   1.587   0.592  2.2037  1.0894  1.7290
12759TIP3   OH259691   2.761   4.417  16.915  0.0466 -0.8183 -0.5179
12759TIP3    H159692   2.828   4.403  16.982  3.2120 -0.5766 -3.3453
12759TIP3    H259693   2.709   4.336  16.916  0.5662 -1.1791  1.5337
12760TIP3   OH259694   4.499   4.792  16.660 -0.2310  0.7422  1.2769
12760TIP3    H159695   4.415   4.833  16.640  0.1252  1.2892  0.8929
12760TIP3    H259696   4.524   4.829  16.745 -0.4354  0.4865  1.4487
12761TIP3   OH259697   0.424   1.722  16.737  0.2698  0.2084  0.3703
12761TIP3    H159698   0.398   1.634  16.711 -0.0366  0.0971  1.0341
12761TIP3    H259699   0.451   1.764  16.656 -0.0838 -0.3281 -0.0308
12762TIP3   OH259700   0.653   3.226   4.641  0.1402 -0.0332  0.1068
12762TIP3    H159701   0.590   3.295   4.663 -0.6132 -1.1326  1.5432
12762TIP3    H259702   0.736   3.259   4.675  0.1943  1.0094 -0.9662
12763TIP3   OH259703   4.904   5.804   0.855 -0.2224 -0.1956 -0.0723
12763TIP3    H159704   4.968   5.859   0.901 -2.2312  1.0719  1.4231
12763TIP3    H259705   4.858   5.865   0.797 -1.6546 -0.5315  0.6707
12764TIP3   OH259706   6.230   6.577   1.667  0.0360  0.2706 -0.5632
12764TIP3    H159707   6.246   6.554   1.759 -1.0189  0.6831 -0.2610
12764TIP3    H259708   6.147   6.533   1.646  0.0040  0.6136 -1.1581
12765TIP3   OH259709   5.033   3.908  11.392  0.3728  0.2500  0.2532
12765TIP3    H159710   4.966   3.965  11.354 -0.5118 -0.5858  0.5202
12765TIP3    H259711   5.004   3.892  11.482  1.8222  1.2293  0.9369
12766TIP3   OH259712   1.710   5.479  16.870  0.7537 -0.0714  0.4855
12766TIP3    H159713   1.636   5.532  16.841  0.7650  0.6859  1.7757
12766TIP3    H259714   1.690   5.457  16.961  1.3793 -1.1972  0.3776
12767TIP3   OH259715   5.129   1.335  12.854  0.5746  0.1282 -0.4855
12767TIP3    H159716   5.146   1.262  12.795 -1.6894 -0.2732 -0.7155
12767TIP3    H259717   5.047   1.373  12.824 -0.6368 -0.0296  2.2742
12768TIP3   OH259718   4.888   3.107   4.736  0.2490  0.0578 -0.4588
12768TIP3    H159719   4.858   3.187   4.780 -0.9016 -0.6743  0.1418
12768TIP3    H259720   4.808   3.058   4.718  0.9741 -1.2098 -0.3412
12769TIP3   OH259721   4.231   5.311   1.746 -0.3400  0.0156  0.2635
12769TIP3    H159722   4.219   5.392   1.696 -1.0187  0.4017  1.0313
12769TIP3    H259723   4.195   5.243   1.689 -0.5661  0.3708 -0.0223
12770TIP3   OH259724   4.896   0.731   3.792  0.6718 -0.2814 -0.1662
12770TIP3    H159725   4.967   0.783   3.831 -0.1816  0.4558  0.4453
12770TIP3    H259726   4.903   0.747   3.698  0.2766  1.1620  0.0293
12771TIP3   OH259727   1.676   2.103  12.764 -0.1155 -0.3428  0.3262
12771TIP3    H159728   1.722   2.019  12.757 -0.1857 -0.3402 -0.2366
12771TIP3    H259729   1.643   2.105  12.854  2.9125  0.6787  1.5267
12772TIP3   OH259730   5.640   3.169   4.158  0.0726 -0.1372  0.1666
12772TIP3    H159731   5.727   3.200   4.182 -0.7013  1.4400  1.1205
12772TIP3    H259732   5.605   3.132   4.240 -1.5553  2.7827  0.9373
12773TIP3   OH259733   0.954   4.966   4.680 -0.6359 -0.1072  0.1728
12773TIP3    H159734   1.004   4.896   4.721 -0.5240 -0.9160 -1.2890
12773TIP3    H259735   0.877   4.922   4.644 -1.5879  0.8551  0.9606
12774TIP3   OH259736   2.827   0.592  13.412  0.3477  0.6144 -0.0225
12774TIP3    H159737   2.746   0.642  13.396 -0.5573 -0.3883  1.2605
12774TIP3    H259738   2.871   0.591  13.327 -0.7767  1.5490 -0.6509
12775TIP3   OH259739   4.343   2.125   1.156 -0.0420 -0.3746 -0.1234
12775TIP3    H159740   4.421   2.071   1.153 -0.1064 -0.7727  2.6964
12775TIP3    H259741   4.302   2.114   1.070  2.7779 -0.3894 -1.5644
12776TIP3   OH259742   1.455   1.441   0.417  0.3843 -0.4854 -0.3032
12776TIP3    H159743   1.426   1.531   0.404  1.1787 -0.0944  0.5006
12776TIP3    H259744   1.375   1.393   0.439  0.0520  0.1638 -0.0562
12777TIP3   OH259745   1.176   4.326   0.980  0.0813  0.4652  0.5897
12777TIP3    H159746   1.167   4.415   0.946  0.2122 -0.4073 -1.9622
12777TIP3    H259747   1.101   4.278   0.943  1.7259 -1.1993 -0.7791
12778TIP3   OH259748   5.426   5.178   0.179  0.5758 -0.0496  0.3813
12778TIP3    H159749   5.479   5.103   0.205  0.6437 -0.2245 -0.2569
12778TIP3    H259750   5.341   5.140   0.155  0.2756  0.1885  1.0254
12779TIP3   OH259751   0.128   1.579   1.586  0.3504 -0.3242  0.2477
12779TIP3    H159752   0.136   1.661   1.636  2.7497 -2.1187  3.1265
12779TIP3    H259753   0.215   1.563   1.551 -0.0534 -1.6846 -0.2014
12780TIP3   OH259754   3.264   3.353   6.771 -0.3059 -0.5211 -0.3938
12780TIP3    H159755   3.339   3.408   6.748 -0.7368 -0.1094 -0.8433
12780TIP3    H259756   3.219   3.401   6.841  0.2046 -1.0812  0.3310
12781TIP3   OH259757   2.063   2.215   0.410 -0.5168  0.4005  0.5884
12781TIP3    H159758   2.155   2.209   0.386 -0.6162  0.6967  0.1309
12781TIP3    H259759   2.036   2.303   0.383 -1.3652 -0.2619 -0.8225
12782TIP3   OH259760   0.300   6.653  12.816 -0.1759  0.1876 -0.3155
12782TIP3    H159761   0.390   6.676  12.839 -0.2356  0.1466 -0.0364
12782TIP3    H259762   0.250   6.734  12.827 -0.2112  0.1600 -0.2749
12783TIP3   OH259763   3.687   3.344  13.354  0.4172  0.2439  0.2689
12783TIP3    H159764   3.598   3.361  13.321  0.8577  0.0854 -1.0764
12783TIP3    H259765   3.696   3.249  13.350  0.9335  0.3092 -0.4487
12784TIP3   OH259766   6.361   3.487   1.401  0.5985  0.1424 -0.5547
12784TIP3    H159767   6.440   3.447   1.437  0.7150  0.0996 -0.8628
12784TIP3    H259768   6.385   3.578   1.385  0.6307  0.0937 -0.7872
12785TIP3   OH259769   1.190   3.913  12.035  0.5054 -0.1915  0.5640
12785TIP3    H159770   1.144   3.990  12.068 -0.4729 -0.4401 -0.1858
12785TIP3    H259771   1.254   3.948  11.973  0.1351  0.0314  0.3030
12786TIP3   OH259772   6.605   1.940  12.901 -0.5358 -0.5185 -0.0587
12786TIP3    H159773   6.693   1.974  12.913 -1.0096  0.3181  1.2504
12786TIP3    H259774   6.581   1.966  12.812  0.7353 -1.2745 -0.6459
12787TIP3   OH259775   3.481   1.766   2.260 -0.3047 -0.2724  0.2000
12787TIP3    H159776   3.532   1.689   2.235 -0.8383 -1.3205  2.0847
12787TIP3    H259777   3.545   1.828   2.294  0.2345  0.5394 -2.1602
12788TIP3   OH259778   0.243   6.451  12.007  0.2901  0.3692 -0.1945
12788TIP3    H159779   0.197   6.425  12.087 -0.7422  0.0656 -0.8659
12788TIP3    H259780   0.298   6.524  12.034 -0.8818  1.0043  0.5726
12789TIP3   OH259781   2.940   3.508   1.470  0.1329  0.0837  0.2325
12789TIP3    H159782   2.970   3.436   1.525  0.0973  0.1621  0.3544
12789TIP3    H259783   2.977   3.489   1.384  0.6730  0.2675  0.4241
12790TIP3   OH259784   0.726   2.826   4.341 -0.1803  0.0954  0.0894
12790TIP3    H159785   0.717   2.909   4.389 -0.8260  0.6207 -0.9106
12790TIP3    H259786   0.821   2.817   4.327 -0.2069  1.8017 -1.6754
12791TIP3   OH259787   0.884   5.373   2.625 -0.0647 -0.2224  0.3504
12791TIP3    H159788   0.815   5.307   2.623 -0.0526 -0.2438 -2.1538
12791TIP3    H259789   0.856   5.435   2.692 -2.2758 -0.4803 -0.2737
12792TIP3   OH259790   0.795   4.001   5.314  0.3840  0.2085 -0.2887
12792TIP3    H159791   0.840   4.008   5.398  0.8080 -0.0305 -0.4880
12792TIP3    H259792   0.866   3.992   5.250  0.0813  0.8175 -0.7198
12793TIP3   OH259793   0.595   0.524  12.595  0.4988 -0.4283 -0.3204
12793TIP3    H159794   0.514   0.560  12.559 -0.0781 -1.4344 -0.0664
12793TIP3    H259795   0.658   0.596  12.589  0.0697 -0.1628 -2.1264
12794TIP3   OH259796   5.871   4.014  12.449  0.4815  0.2959 -0.4965
12794TIP3    H159797   5.887   4.083  12.514  0.8156 -1.1319  1.0119
12794TIP3    H259798   5.828   3.944  12.498  0.6411 -0.7949 -1.8430
12795TIP3   OH259799   3.335   1.787  11.895  0.3271 -0.6215 -0.1861
12795TIP3    H159800   3.411   1.729  11.889  1.3705  0.8064 -1.5934
12795TIP3    H259801   3.350   1.836  11.976 -0.4329 -2.0688  0.8776
12796TIP3   OH259802   0.891   3.602   5.046  0.1727  0.5153 -0.3319
12796TIP3    H159803   0.846   3.652   5.113 -0.6456  1.7229 -1.7262
12796TIP3    H259804   0.824   3.542   5.013 -0.6116  2.4928 -2.5926
12797TIP3   OH259805   6.204   1.895   5.218 -0.0184 -0.2456 -0.4414
12797TIP3    H159806   6.247   1.848   5.146 -0.5199 -0.9004 -0.3196
12797TIP3    H259807   6.268   1.896   5.288 -0.2996 -1.4908 -0.1501
12798TIP3   OH259808   4.359   0.146  17.181  0.2121 -0.2641  0.0073
12798TIP3    H159809   4.304   0.160  17.104 -2.2588 -0.1239  1.6664
12798TIP3    H259810   4.376   0.234  17.214  1.3383 -0.3188 -0.3866
12799TIP3   OH259811   3.351   0.050  16.922  0.1097  0.5085 -0.6851
12799TIP3    H159812   3.438   0.040  16.884  0.5154 -0.0418  0.3415
12799TIP3    H259813   3.328  -0.037  16.954 -0.2030  0.9333  0.3076
12800TIP3   OH259814   6.399   3.401   6.403 -0.2969  0.1165 -0.5972
12800TIP3    H159815   6.313   3.437   6.380  0.0369 -0.3198 -2.7723
12800TIP3    H259816   6.460   3.448   6.346  0.7918 -0.2506  0.2420
12801TIP3   OH259817   2.214   3.230   1.167  0.4683 -0.0454  0.8424
12801TIP3    H159818   2.295   3.280   1.154  0.3779  0.1715  1.1075
12801TIP3    H259819   2.236   3.141   1.140  0.5016  0.2352 -0.0811
12802TIP3   OH259820   4.358   0.947  11.698  0.0603 -0.2205  0.3872
12802TIP3    H159821   4.278   0.901  11.723 -0.2585  0.3255  0.3727
12802TIP3    H259822   4.422   0.920  11.764  0.1343 -1.3940 -0.1365
12803TIP3   OH259823   5.808   4.703  14.387  0.4661  0.3642 -0.3899
12803TIP3    H159824   5.729   4.672  14.430 -0.0449  1.3988 -0.5440
12803TIP3    H259825   5.808   4.659  14.302  0.7526 -0.6262  0.1085
12804TIP3   OH259826   2.580   1.322   1.932  0.4062 -0.7656 -0.2260
12804TIP3    H159827   2.556   1.384   2.000  1.2052 -1.0258  0.3086
12804TIP3    H259828   2.525   1.345   1.857 -0.4202 -0.4191  0.4736
12805TIP3   OH259829   6.060   1.951   5.654  0.6774  0.3448 -0.0705
12805TIP3    H159830   6.044   2.045   5.654  0.0115  0.2474 -1.1150
12805TIP3    H259831   6.155   1.942   5.658  0.9800  1.1554 -3.1138
12806TIP3   OH259832   2.032   1.906  11.254  0.3217 -0.4244  0.0207
12806TIP3    H159833   1.953   1.916  11.201  0.3927 -0.4423 -0.0890
12806TIP3    H259834   2.087   1.844  11.204  0.5193 -0.2038 -0.0358
12807TIP3   OH259835   0.828   0.452   3.473  0.3000  0.0924 -0.2722
12807TIP3    H159836   0.754   0.513   3.477 -0.1382 -0.2110 -2.6153
12807TIP3    H259837   0.798   0.374   3.519 -0.5324  0.2681 -0.5153
12808TIP3   OH259838   0.992   3.302   2.231 -0.0849 -0.0542 -0.6380
12808TIP3    H159839   0.974   3.396   2.223 -1.2694 -0.0809  1.2009
12808TIP3    H259840   1.008   3.273   2.141  0.9032  2.0122 -1.1762
12809TIP3   OH259841   6.173   5.659   3.720  0.3458  0.1084  0.3130
12809TIP3    H159842   6.254   5.649   3.769  0.3141 -0.5031  0.2515
12809TIP3    H259843   6.136   5.741   3.751 -0.1070 -0.6693  1.9610
12810TIP3   OH259844   3.624   0.725  15.991  0.0871  0.0091 -0.2780
12810TIP3    H159845   3.642   0.631  15.999  2.9804  0.5776  0.7644
12810TIP3    H259846   3.601   0.736  15.898 -1.9283 -1.8822 -0.1169
12811TIP3   OH259847   5.270   3.448  16.529 -0.4082 -0.2633  0.0558
12811TIP3    H159848   5.208   3.498  16.582 -0.7910 -0.6512 -0.0245
12811TIP3    H259849   5.307   3.383  16.589 -0.0974 -0.0509  0.0964
12812TIP3   OH259850   4.907   1.887  12.913 -0.0591 -0.2454  0.1967
12812TIP3    H159851   4.940   1.898  12.824  2.3322  1.5415  1.1752
12812TIP3    H259852   4.931   1.797  12.936  2.3921  0.3008  0.0911
12813TIP3   OH259853   0.923   2.460   0.023 -0.0113  0.1665  0.2898
12813TIP3    H159854   0.883   2.508  -0.049  1.9804  0.7871 -0.4769
12813TIP3    H259855   0.873   2.487   0.100  0.2079  2.4845 -0.3108
12814TIP3   OH259856   0.404   2.172  13.858  0.4811  0.2675 -0.3420
12814TIP3    H159857   0.412   2.256  13.814 -0.7131  0.0851 -0.9471
12814TIP3    H259858   0.415   2.107  13.788  1.4577 -0.1035  0.1292
12815TIP3   OH259859   4.110   3.692  12.235  0.3339  0.3050  0.0607
12815TIP3    H159860   4.054   3.766  12.213 -0.5576 -0.7392 -1.3905
12815TIP3    H259861   4.055   3.635  12.289  0.2909 -0.2931 -0.6012
12816TIP3   OH259862   5.866   5.450   3.424 -0.4678  0.2094 -0.1011
12816TIP3    H159863   5.870   5.371   3.370  0.8919  0.8263 -0.9518
12816TIP3    H259864   5.879   5.418   3.513  2.5914 -0.3534 -0.6419
12817TIP3   OH259865   3.261   6.291  16.760 -0.3288 -0.1212 -0.0582
12817TIP3    H159866   3.218   6.235  16.826  1.2138 -0.6178  0.5669
12817TIP3    H259867   3.219   6.267  16.678 -1.8689  0.0641  0.6410
12818TIP3   OH259868   5.322   2.495   3.560 -0.0051  0.6733  0.6027
12818TIP3    H159869   5.251   2.492   3.496  0.0240  0.1319  0.5936
12818TIP3    H259870   5.397   2.527   3.510 -0.9838  4.6402  1.3282
12819TIP3   OH259871   4.685   1.232   5.959 -0.0812  0.4873  0.5115
12819TIP3    H159872   4.685   1.323   5.987 -0.8445  0.6666 -0.0174
12819TIP3    H259873   4.770   1.198   5.985  0.1271  1.2923  0.9039
12820TIP3   OH259874   5.887   2.024  16.567 -0.0496 -0.2550  0.4261
12820TIP3    H159875   5.800   2.061  16.556  0.2753  0.5793  0.5734
12820TIP3    H259876   5.893   2.007  16.661  0.1500  0.2186  0.5017
12821TIP3   OH259877   2.627   4.183  13.092  0.2510  0.0324 -0.5802
12821TIP3    H159878   2.601   4.252  13.154  0.7516  0.7247 -1.1281
12821TIP3    H259879   2.644   4.230  13.010 -0.9334 -0.9268 -1.4195
12822TIP3   OH259880   5.611   5.619   0.008  0.8029 -0.5502  0.0086
12822TIP3    H159881   5.575   5.643  -0.077  0.5519 -2.0841 -0.3526
12822TIP3    H259882   5.564   5.540   0.032  0.2095  0.3687  2.0328
12823TIP3   OH259883   3.178   6.273  16.459 -0.5200 -0.6282 -0.1247
12823TIP3    H159884   3.169   6.326  16.380  0.2337 -0.1129  0.1261
12823TIP3    H259885   3.221   6.192  16.429 -1.3936 -0.9846 -0.4532
12824TIP3   OH259886   4.385   1.889  13.444  0.0542  0.0726 -0.2327
12824TIP3    H159887   4.474   1.908  13.415  0.3596 -0.2827  0.4413
12824TIP3    H259888   4.387   1.905  13.539 -0.5072 -0.2542 -0.1614
12825TIP3   OH259889   4.761   3.693  17.206 -0.0226  0.4396 -0.3146
12825TIP3    H159890   4.736   3.718  17.295 -1.7400  1.2953 -0.9910
12825TIP3    H259891   4.703   3.744  17.150 -0.2700 -1.4754 -1.8888
12826TIP3   OH259892   0.494   6.385   2.143 -0.8524  0.0946  0.2426
12826TIP3    H159893   0.420   6.385   2.203 -0.1173  0.8526  1.1863
12826TIP3    H259894   0.499   6.475   2.111 -3.1612 -0.8938 -3.5137
12827TIP3   OH259895   5.309   0.642  12.689  0.5594 -0.2144 -0.0828
12827TIP3    H159896   5.226   0.631  12.643  0.0528 -0.0820  0.7776
12827TIP3    H259897   5.305   0.730  12.726  1.7539  0.3988 -1.3225
12828TIP3   OH259898   4.990   1.579   1.421 -0.4194 -0.5169 -0.0066
12828TIP3    H159899   4.998   1.673   1.407 -0.5335 -0.3166  1.2204
12828TIP3    H259900   5.045   1.561   1.497 -1.2188 -1.2690  0.4092
12829TIP3   OH259901   4.829   3.494  16.818  0.1519  0.1727  0.7893
12829TIP3    H159902   4.794   3.470  16.904 -1.3397  0.1753  0.2085
12829TIP3    H259903   4.793   3.427  16.759  2.0587 -0.4924  0.3189
12830TIP3   OH259904   0.091   0.544   2.125  0.9218  0.2959 -0.0606
12830TIP3    H159905   0.070   0.451   2.134  0.2718  0.5359  1.0700
12830TIP3    H259906   0.031   0.588   2.185 -1.0613  1.7708 -2.8868
12831TIP3   OH259907   5.769   3.337  11.391  0.4626 -0.4064  0.0120
12831TIP3    H159908   5.853   3.347  11.436  1.4580 -1.1373 -1.5866
12831TIP3    H259909   5.758   3.419  11.342  0.0950 -0.2057  0.4182
12832TIP3   OH259910   2.791   3.942  14.012 -0.1936  0.7535  0.5707
12832TIP3    H159911   2.746   3.944  13.928 -1.5766 -0.3686  1.2619
12832TIP3    H259912   2.722   3.953  14.077  0.6988  0.3240  1.6199
12833TIP3   OH259913   3.879   0.033   0.024  0.4444  1.1186 -0.6843
12833TIP3    H159914   3.970   0.024  -0.006  0.1846 -3.0501 -0.7403
12833TIP3    H259915   3.872  -0.026   0.099 -2.5536  0.0989 -1.6242
12834TIP3   OH259916   4.261   3.779  11.891 -0.3704 -0.2237  0.0717
12834TIP3    H159917   4.327   3.802  11.825 -0.1927  0.2577  0.4098
12834TIP3    H259918   4.230   3.693  11.865  0.4891 -0.5145 -0.0248
12835TIP3   OH259919   2.841   1.641   4.951 -0.0052 -0.3563 -0.1640
12835TIP3    H159920   2.908   1.585   4.989 -0.6802 -2.1237 -1.4456
12835TIP3    H259921   2.881   1.677   4.872 -0.3586 -0.9925 -0.6450
12836TIP3   OH259922   4.945   5.406  13.110  0.1412 -0.0174  0.0275
12836TIP3    H159923   5.038   5.423  13.122  0.3472 -1.1893  0.2864
12836TIP3    H259924   4.927   5.430  13.020  0.3736  1.4972  0.3541
12837TIP3   OH259925   0.612   2.957  14.871  0.2855 -0.1739  0.1267
12837TIP3    H159926   0.681   2.938  14.807 -0.0886 -1.3048  0.0284
12837TIP3    H259927   0.585   2.871  14.903 -0.5481  0.2945  0.7294
12838TIP3   OH259928   4.650   4.486   0.341  0.2285 -0.1919  0.4353
12838TIP3    H159929   4.572   4.443   0.306 -0.4297  0.8779  0.5746
12838TIP3    H259930   4.626   4.512   0.430 -0.0613  2.1176 -0.2531
12839TIP3   OH259931   0.220   2.135  13.563  0.3084  0.0982  0.1148
12839TIP3    H159932   0.203   2.229  13.571  0.7404  0.2034 -0.2117
12839TIP3    H259933   0.304   2.129  13.519  0.0077 -0.4444 -0.4025
12840TIP3   OH259934   1.949   0.073   1.848 -0.0104 -0.4026  0.4703
12840TIP3    H159935   1.884   0.004   1.834  1.9957 -2.2019 -0.5823
12840TIP3    H259936   2.010   0.037   1.912  1.0750  0.3830 -0.0797
12841TIP3   OH259937   2.859   0.958   0.268 -0.6072 -0.3824  0.8611
12841TIP3    H159938   2.952   0.981   0.264 -0.6436  0.1441  2.4651
12841TIP3    H259939   2.859   0.862   0.263 -0.1421 -0.3358 -1.0431
12842TIP3   OH259940   0.513   1.431  13.569  0.4277  0.4088 -0.3868
12842TIP3    H159941   0.419   1.445  13.573  0.5839  1.2473  1.1562
12842TIP3    H259942   0.531   1.373  13.644  0.9075 -1.4126 -1.8238
12843TIP3   OH259943   5.109   4.787   6.064 -0.1244 -0.3247 -0.1590
12843TIP3    H159944   5.068   4.750   6.142  0.3374 -0.1848  0.1540
12843TIP3    H259945   5.035   4.811   6.007 -0.4593 -0.5433  0.1791
12844TIP3   OH259946   6.613   3.464   0.540  0.1045 -0.2856  0.2136
12844TIP3    H159947   6.628   3.515   0.461 -0.9460 -0.1471  0.0937
12844TIP3    H259948   6.623   3.528   0.611  2.6361 -0.7251  0.3403
12845TIP3   OH259949   1.107   6.385  14.369 -0.2683  0.1661 -0.1495
12845TIP3    H159950   1.122   6.292  14.351 -0.4746  0.1827 -0.4137
12845TIP3    H259951   1.194   6.424  14.373 -0.1919  0.0107 -0.3049
12846TIP3   OH259952   5.564   4.820  11.746 -0.6589  0.0971 -0.3452
12846TIP3    H159953   5.536   4.733  11.773  1.7941 -1.0094 -1.1701
12846TIP3    H259954   5.621   4.851  11.817 -3.0246  1.9612  0.9074
12847TIP3   OH259955   4.414   2.261   3.884 -0.3718  0.4442 -0.1735
12847TIP3    H159956   4.409   2.355   3.868 -0.5265  0.9498  2.3642
12847TIP3    H259957   4.339   2.243   3.942  0.4058 -0.9635  0.4394
12848TIP3   OH259958   3.359   1.095   0.862  0.0373 -0.0934 -0.2207
12848TIP3    H159959   3.408   1.109   0.943 -0.0432 -0.6338 -0.0699
12848TIP3    H259960   3.305   1.173   0.852  1.2097  0.6851 -0.5967
12849TIP3   OH259961   5.678   5.782   0.512 -0.1291 -0.0218 -0.4398
12849TIP3    H159962   5.653   5.808   0.424 -2.2262  1.8717  0.6258
12849TIP3    H259963   5.666   5.860   0.565 -0.0011 -1.3881  1.7543
12850TIP3   OH259964   2.707   2.425  16.752  0.0420  0.1374 -0.0523
12850TIP3    H159965   2.701   2.481  16.830 -1.9353 -1.0326  0.7216
12850TIP3    H259966   2.631   2.451  16.700 -1.2913 -2.1648  0.6195
12851TIP3   OH259967   6.665   5.785   5.480 -0.2881  0.1233 -0.0494
12851TIP3    H159968   6.697   5.699   5.507  1.3528  1.1160  1.4314
12851TIP3    H259969   6.726   5.813   5.412 -1.6140 -0.3734 -1.5242
12852TIP3   OH259970   5.326   3.500  12.661 -0.4203  0.6498 -0.4802
12852TIP3    H159971   5.402   3.536  12.706  0.3864 -0.2902 -1.0330
12852TIP3    H259972   5.270   3.575  12.643  0.5646  1.4233 -0.4036
12853TIP3   OH259973   3.390   5.293   0.797  0.1602  0.3451  0.4772
12853TIP3    H159974   3.317   5.304   0.736  0.4788  1.5249  0.2703
12853TIP3    H259975   3.387   5.201   0.823 -0.4925  0.0292 -0.6657
12854TIP3   OH259976   2.263   5.093   0.609 -0.1462 -0.1084  0.2181
12854TIP3    H159977   2.178   5.085   0.651 -0.8089  0.5973 -0.9404
12854TIP3    H259978   2.246   5.080   0.516  0.8724  0.7802 -0.1284
12855TIP3   OH259979   6.391   0.436  16.014  0.5996  0.0111 -0.2472
12855TIP3    H159980   6.361   0.386  15.937 -1.5144 -0.4647  0.8236
12855TIP3    H259981   6.447   0.504  15.977  0.1216 -0.5549 -2.1672
12856TIP3   OH259982   4.139   1.498   0.156  0.3771  0.0435  0.1269
12856TIP3    H159983   4.144   1.591   0.134  1.9155  0.2475  1.2256
12856TIP3    H259984   4.228   1.474   0.180  0.4124 -2.1837 -1.8710
12857TIP3   OH259985   5.890   3.988  14.134 -0.3150  0.4718  0.4795
12857TIP3    H159986   5.919   4.027  14.052 -0.5650 -2.3373 -1.0502
12857TIP3    H259987   5.795   3.999  14.133 -0.2250  1.4209  0.9795
12858TIP3   OH259988   6.669   3.805  12.936  0.4045  0.0437  0.9016
12858TIP3    H159989   6.737   3.824  12.872 -0.9147  1.0386 -0.2781
12858TIP3    H259990   6.588   3.833  12.894 -0.6536 -0.3567  2.5657
12859TIP3   OH259991   5.094   6.144  14.356 -0.6326  0.3179 -0.0596
12859TIP3    H159992   5.178   6.129  14.401  0.0835  1.8451 -0.7980
12859TIP3    H259993   5.099   6.088  14.278  1.0523  2.5170 -1.6526
12860TIP3   OH259994   5.414   3.514   4.364  0.2807 -0.0622 -0.3201
12860TIP3    H159995   5.338   3.471   4.403 -0.0873  0.6266 -0.2607
12860TIP3    H259996   5.377   3.588   4.317  1.1057  1.7198  1.6909
12861TIP3   OH259997   6.530   5.818  15.087 -0.0053  0.6665  0.0299
12861TIP3    H159998   6.460   5.864  15.134 -1.5456 -1.8206  0.3135
12861TIP3    H259999   6.601   5.812  15.151 -0.9996 -0.1547  1.0817
12862TIP3   OH260000   4.448   4.039   5.832 -0.2040  0.5717 -0.5596
12862TIP3    H160001   4.394   3.967   5.800  1.2110  0.1521 -2.1388
12862TIP3    H260002   4.412   4.117   5.790 -0.7452  0.5784 -0.0976
12863TIP3   OH260003   3.397   2.890   1.168  0.1679  0.1838  0.3100
12863TIP3    H160004   3.457   2.844   1.227  2.2570  1.5235 -0.6156
12863TIP3    H260005   3.358   2.958   1.222  0.4156  0.0617  0.6498
12864TIP3   OH260006   0.290   3.136   3.953 -0.3321 -0.2641 -0.3402
12864TIP3    H160007   0.327   3.065   4.006 -1.7674 -1.6843 -1.1575
12864TIP3    H260008   0.231   3.092   3.892 -2.5451  1.7739  0.1870
12865TIP3   OH260009   4.397   3.576  13.390 -0.0854 -0.5122 -0.2584
12865TIP3    H160010   4.374   3.492  13.351 -0.9886 -1.2367  1.6709
12865TIP3    H260011   4.448   3.553  13.468 -1.6924  0.6093  1.2008
12866TIP3   OH260012   0.135   3.590  11.499  0.8964  0.6258  0.5720
12866TIP3    H160013   0.055   3.583  11.551  0.4544  1.9173  0.1062
12866TIP3    H260014   0.117   3.539  11.421 -0.8775  3.5388 -1.1265
12867TIP3   OH260015   6.745   1.593   3.950 -0.1635  0.1136  0.7383
12867TIP3    H160016   6.680   1.643   3.998 -0.6498 -1.4820  1.8060
12867TIP3    H260017   6.702   1.510   3.929  0.6387  0.0741 -0.9265
12868TIP3   OH260018   4.933   6.532   0.107  0.3947 -0.5922  0.3912
12868TIP3    H160019   5.023   6.552   0.133  0.2041 -0.7563  1.2353
12868TIP3    H260020   4.880   6.556   0.184 -0.3291 -0.1069 -0.2512
12869TIP3   OH260021   0.143   5.707  12.800  0.3920  0.2765 -0.2170
12869TIP3    H160022   0.129   5.775  12.734  1.2715  1.2715  0.5791
12869TIP3    H260023   0.122   5.749  12.883  0.7534 -0.4878  0.2749
12870TIP3   OH260024   0.209   4.972   3.406 -0.7481 -0.0628  0.0665
12870TIP3    H160025   0.277   4.982   3.339  0.2922  2.7213  1.4049
12870TIP3    H260026   0.243   4.905   3.465  0.0508  0.1375 -0.1586
12871TIP3   OH260027   3.319   1.211  17.084 -0.3879  0.3318  0.1754
12871TIP3    H160028   3.388   1.201  17.017 -0.6625  2.0302 -0.4288
12871TIP3    H260029   3.272   1.128  17.083  0.0509  0.0649 -1.2684
12872TIP3   OH260030   1.648   6.048   3.069  0.5281 -0.1285  0.1620
12872TIP3    H160031   1.726   6.067   3.121  0.8502 -0.1633 -0.3041
12872TIP3    H260032   1.577   6.091   3.116  1.0016  0.8651 -0.0131
12873TIP3   OH260033   4.534   5.953  12.678 -0.1421  0.2507  0.4649
12873TIP3    H160034   4.465   5.949  12.612  0.7674 -1.6854 -0.4300
12873TIP3    H260035   4.561   5.862  12.691  3.8769  1.0414 -1.0137
12874TIP3   OH260036   2.150   6.494   4.708 -0.0215  0.0265 -0.0227
12874TIP3    H160037   2.173   6.567   4.766 -0.2852  1.1118 -1.2335
12874TIP3    H260038   2.075   6.453   4.751  1.4647 -0.9554  1.8058
12875TIP3   OH260039   0.649   2.079   1.925 -0.2297  0.3336  0.3960
12875TIP3    H160040   0.675   2.107   2.013 -0.3397 -0.7356  0.7870
12875TIP3    H260041   0.724   2.103   1.870  0.9194 -1.1768  1.2236
12876TIP3   OH260042   1.234   1.243  10.542  0.2743  0.0962  0.1020
12876TIP3    H160043   1.208   1.325  10.499 -0.8033 -0.0661  0.4055
12876TIP3    H260044   1.187   1.176  10.492 -1.1614 -0.0829  1.6125
12877TIP3   OH260045   2.220   5.016  14.959 -0.3664 -0.2411 -0.3410
12877TIP3    H160046   2.271   5.086  15.000  0.3287 -0.4887 -0.7653
12877TIP3    H260047   2.258   4.935  14.992 -0.2561 -0.4337 -0.9221
12878TIP3   OH260048   0.027   3.992   4.387 -0.2866  0.4766  0.0339
12878TIP3    H160049   0.091   4.047   4.341 -0.3973 -1.0373 -2.0648
12878TIP3    H260050   0.080   3.939   4.446  0.0857  1.0733  0.2531
12879TIP3   OH260051   2.467   5.017   2.478 -0.1444 -0.0887  0.4367
12879TIP3    H160052   2.499   4.951   2.540  2.6505  0.4694 -0.2722
12879TIP3    H260053   2.546   5.047   2.432 -1.8139  1.1123 -1.8493
12880TIP3   OH260054   4.377   0.103   1.259 -0.0398 -0.2439  0.5997
12880TIP3    H160055   4.449   0.152   1.219 -0.9781 -0.0339 -0.9369
12880TIP3    H260056   4.298   0.151   1.235 -0.8788 -1.7167  0.2307
12881TIP3   OH260057   6.596   1.772   1.047  0.3166 -0.1934 -0.2423
12881TIP3    H160058   6.568   1.685   1.018 -0.2532 -0.2101  0.3418
12881TIP3    H260059   6.520   1.807   1.094  0.6439  0.5056 -0.2289
12882TIP3   OH260060   2.851   0.483  13.932  0.0354 -0.1909  0.0102
12882TIP3    H160061   2.944   0.494  13.949  0.1715 -0.9040 -0.2178
12882TIP3    H260062   2.832   0.541  13.858  0.7625 -1.5609 -1.3099
12883TIP3   OH260063   5.113   0.460  17.262 -0.1153  0.1336 -0.1896
12883TIP3    H160064   5.148   0.528  17.319 -1.5547  0.2763  0.5893
12883TIP3    H260065   5.116   0.381  17.315  1.5715 -0.4600 -1.1002
12884TIP3   OH260066   4.552   3.790   3.185 -0.3951  0.1160  0.3148
12884TIP3    H160067   4.558   3.748   3.099  1.0623 -0.2012  0.5583
12884TIP3    H260068   4.476   3.748   3.226  0.3501 -1.4914  0.1181
12885TIP3   OH260069   5.320   5.288  16.933 -0.2621  0.3450 -0.4766
12885TIP3    H160070   5.318   5.196  16.959  0.7465  0.6809  0.8530
12885TIP3    H260071   5.231   5.305  16.901 -0.9438 -0.6726  0.7654
12886TIP3   OH260072   2.476   5.153  15.800 -0.5033  0.0469 -0.3203
12886TIP3    H160073   2.488   5.248  15.803 -0.6450  0.1651 -2.2024
12886TIP3    H260074   2.403   5.140  15.740  0.6011 -1.3063 -1.4413
12887TIP3   OH260075   1.743   5.787  16.551  0.5417 -0.6209 -0.0722
12887TIP3    H160076   1.683   5.842  16.501 -0.6845 -1.4506  0.4298
12887TIP3    H260077   1.814   5.766  16.489  0.5195  0.6875 -0.5576
12888TIP3   OH260078   5.301   5.216  16.561 -0.0898 -0.2038  0.4469
12888TIP3    H160079   5.212   5.202  16.594  0.3585 -0.8810  1.3823
12888TIP3    H260080   5.358   5.180  16.628  0.9720  1.8104  0.7160
12889TIP3   OH260081   6.514   0.396   0.274  0.1572 -0.4033 -0.0329
12889TIP3    H160082   6.422   0.373   0.255  0.4180 -1.0332 -0.5910
12889TIP3    H260083   6.564   0.325   0.235  0.8393 -0.7506  1.4131
12890TIP3   OH260084   3.520   0.908  13.433 -0.3077 -0.2276 -0.1708
12890TIP3    H160085   3.469   0.938  13.358  1.0988  2.6755 -0.1257
12890TIP3    H260086   3.474   0.943  13.509  0.6540  0.8226 -0.0307
12891TIP3   OH260087   6.242   3.493  14.875 -0.0460 -0.1820  0.0470
12891TIP3    H160088   6.180   3.469  14.807 -0.6898  0.6195  0.3425
12891TIP3    H260089   6.238   3.420  14.937 -0.0766 -0.5205 -0.3495
12892TIP3   OH260090   5.514   3.222  15.350 -0.1385 -0.0735 -0.1599
12892TIP3    H160091   5.435   3.271  15.327 -0.2832  0.5216  1.5228
12892TIP3    H260092   5.585   3.269  15.307 -0.5421  0.1967 -0.5401
12893TIP3   OH260093   4.424   4.849   2.628  0.2606 -0.1289  0.5819
12893TIP3    H160094   4.330   4.865   2.642  0.3414  0.9075  0.0350
12893TIP3    H260095   4.430   4.817   2.538  0.4559  0.0488  0.5312
12894TIP3   OH260096   5.996   3.038  14.932  0.2458 -0.5156 -0.6657
12894TIP3    H160097   6.063   3.025  14.865  2.7044  3.4199  0.7101
12894TIP3    H260098   6.011   2.967  14.994  3.1456  0.1326 -0.5027
12895TIP3   OH260099   3.492   4.625  12.916  0.1019 -0.4054  0.4670
12895TIP3    H160100   3.488   4.665  12.829 -5.1017 -0.5816  0.3484
12895TIP3    H260101   3.498   4.531  12.898  3.7278 -0.3652  0.6187
12896TIP3   OH260102   2.734   2.047   0.398  0.1621  0.3978 -0.0919
12896TIP3    H160103   2.771   2.055   0.486  0.2049  0.8410 -0.1434
12896TIP3    H260104   2.688   1.964   0.398  0.6412  0.1293  0.1715
12897TIP3   OH260105   4.308   4.840   1.932  0.4785  0.4720 -0.2890
12897TIP3    H160106   4.355   4.922   1.948  1.0767  0.5339 -2.0824
12897TIP3    H260107   4.275   4.849   1.842 -0.5619 -0.7321 -0.0537
12898TIP3   OH260108   3.600   2.359  17.217 -0.5705  0.2928  0.2150
12898TIP3    H160109   3.555   2.427  17.267 -1.9824 -0.1776 -0.3737
12898TIP3    H260110   3.554   2.355  17.134  0.0515 -0.7765 -0.1057
12899TIP3   OH260111   5.964   0.730   4.151  0.4458  0.1760 -0.0330
12899TIP3    H160112   5.918   0.801   4.105 -1.4537 -1.5443 -0.9496
12899TIP3    H260113   6.037   0.707   4.093 -1.2537 -1.1926 -1.7603
12900TIP3   OH260114   4.337   0.877  12.323 -0.1944  0.0319  0.7006
12900TIP3    H160115   4.420   0.920  12.302  0.1460 -0.7401  0.4440
12900TIP3    H260116   4.357   0.784  12.322 -0.7586 -0.1248  2.0042
12901TIP3   OH260117   3.956   5.610  11.191 -0.3863 -0.1739 -0.1081
12901TIP3    H160118   3.945   5.675  11.122 -0.4880 -1.4709 -1.3681
12901TIP3    H260119   3.930   5.527  11.150  0.3861 -1.1191  1.2286
12902TIP3   OH260120   3.601   6.330   0.083  0.0435 -0.3206 -0.0246
12902TIP3    H160121   3.623   6.374   0.165  1.9042 -1.4551  0.1551
12902TIP3    H260122   3.625   6.392   0.014  0.1302 -0.0351  0.2639
12903TIP3   OH260123   5.990   4.154  16.643  0.3663 -0.2019 -0.7520
12903TIP3    H160124   5.906   4.110  16.654  1.1374 -1.5590  0.0733
12903TIP3    H260125   6.012   4.142  16.550  0.5218 -1.5682 -0.5667
12904TIP3   OH260126   6.064   3.139   0.606  0.0131  0.3070  0.7427
12904TIP3    H160127   6.148   3.148   0.650 -0.0307  0.7246  0.7490
12904TIP3    H260128   6.064   3.208   0.540  0.9578 -1.6231 -1.3888
12905TIP3   OH260129   5.384   4.168   4.240 -0.2817  0.2337 -0.2297
12905TIP3    H160130   5.478   4.184   4.238 -0.1084 -0.7738 -1.5790
12905TIP3    H260131   5.344   4.248   4.206  0.2448 -0.1880 -1.9031
12906TIP3   OH260132   4.131   3.818   0.107 -0.0145 -0.1848 -0.6689
12906TIP3    H160133   4.163   3.842   0.193  1.1429  0.5795 -1.2815
12906TIP3    H260134   4.045   3.860   0.101 -1.4625 -2.5961  1.1469
12907TIP3   OH260135   2.754   4.531   4.050 -0.2658  0.4964  0.1082
12907TIP3    H160136   2.697   4.497   3.981 -0.1292  0.3222  0.0806
12907TIP3    H260137   2.818   4.585   4.004 -1.0013  1.4952  0.2377
12908TIP3   OH260138   3.932   2.538   5.221  0.4625  0.1829  0.3391
12908TIP3    H160139   3.890   2.605   5.168  0.6341  0.2769  0.3217
12908TIP3    H260140   3.898   2.553   5.310  0.3736  0.1867  0.3045
12909TIP3   OH260141   0.006   1.221   4.532 -0.0143 -0.3553 -0.0864
12909TIP3    H160142  -0.020   1.244   4.443 -0.6642  0.1276  0.2174
12909TIP3    H260143   0.021   1.126   4.529 -2.6288 -0.8398 -0.1362
12910TIP3   OH260144   2.626   5.940  11.406  0.9628  0.3759  0.1608
12910TIP3    H160145   2.697   5.924  11.344  0.6501 -1.6624  0.2687
12910TIP3    H260146   2.664   5.925  11.492  0.6534  0.2605  0.2806
12911TIP3   OH260147   4.615   4.033   3.060  0.2906 -0.0310  0.0365
12911TIP3    H160148   4.598   3.955   3.113  0.5053 -0.2560 -0.2226
12911TIP3    H260149   4.528   4.069   3.041  0.2477  1.1321  2.1113
12912TIP3   OH260150   1.366   6.168  11.406 -0.1295 -0.3251  0.5232
12912TIP3    H160151   1.399   6.173  11.495  0.0385  0.3285  0.4238
12912TIP3    H260152   1.325   6.081  11.401 -1.7414  0.3282  1.7742
12913TIP3   OH260153   1.087   0.878   0.057 -0.1782  0.1217 -0.7109
12913TIP3    H160154   1.081   0.948   0.123  0.0702  0.4182 -0.9992
12913TIP3    H260155   1.000   0.877   0.016 -0.4046 -0.2110 -0.2380
12914TIP3   OH260156   0.777   3.360  17.288  0.0252  0.5304 -0.0107
12914TIP3    H160157   0.794   3.329  17.199 -1.8238 -0.6329 -0.0098
12914TIP3    H260158   0.770   3.280  17.340 -0.4221  1.1431  0.8871
12915TIP3   OH260159   5.947   0.714  16.862  0.1823  0.4517 -0.0574
12915TIP3    H160160   5.887   0.736  16.933 -0.3944  0.1151 -0.4295
12915TIP3    H260161   5.893   0.668  16.798  1.2857 -1.9096  0.6035
12916TIP3   OH260162   5.485   6.601  12.258 -0.3910 -0.4698  0.3399
12916TIP3    H160163   5.396   6.599  12.294 -0.9554 -0.0010 -0.9675
12916TIP3    H260164   5.542   6.610  12.334 -1.3967 -1.6666  1.2863
12917TIP3   OH260165   3.819   2.051  13.857 -0.1714 -0.1481 -0.0862
12917TIP3    H160166   3.783   2.138  13.874  1.3487  0.6706 -0.9039
12917TIP3    H260167   3.808   2.004  13.940 -0.1500  1.1275  0.6626
12918TIP3   OH260168   0.871   4.324   0.231  0.0677  0.1731 -0.2376
12918TIP3    H160169   0.912   4.296   0.148  0.0699  0.0284 -0.1880
12918TIP3    H260170   0.781   4.346   0.207 -0.1156 -0.4771 -0.1651
12919TIP3   OH260171   4.697   4.330  13.975 -0.4107 -0.6504 -0.6824
12919TIP3    H160172   4.746   4.264  13.926 -0.1967 -1.9334  1.1686
12919TIP3    H260173   4.669   4.393  13.908  1.8358 -1.0523 -2.1168
12920TIP3   OH260174   4.470   1.849  11.165 -0.2777 -0.3347  0.1980
12920TIP3    H160175   4.424   1.858  11.082 -1.1161 -1.2488  0.5401
12920TIP3    H260176   4.492   1.939  11.191 -0.1122 -0.0329 -0.9344
12921TIP3   OH260177   5.010   0.443   4.062  0.0762  0.3983 -1.0369
12921TIP3    H160178   5.068   0.368   4.047 -0.6346 -0.1872 -0.8857
12921TIP3    H260179   4.934   0.427   4.006 -0.9838 -0.0088  0.4554
12922TIP3   OH260180   2.885   2.378   3.026 -0.3184  0.1205 -0.2897
12922TIP3    H160181   2.973   2.399   2.996  0.3160 -0.3123  1.1559
12922TIP3    H260182   2.872   2.286   3.001  0.6370 -0.5834  1.5898
12923TIP3   OH260183   5.478   6.002   6.224 -0.5557  0.2129  0.1916
12923TIP3    H160184   5.435   6.087   6.233 -2.1717 -0.5016 -0.4060
12923TIP3    H260185   5.530   5.992   6.303 -0.7276  1.5465  0.4869
12924TIP3   OH260186   4.774   3.509  12.086  0.3335 -0.3413 -0.7381
12924TIP3    H160187   4.822   3.492  12.006  0.6235  0.8407 -0.8321
12924TIP3    H260188   4.758   3.604  12.086 -1.6617 -0.6253 -0.5250
12925TIP3   OH260189   0.641   2.361   5.740 -0.2566 -0.0241 -0.0672
12925TIP3    H160190   0.639   2.273   5.702 -0.4310 -0.1514  0.2365
12925TIP3    H260191   0.682   2.349   5.826  2.1614  0.5810 -1.0518
12926TIP3   OH260192   1.103   4.783   4.814  0.2375 -0.0303  0.1413
12926TIP3    H160193   1.181   4.751   4.861  1.1523  1.5967 -0.1928
12926TIP3    H260194   1.032   4.727   4.846  1.4337 -1.1993  0.8852
12927TIP3   OH260195   3.902   2.577  14.995  0.3695 -0.2087 -0.3673
12927TIP3    H160196   3.818   2.617  14.973  0.0355 -0.0966  1.0154
12927TIP3    H260197   3.911   2.504  14.933 -0.7988 -0.2972 -0.4465
12928TIP3   OH260198   4.040   1.722  11.963 -0.3641 -0.0340 -0.1060
12928TIP3    H160199   4.047   1.641  12.012 -2.4017  1.0512  2.1696
12928TIP3    H260200   4.125   1.765  11.974  0.7285 -1.7575 -1.3275
12929TIP3   OH260201   1.682   4.071  13.183  0.1044  0.2583  0.0675
12929TIP3    H160202   1.618   4.032  13.126 -0.3339 -1.5338  1.6868
12929TIP3    H260203   1.632   4.103  13.258  0.7585  1.7546 -0.0845
12930TIP3   OH260204   1.211   3.815   5.614 -0.1701  0.2539  0.0520
12930TIP3    H160205   1.231   3.898   5.570 -1.1723 -0.4009 -1.7595
12930TIP3    H260206   1.295   3.769   5.617  0.2731  1.0771  0.5247
12931TIP3   OH260207   1.108   6.691   5.723 -0.5158 -0.6263  0.2763
12931TIP3    H160208   1.123   6.654   5.809 -0.3523 -1.6976 -0.1958
12931TIP3    H260209   1.129   6.620   5.662 -3.3664 -0.8911 -0.5764
12932TIP3   OH260210   6.483   3.098   2.510  0.4447 -0.0488 -0.5261
12932TIP3    H160211   6.515   3.035   2.575 -0.1892  0.0177 -0.1428
12932TIP3    H260212   6.510   3.061   2.426 -1.6949 -1.9599 -0.4888
12933TIP3   OH260213   0.436   5.037  13.799  0.0450  0.3075 -0.1622
12933TIP3    H160214   0.513   4.981  13.785 -0.2741 -0.0044 -0.6671
12933TIP3    H260215   0.438   5.057  13.893 -0.0657 -0.8757  0.1029
12934TIP3   OH260216   5.189   1.888  15.395 -0.1738  0.2140 -0.1265
12934TIP3    H160217   5.252   1.933  15.340 -0.7963  3.1024  1.3480
12934TIP3    H260218   5.242   1.844  15.461  0.4088 -0.3830 -0.9730
12935TIP3   OH260219   3.461   5.861  14.492 -0.4020  0.4343 -0.4812
12935TIP3    H160220   3.489   5.923  14.559 -1.6216  2.6832 -1.9479
12935TIP3    H260221   3.412   5.794  14.540 -0.3656  1.4107  0.9756
12936TIP3   OH260222   1.551   4.766   5.800  0.4116  0.0490  0.2704
12936TIP3    H160223   1.641   4.738   5.814  1.0645  0.9651 -1.7957
12936TIP3    H260224   1.498   4.688   5.819  1.9399 -1.8461 -2.5463
12937TIP3   OH260225   2.057   2.274   3.583  0.3101 -0.0176 -0.2272
12937TIP3    H160226   2.123   2.341   3.598 -1.3223  1.7364 -0.4551
12937TIP3    H260227   2.019   2.257   3.670  0.1883 -0.0674 -0.2892
12938TIP3   OH260228   4.721   5.684   0.011 -0.4497 -0.6495  0.0225
12938TIP3    H160229   4.814   5.703   0.014 -0.5322  0.2386 -1.7221
12938TIP3    H260230   4.685   5.725   0.090  0.4434  0.1514  0.0225
12939TIP3   OH260231   3.325   5.380  16.461 -0.4708 -0.6107 -0.0959
12939TIP3    H160232   3.375   5.316  16.409  0.2000 -1.3296  1.3619
12939TIP3    H260233   3.379   5.395  16.538 -0.5039  1.9545 -0.4974
12940TIP3   OH260234   1.222   2.394   4.847 -0.3894 -0.4693 -0.2213
12940TIP3    H160235   1.268   2.398   4.931 -0.6487 -0.4314 -0.0806
12940TIP3    H260236   1.250   2.473   4.801 -0.5674 -0.2760 -0.0029
12941TIP3   OH260237   6.006   2.119  16.342  0.3939 -0.1528 -0.1348
12941TIP3    H160238   5.947   2.088  16.410 -0.5220  0.7924 -0.4801
12941TIP3    H260239   6.062   2.183  16.387 -1.5949  2.0716 -0.6630
12942TIP3   OH260240   6.066   3.021   1.178 -0.2958  0.2688  0.2672
12942TIP3    H160241   5.995   3.050   1.234 -2.3916 -0.4947 -1.8037
12942TIP3    H260242   6.096   3.100   1.133  0.4708  0.6474  1.3833
12943TIP3   OH260243   0.869   6.518  11.874 -0.1030  0.4538  0.5592
12943TIP3    H160244   0.798   6.582  11.874 -0.3319  0.3603 -2.3806
12943TIP3    H260245   0.831   6.440  11.913 -2.0857  0.0567 -1.8946
12944TIP3   OH260246   0.840   5.318   4.851  0.3830 -0.0809  0.7595
12944TIP3    H160247   0.766   5.270   4.813 -0.5217  0.5472  1.6874
12944TIP3    H260248   0.878   5.364   4.777 -2.3115  2.3867  0.7208
12945TIP3   OH260249   2.293   0.269   5.076 -0.7742 -0.6782 -0.6157
12945TIP3    H160250   2.381   0.273   5.112 -0.2835 -2.6843 -1.4389
12945TIP3    H260251   2.298   0.323   4.997 -1.3373  2.1504  1.1413
12946TIP3   OH260252   2.807   6.044   2.646 -0.0604 -0.8857  0.0870
12946TIP3    H160253   2.883   6.051   2.589  0.5376 -1.2552  0.8113
12946TIP3    H260254   2.835   6.085   2.728 -0.3144 -1.8381  0.6630
12947TIP3   OH260255   1.976   2.795  17.008 -0.0482  0.6894 -0.2633
12947TIP3    H160256   2.066   2.792  16.977  0.0287 -1.0653 -0.0071
12947TIP3    H260257   1.983   2.820  17.100  0.3743 -1.0340  0.2219
12948TIP3   OH260258   3.629   1.644  13.846  0.3385  0.5664 -0.3727
12948TIP3    H160259   3.649   1.619  13.756  0.0046 -0.0890 -0.2692
12948TIP3    H260260   3.714   1.641  13.891  0.3373 -0.1943 -0.4114
12949TIP3   OH260261   1.017   4.617   0.968 -0.2921  0.0337  0.0861
12949TIP3    H160262   0.980   4.595   0.882  2.0943 -0.0960 -0.9956
12949TIP3    H260263   0.955   4.679   1.006 -1.8771 -0.6014 -1.3115
12950TIP3   OH260264   1.631   0.448  15.658 -0.5535  0.1050 -0.1393
12950TIP3    H160265   1.717   0.415  15.632 -1.3816 -1.6362 -0.7780
12950TIP3    H260266   1.625   0.428  15.751  0.5546  2.1899  0.4476
12951TIP3   OH260267   0.557   2.798  13.797  0.0427  0.2456 -0.1839
12951TIP3    H160268   0.568   2.790  13.892 -0.9990  0.7108 -0.0044
12951TIP3    H260269   0.640   2.833  13.766  0.3715  0.1601  0.5730
12952TIP3   OH260270   2.944   1.385   0.677  0.0050  1.3161 -0.2134
12952TIP3    H160271   2.915   1.401   0.587  0.0629  1.0278 -0.2858
12952TIP3    H260272   3.003   1.457   0.696  1.0413  0.6690 -0.8830
12953TIP3   OH260273   1.367   6.452  13.083 -0.2240 -0.0898  0.1170
12953TIP3    H160274   1.282   6.439  13.126 -1.2133  2.5166 -0.8646
12953TIP3    H260275   1.409   6.522  13.133 -0.1217  0.9302 -1.3426
12954TIP3   OH260276   4.990   2.139   4.693 -0.2417 -0.1930  0.0989
12954TIP3    H160277   4.924   2.098   4.637  1.3815 -1.1690 -1.1667
12954TIP3    H260278   5.035   2.201   4.636 -0.5586  1.0565  1.1644
12955TIP3   OH260279   6.442   3.850  16.833  0.1073 -0.6957 -0.1583
12955TIP3    H160280   6.353   3.833  16.802  0.8066 -0.3432 -2.5826
12955TIP3    H260281   6.477   3.915  16.771  1.7459 -0.1103  1.2971
12956TIP3   OH260282   2.937   4.093  13.145  0.6883  0.3732  0.5407
12956TIP3    H160283   3.014   4.098  13.201  0.6608  0.4854  0.5699
12956TIP3    H260284   2.919   4.184  13.120 -0.7573  0.6313  2.3395
12957TIP3   OH260285   1.813   3.072   2.280  0.3152  0.8424 -0.1257
12957TIP3    H160286   1.828   3.163   2.253  4.1154 -0.1667 -2.1134
12957TIP3    H260287   1.853   3.066   2.367  0.0439  1.0620  0.0172
12958TIP3   OH260288   5.461   4.556   1.008  0.3470  0.4212  0.0656
12958TIP3    H160289   5.409   4.608   0.946  0.2639 -0.5580 -0.7042
12958TIP3    H260290   5.468   4.612   1.086  0.3003  1.6039 -0.7529
12959TIP3   OH260291   5.308   1.416   2.667  0.4982  0.8709  0.5004
12959TIP3    H160292   5.284   1.461   2.586 -0.3729 -0.0086  0.2427
12959TIP3    H260293   5.276   1.326   2.655  0.9328  0.5509  1.5608
12960TIP3   OH260294   6.267   6.232   2.536  0.3217  0.3794  0.2329
12960TIP3    H160295   6.324   6.177   2.590 -0.5033  0.9561  1.7542
12960TIP3    H260296   6.217   6.284   2.599 -2.4073 -0.5617 -0.9846
12961TIP3   OH260297   1.535   1.967   5.573 -0.0611 -0.4635  0.0903
12961TIP3    H160298   1.555   1.943   5.664  1.6119 -1.9594 -0.6169
12961TIP3    H260299   1.611   1.939   5.523  0.5958  3.3106 -1.4010
12962TIP3   OH260300   2.333   0.127   1.467  0.1131  0.4133 -0.1962
12962TIP3    H160301   2.318   0.066   1.540 -0.0006 -0.6494 -1.0900
12962TIP3    H260302   2.388   0.079   1.406  1.7808  1.9552 -0.0002
12963TIP3   OH260303   1.650   2.429   5.465 -0.4855  0.1996 -0.7251
12963TIP3    H160304   1.666   2.464   5.553 -0.8478 -1.0002 -0.1654
12963TIP3    H260305   1.686   2.340   5.468 -0.5868  0.1195 -1.7707
12964TIP3   OH260306   4.174   3.993   0.388  0.3262  0.4454 -0.1307
12964TIP3    H160307   4.235   3.922   0.369 -1.3715 -0.6681 -1.8451
12964TIP3    H260308   4.105   3.951   0.439  0.0484  1.2279  0.1359
12965TIP3   OH260309   2.379   2.309   0.673  0.3559  0.0064 -0.1704
12965TIP3    H160310   2.319   2.234   0.673 -0.6394  0.7750 -0.7966
12965TIP3    H260311   2.461   2.274   0.638 -0.1425 -0.7451 -0.6209
12966TIP3   OH260312   5.356   5.448  14.989 -0.1823  0.1877  0.2885
12966TIP3    H160313   5.360   5.474  14.897 -1.3309  0.9681  0.4333
12966TIP3    H260314   5.396   5.361  14.991  0.5980  0.4975 -0.8038
12967TIP3   OH260315   1.339   4.135  13.222  0.1297 -0.0382  0.3307
12967TIP3    H160316   1.313   4.225  13.204 -0.6361 -0.2768  0.2087
12967TIP3    H260317   1.423   4.143  13.267  1.0076  0.6676 -1.3280
12968TIP3   OH260318   1.543   5.994  13.614  0.0202 -0.0486  0.3721
12968TIP3    H160319   1.587   5.999  13.529 -3.1870  0.0171 -1.4736
12968TIP3    H260320   1.572   5.911  13.652 -0.5350 -1.4844 -2.1373
12969TIP3   OH260321   2.663   3.621   5.920  0.1132  0.4818  0.3821
12969TIP3    H160322   2.592   3.651   5.977  1.3963  0.1327  2.2376
12969TIP3    H260323   2.694   3.540   5.961  0.7366 -0.0887 -1.1349
12970TIP3   OH260324   6.191   3.673  11.786  0.0134  0.0132 -0.1349
12970TIP3    H160325   6.252   3.603  11.761  0.2057 -0.1654  0.7928
12970TIP3    H260326   6.219   3.699  11.874 -0.4853  0.7896 -0.1937
12971TIP3   OH260327   1.949   1.554   4.877 -0.1719  0.5923  0.6457
12971TIP3    H160328   1.870   1.609   4.871 -0.9657 -0.4764  0.9001
12971TIP3    H260329   1.919   1.467   4.850  0.2603 -0.4635  3.2953
12972TIP3   OH260330   3.039   2.737  12.593  0.1477 -0.1584  0.3059
12972TIP3    H160331   3.109   2.802  12.590  1.6292 -1.6516  0.8407
12972TIP3    H260332   3.008   2.739  12.683 -0.4326  0.4217  0.0983
12973TIP3   OH260333   6.544   1.236   3.604 -0.4166 -0.1251  0.1767
12973TIP3    H160334   6.532   1.210   3.695 -0.7697  2.1141  0.8448
12973TIP3    H260335   6.623   1.189   3.575  0.5954  0.2773  2.1463
12974TIP3   OH260336   0.431   0.458   2.273  0.1956  0.1989  0.2502
12974TIP3    H160337   0.425   0.363   2.261 -1.1898  0.3785 -0.7601
12974TIP3    H260338   0.374   0.476   2.349  1.8168  0.0636  1.5473
12975TIP3   OH260339   4.599   0.577   2.069  0.4310 -0.0131 -0.0298
12975TIP3    H160340   4.679   0.628   2.059 -0.3625  1.0605 -1.1425
12975TIP3    H260341   4.612   0.501   2.013  0.8597 -0.1047  0.1869
12976TIP3   OH260342   3.779   0.724   3.965 -0.2523 -0.0523  0.0260
12976TIP3    H160343   3.834   0.768   4.030  0.8120 -0.4754 -0.5542
12976TIP3    H260344   3.760   0.791   3.900 -0.1121  0.0015  0.0407
12977TIP3   OH260345   1.378   2.612  17.289  0.2559 -0.5268 -0.3945
12977TIP3    H160346   1.370   2.624  17.195 -0.3956  1.5076 -0.1338
12977TIP3    H260347   1.404   2.699  17.322 -0.2470 -1.0060  1.3662
12978TIP3   OH260348   1.193   0.310  16.366 -0.4967  0.3174  0.7873
12978TIP3    H160349   1.273   0.328  16.317 -0.7211  0.6166  0.5296
12978TIP3    H260350   1.168   0.395  16.402 -2.1638  0.8044 -1.3166
12979TIP3   OH260351   2.543   3.403  16.349  0.0818 -0.1344  0.4106
12979TIP3    H160352   2.630   3.417  16.311 -0.6828  2.2806 -0.6976
12979TIP3    H260353   2.528   3.309  16.341  1.6901 -0.2987 -1.4455
12980TIP3   OH260354   2.585   1.579  14.468 -0.6657 -0.0068 -0.6110
12980TIP3    H160355   2.620   1.611  14.551 -2.2579 -3.1797  1.5095
12980TIP3    H260356   2.662   1.545  14.421  0.0808  0.4790  0.2381
12981TIP3   OH260357   0.442   1.191  15.048 -1.4840  0.0080 -0.4299
12981TIP3    H160358   0.520   1.193  14.993 -0.8577  0.0044  0.4540
12981TIP3    H260359   0.423   1.098  15.060  0.0943 -0.0953  1.7356
12982TIP3   OH260360   2.694   5.321  13.311 -0.4732 -0.4022 -0.0962
12982TIP3    H160361   2.703   5.242  13.258 -0.2182  1.0056 -2.3089
12982TIP3    H260362   2.783   5.340  13.340 -0.1918  0.1004 -1.2235
12983TIP3   OH260363   2.446   4.980   2.106 -0.0334  0.2533 -0.4305
12983TIP3    H160364   2.469   4.916   2.173 -0.1609  0.8267  0.1775
12983TIP3    H260365   2.483   4.945   2.025 -1.3792 -1.3111 -0.4071
12984TIP3   OH260366   2.515   1.612  16.519  0.4442 -0.0734 -0.0744
12984TIP3    H160367   2.449   1.605  16.588 -0.1689 -1.3158 -0.7546
12984TIP3    H260368   2.466   1.640  16.442  0.9449  0.2879 -0.2675
12985TIP3   OH260369   2.510   0.617  15.323  0.3038 -0.4776  0.5066
12985TIP3    H160370   2.530   0.524  15.307 -0.7733 -0.6344 -0.0047
12985TIP3    H260371   2.498   0.623  15.418 -1.9891 -1.3896  0.3407
12986TIP3   OH260372   6.008   1.425  12.865  0.4148 -0.1632 -0.4211
12986TIP3    H160373   6.026   1.518  12.879  0.4736 -0.2564  0.1217
12986TIP3    H260374   6.007   1.415  12.769  0.6923  0.3385 -0.4769
12987TIP3   OH260375   1.155   5.244  14.721  0.2990  0.2854  0.4347
12987TIP3    H160376   1.071   5.268  14.683  0.2394 -1.5892 -0.7719
12987TIP3    H260377   1.198   5.327  14.741 -0.6905  1.3363 -1.5608
12988TIP3   OH260378   1.881   0.488  14.437 -0.9065 -0.9364  0.6101
12988TIP3    H160379   1.862   0.398  14.410  0.1781 -1.1783  0.6015
12988TIP3    H260380   1.824   0.503  14.512 -0.8574 -1.7489  0.8240
12989TIP3   OH260381   0.218   2.053   2.990 -0.1198 -0.3570  0.1374
12989TIP3    H160382   0.220   2.133   3.043 -0.8129  0.4578 -1.0337
12989TIP3    H260383   0.155   1.997   3.035 -1.4783  0.7299 -0.3598
12990TIP3   OH260384   1.645   2.995  15.095  0.0577 -0.1633 -0.0727
12990TIP3    H160385   1.589   2.947  15.034 -0.9759  0.9980 -0.0842
12990TIP3    H260386   1.672   3.073  15.046  1.1888 -0.3835  0.1630
12991TIP3   OH260387   0.935   5.301  16.837  0.2330  0.1456  0.4477
12991TIP3    H160388   0.974   5.216  16.821 -0.4063 -0.1839  0.6039
12991TIP3    H260389   0.874   5.287  16.910  0.0414  0.7087  0.4055
12992TIP3   OH260390   3.092   6.439  14.782  0.2237 -0.1499  0.3735
12992TIP3    H160391   3.134   6.353  14.786 -0.2391 -0.3359  1.6064
12992TIP3    H260392   3.045   6.439  14.698 -0.0804 -1.2534  0.5281
12993TIP3   OH260393   6.146   3.092   1.928  0.7309 -0.2034 -0.1267
12993TIP3    H160394   6.136   3.111   1.835 -5.1625 -0.4188  0.0782
12993TIP3    H260395   6.130   3.176   1.972 -0.2032 -0.7410  0.6112
12994TIP3   OH260396   1.672   3.660  16.779  0.4857 -0.0864 -0.1873
12994TIP3    H160397   1.691   3.575  16.740 -0.2574  0.9414 -3.0525
12994TIP3    H260398   1.614   3.703  16.716 -1.4498  1.5227  2.4580
12995TIP3   OH260399   0.538   4.014  14.321  0.0274  0.3402  0.0856
12995TIP3    H160400   0.619   4.025  14.370  0.3356  1.0611 -0.5836
12995TIP3    H260401   0.519   4.100  14.285  0.4618 -0.4081 -2.0903
12996TIP3   OH260402   4.450   5.705   1.275  0.0935 -0.3178  0.0020
12996TIP3    H160403   4.453   5.610   1.282  0.6397 -0.5309 -2.2971
12996TIP3    H260404   4.528   5.735   1.321  2.5873 -1.4034 -3.1035
12997TIP3   OH260405   4.422   4.481   5.233  0.1810 -0.0899  0.5291
12997TIP3    H160406   4.402   4.572   5.213 -1.3970 -0.3355  0.8478
12997TIP3    H260407   4.354   4.454   5.294  1.2441 -1.1829  1.2942
12998TIP3   OH260408   5.666   2.128  15.311 -0.2465 -0.3376  0.4236
12998TIP3    H160409   5.674   2.169  15.225 -1.3860  0.8118  0.8301
12998TIP3    H260410   5.702   2.040  15.300  0.5170  0.1254 -0.9674
12999TIP3   OH260411   5.740   1.793   1.029 -0.1654  0.1959 -0.2871
12999TIP3    H160412   5.794   1.760   1.101 -1.0800  0.9163  0.7667
12999TIP3    H260413   5.758   1.734   0.956 -0.0681 -1.2552  0.8668
13000TIP3   OH260414   1.407   0.866   4.623 -0.1832  0.7701  0.1384
13000TIP3    H160415   1.346   0.843   4.693 -0.2262  1.0849  0.2020
13000TIP3    H260416   1.412   0.961   4.625  0.0270  0.7652 -0.1082
13001TIP3   OH260417   3.785   5.095  12.416  0.1192  0.2861  0.1453
13001TIP3    H160418   3.878   5.111  12.430  0.7163 -1.4912 -1.4250
13001TIP3    H260419   3.777   5.081  12.322 -1.4835 -1.0541  0.4306
13002TIP3   OH260420   0.323   3.877   0.198  0.1813  0.4101 -0.3015
13002TIP3    H160421   0.263   3.803   0.213 -2.6081  2.3174 -1.1595
13002TIP3    H260422   0.381   3.846   0.128 -1.4948 -0.7029 -1.2794
13003TIP3   OH260423   4.033   1.433  14.089  0.5233 -0.4418 -0.0492
13003TIP3    H160424   4.075   1.433  14.003 -1.6942  1.1720 -1.2284
13003TIP3    H260425   4.032   1.525  14.116 -2.1145 -0.3873 -0.0848
13004TIP3   OH260426   1.694   5.766  13.051 -0.3445  0.0637  0.1691
13004TIP3    H160427   1.744   5.728  13.123  0.2148 -1.0418 -0.7706
13004TIP3    H260428   1.632   5.825  13.093 -1.3943 -2.0349  1.7506
13005TIP3   OH260429   3.930   3.956  15.058 -0.4668  0.3279 -0.0013
13005TIP3    H160430   3.947   3.866  15.088  1.8328  0.7841  0.2252
13005TIP3    H260431   3.845   3.978  15.097 -1.2322 -1.8065 -0.2761
13006TIP3   OH260432   5.044   1.781   5.105  0.1136  0.3550  0.6524
13006TIP3    H160433   5.108   1.834   5.057  0.0632  0.9515  1.2342
13006TIP3    H260434   4.959   1.813   5.075  0.0830  0.4666  0.8581
13007TIP3   OH260435   5.173   2.174   3.473 -0.5443 -0.1850 -0.1458
13007TIP3    H160436   5.252   2.197   3.521  0.0166  0.6947 -1.4409
13007TIP3    H260437   5.148   2.088   3.509  0.0608  0.2510  1.3984
13008TIP3   OH260438   2.312   2.119  12.442  0.3004  0.1485  0.3788
13008TIP3    H160439   2.404   2.099  12.456  0.1728 -1.6189 -1.0015
13008TIP3    H260440   2.296   2.097  12.351 -1.3751  0.9741  0.4281
13009TIP3   OH260441   6.360   0.775   4.491 -0.3213 -0.4386  0.4224
13009TIP3    H160442   6.307   0.757   4.414  0.7069  1.0603 -0.7117
13009TIP3    H260443   6.410   0.853   4.467  1.7568 -1.2873  1.7302
13010TIP3   OH260444   4.127   3.705  13.656 -0.3086  0.4532  0.6959
13010TIP3    H160445   4.199   3.764  13.637 -1.0002  1.0590 -0.1369
13010TIP3    H260446   4.164   3.617  13.646  0.6990  0.7276  1.8249
13011TIP3   OH260447   4.757   4.805   2.655  0.0737 -0.1919 -1.0962
13011TIP3    H160448   4.700   4.805   2.579 -0.2908 -1.7769 -0.8753
13011TIP3    H260449   4.709   4.753   2.720  0.8152  0.2867 -0.1485
13012TIP3   OH260450   6.616   4.978  14.693 -0.6710  0.3435  0.4959
13012TIP3    H160451   6.620   4.887  14.721 -2.2281  0.4563  1.1880
13012TIP3    H260452   6.568   5.023  14.762 -0.6604  1.5325 -0.2296
13013TIP3   OH260453   5.294   6.364  12.872 -0.2803 -0.0542 -0.8893
13013TIP3    H160454   5.337   6.410  12.943  0.0958 -0.5091 -0.8191
13013TIP3    H260455   5.222   6.317  12.914  1.1260 -1.9223 -0.4619
13014TIP3   OH260456   3.412   2.568  12.608 -0.6335  0.4598  0.4235
13014TIP3    H160457   3.389   2.658  12.584 -3.3608  0.6497  3.1588
13014TIP3    H260458   3.378   2.515  12.536 -1.3754  1.4893 -0.0165
13015TIP3   OH260459   0.054   2.248  12.879 -0.3064 -0.4684 -0.0441
13015TIP3    H160460   0.025   2.313  12.943 -0.1417  0.0863 -0.5214
13015TIP3    H260461  -0.010   2.254  12.809  0.0984 -0.3284 -0.4034
13016TIP3   OH260462   1.573   1.016   1.619 -0.1538 -0.6054 -0.4209
13016TIP3    H160463   1.590   1.024   1.525 -1.5797  0.6107 -0.6074
13016TIP3    H260464   1.620   1.089   1.658  2.1204 -2.2292  0.1213
13017TIP3   OH260465   2.367   1.724   3.734  0.0175 -0.1763 -0.3766
13017TIP3    H160466   2.372   1.771   3.650 -0.9004 -0.6685 -0.7233
13017TIP3    H260467   2.336   1.790   3.796  0.3661  0.1021 -0.4928
13018TIP3   OH260468   5.466   2.461   5.745  0.4254  0.4112  0.5262
13018TIP3    H160469   5.421   2.526   5.690 -0.5051 -0.5801  0.0627
13018TIP3    H260470   5.528   2.419   5.685 -1.1604 -1.2336 -0.0575
13019TIP3   OH260471   1.492   4.121   1.931 -0.1021 -0.0445 -0.0220
13019TIP3    H160472   1.557   4.191   1.923 -0.0163 -0.2156 -1.0041
13019TIP3    H260473   1.533   4.046   1.889 -1.0987 -0.0338 -1.0635
13020TIP3   OH260474   5.530   5.989   3.551  0.1499 -0.1192 -0.0441
13020TIP3    H160475   5.578   6.022   3.475 -0.2025  0.5665  0.0198
13020TIP3    H260476   5.438   5.996   3.526 -0.0534  1.5607  0.9839
13021TIP3   OH260477   4.735   0.229  14.011  0.1573  0.2562 -0.0340
13021TIP3    H160478   4.665   0.295  14.015 -1.0156 -0.8935 -0.8424
13021TIP3    H260479   4.729   0.194  13.922  0.6610 -1.0588  0.4371
13022TIP3   OH260480   2.055   6.450  11.134  0.0915  0.6786 -0.4717
13022TIP3    H160481   2.080   6.418  11.048 -1.2788  0.5032 -0.8193
13022TIP3    H260482   1.973   6.497  11.120  0.7490  2.1810  0.4448
13023TIP3   OH260483   6.212   1.827  13.988  0.2031 -0.5391 -0.9393
13023TIP3    H160484   6.253   1.898  14.036  0.8547 -0.8416 -1.0357
13023TIP3    H260485   6.163   1.778  14.054  0.0335 -0.1990 -0.8130
13024TIP3   OH260486   2.691   6.397  11.612 -0.2315 -0.3027 -0.0906
13024TIP3    H160487   2.704   6.367  11.523 -0.9417  0.9224 -0.6276
13024TIP3    H260488   2.640   6.478  11.604 -0.9606 -0.5566  1.4580
13025TIP3   OH260489   1.024   3.533  17.142  0.0645  0.0006  0.1139
13025TIP3    H160490   0.933   3.561  17.153  0.1492 -0.4293  2.4241
13025TIP3    H260491   1.062   3.599  17.085 -1.1850  1.3815  0.8019
13026TIP3   OH260492   2.691   4.482   2.679 -0.1330 -0.3480 -0.0323
13026TIP3    H160493   2.638   4.411   2.714  0.7800 -0.3769  1.3694
13026TIP3    H260494   2.778   4.470   2.719  0.6700  0.2643 -1.4970
13027TIP3   OH260495   2.182   3.109   1.691 -0.3070  1.1978  0.3329
13027TIP3    H160496   2.195   3.186   1.636 -0.0283  1.3376  0.5939
13027TIP3    H260497   2.141   3.045   1.633  0.3333  1.2103 -0.1426
13028TIP3   OH260498   0.964   1.312  14.800  0.0206 -0.2389 -0.0491
13028TIP3    H160499   0.985   1.290  14.709 -3.2503 -1.1009 -0.7551
13028TIP3    H260500   0.876   1.277  14.812 -0.7655  2.2899  2.6115
13029TIP3   OH260501   1.220   2.789  15.561  0.3876 -0.1063 -0.3448
13029TIP3    H160502   1.222   2.790  15.466 -0.7150  2.2641 -0.4136
13029TIP3    H260503   1.127   2.780  15.584  0.5944 -0.2656  0.4821
13030TIP3   OH260504   6.344   1.408  12.858  0.5050  0.6409  0.0606
13030TIP3    H160505   6.353   1.313  12.865 -1.0831  0.5966  3.4578
13030TIP3    H260506   6.252   1.422  12.838  0.7870  1.5072 -0.7163
13031TIP3   OH260507   4.478   1.120  12.144 -0.5135  0.2350  0.0966
13031TIP3    H160508   4.535   1.044  12.132 -1.5505 -1.0259  2.3925
13031TIP3    H260509   4.525   1.177  12.205 -1.1384 -0.2451  1.0614
13032TIP3   OH260510   4.828   2.763  13.830 -0.0186 -0.2362  0.3947
13032TIP3    H160511   4.840   2.680  13.784 -3.0095  0.1026 -1.2801
13032TIP3    H260512   4.803   2.738  13.919 -1.6604 -1.2419 -0.2932
13033TIP3   OH260513   5.867   1.943  13.620 -0.4651 -0.2930 -0.3109
13033TIP3    H160514   5.855   1.880  13.549 -1.0302  0.2209 -0.6835
13033TIP3    H260515   5.961   1.942  13.636 -0.4206 -0.9535 -0.5661
13034TIP3   OH260516   1.775   1.464   5.284  0.7573  0.2199 -0.1831
13034TIP3    H160517   1.864   1.437   5.308  1.0103  0.3204 -1.0029
13034TIP3    H260518   1.723   1.384   5.292  0.8645  0.2051  0.5081
13035TIP3   OH260519   0.368   5.732   5.119  0.0948 -0.1780 -0.3440
13035TIP3    H160520   0.309   5.755   5.190  1.6198 -0.8809  1.2040
13035TIP3    H260521   0.376   5.637   5.123  0.7134 -0.1698 -1.0226
13036TIP3   OH260522   0.794   2.612   4.540 -0.3775 -0.6883 -0.2733
13036TIP3    H160523   0.761   2.695   4.505  0.2416  0.0900  0.9225
13036TIP3    H260524   0.816   2.631   4.632  2.1837 -1.4737 -0.6384
13037TIP3   OH260525   4.864   4.537   1.227  0.0851  0.1349 -0.2985
13037TIP3    H160526   4.827   4.449   1.216  0.2322 -0.0174  0.3442
13037TIP3    H260527   4.885   4.566   1.139 -0.9273 -0.0570 -0.6173
13038TIP3   OH260528   6.731   3.740   3.114 -0.2695 -0.5486  0.1626
13038TIP3    H160529   6.694   3.743   3.202 -0.8244 -1.5456 -0.0302
13038TIP3    H260530   6.657   3.721   3.057  0.1516 -0.2706 -0.4927
13039TIP3   OH260531   3.723   0.625   1.690  0.1415  0.3016  0.0084
13039TIP3    H160532   3.643   0.618   1.742  1.3489 -2.0466  1.7276
13039TIP3    H260533   3.714   0.558   1.623  0.5290  0.2570 -0.0017
13040TIP3   OH260534   2.102   4.305   3.670 -0.2822  0.2469 -0.1645
13040TIP3    H160535   2.192   4.272   3.664 -0.3839  0.1340 -1.2501
13040TIP3    H260536   2.054   4.255   3.604 -1.0845  0.5145  0.2054
13041TIP3   OH260537   4.125   5.539   1.640  0.0598 -0.3023  0.2817
13041TIP3    H160538   4.093   5.621   1.677  1.4714  1.4032 -2.0385
13041TIP3    H260539   4.054   5.507   1.584  0.6212  1.0192 -1.2329
13042TIP3   OH260540   5.471   2.487  16.249  0.6629 -0.3620  0.0525
13042TIP3    H160541   5.480   2.393  16.236  1.4479 -0.1407 -1.1751
13042TIP3    H260542   5.493   2.525  16.164 -1.7204  0.8399 -0.1078
13043TIP3   OH260543   0.588   5.336   1.111  0.1165 -0.8447  0.5538
13043TIP3    H160544   0.596   5.317   1.018 -0.2410  0.4831  0.2204
13043TIP3    H260545   0.568   5.430   1.115  0.9036 -0.7030  2.0023
13044TIP3   OH260546   3.698   2.763  14.852 -0.2742  0.0814  0.2249
13044TIP3    H160547   3.626   2.824  14.840  1.1994  1.4179 -3.1815
13044TIP3    H260548   3.771   2.818  14.883 -0.3544 -1.0978  2.7954
13045TIP3   OH260549   4.067   3.703   4.192 -0.6991 -0.0997  0.6847
13045TIP3    H160550   4.123   3.753   4.251  0.0843 -0.7722  0.5266
13045TIP3    H260551   4.128   3.656   4.135 -1.3642  1.9371 -1.9307
13046TIP3   OH260552   4.277   5.640   3.460 -0.6913 -0.4621  0.3598
13046TIP3    H160553   4.352   5.695   3.437 -0.9217 -0.7318 -1.1046
13046TIP3    H260554   4.315   5.572   3.516  0.1201 -0.4596 -0.1666
13047TIP3   OH260555   4.882   4.617  13.579 -0.3478  0.1213  0.5158
13047TIP3    H160556   4.914   4.633  13.667  2.0621  0.3299 -0.3156
13047TIP3    H260557   4.894   4.701  13.534  0.8602 -0.6290 -0.6392
13048TIP3   OH260558   6.715   0.423   3.939 -0.1769 -0.0162  0.7241
13048TIP3    H160559   6.732   0.502   3.886 -1.7588  0.5582  1.0087
13048TIP3    H260560   6.761   0.353   3.892  1.2605  1.0519  0.4566
13049TIP3   OH260561   0.577   5.713   0.338  0.6662  1.0069 -0.2317
13049TIP3    H160562   0.514   5.734   0.270  0.3373  1.5549  0.2338
13049TIP3    H260563   0.578   5.790   0.395  0.8485  0.5169  0.4451
13050TIP3   OH260564   1.769   1.947  16.720  0.0861 -0.1359  0.4374
13050TIP3    H160565   1.822   1.900  16.656 -1.4293  1.7539 -2.4393
13050TIP3    H260566   1.831   2.003  16.766  0.8860  0.6984 -1.5521
13051TIP3   OH260567   3.288   1.619  15.108 -0.4776 -0.7718 -0.6806
13051TIP3    H160568   3.276   1.552  15.040 -1.4047 -1.0543 -0.2420
13051TIP3    H260569   3.320   1.696  15.059 -0.8056 -1.0746 -1.3932
13052TIP3   OH260570   6.354   3.376  15.817 -0.5550  0.2732 -0.1873
13052TIP3    H160571   6.342   3.454  15.763 -0.4028  1.1326  0.9707
13052TIP3    H260572   6.302   3.393  15.896  1.4609  0.3415  1.2082
13053TIP3   OH260573   2.901   2.810  15.538 -0.2313 -0.1200  0.1059
13053TIP3    H160574   2.852   2.728  15.536 -0.8619  0.2575 -1.0249
13053TIP3    H260575   2.834   2.878  15.537  0.2994  0.4044 -0.7531
13054TIP3   OH260576   3.080   0.057  16.865 -0.0000 -0.3606 -0.3546
13054TIP3    H160577   3.174   0.063  16.882 -0.1358  0.7597  0.1051
13054TIP3    H260578   3.072   0.068  16.770  0.2345  1.3205 -0.2153
13055TIP3   OH260579   5.897   2.553  11.291 -0.0562 -0.0577 -0.1860
13055TIP3    H160580   5.846   2.608  11.231  1.2861  0.2539 -1.0826
13055TIP3    H260581   5.979   2.537  11.245  0.3217 -1.2750  0.8599
13056TIP3   OH260582   4.392   4.884  15.607  0.0314 -0.2016  0.3713
13056TIP3    H160583   4.479   4.862  15.572 -0.1558 -0.5292  0.1130
13056TIP3    H260584   4.331   4.833  15.554 -0.1200 -2.7602  2.7579
13057TIP3   OH260585   1.452   4.573   0.707  0.0680 -0.0624  0.1500
13057TIP3    H160586   1.432   4.505   0.772 -1.0203  1.8907  2.0017
13057TIP3    H260587   1.508   4.634   0.755 -0.5893  1.3313 -0.8253
13058TIP3   OH260588   6.134   3.316   2.098 -0.0523 -0.0307 -0.5652
13058TIP3    H160589   6.158   3.398   2.141 -1.5705  0.5577 -0.8124
13058TIP3    H260590   6.039   3.309   2.109 -0.1167 -1.1380 -1.6230
13059TIP3   OH260591   4.257   1.700  14.622  0.0013 -0.3776 -0.9500
13059TIP3    H160592   4.298   1.784  14.641  0.1186 -0.5386 -0.4796
13059TIP3    H260593   4.306   1.666  14.548  0.2032 -0.2081 -0.8955
13060TIP3   OH260594   5.626   4.807  10.952  0.4062  0.0000 -0.0262
13060TIP3    H160595   5.623   4.807  10.856 -1.8695  0.4505 -0.0068
13060TIP3    H260596   5.643   4.715  10.975 -1.8347 -0.7010 -0.8779
13061TIP3   OH260597   5.529   1.386   4.372 -0.6793 -0.2140 -0.3567
13061TIP3    H160598   5.468   1.319   4.402  0.6996 -0.5168  2.0725
13061TIP3    H260599   5.490   1.468   4.403 -1.2152 -0.1188 -1.2704
13062TIP3   OH260600   3.016   6.694  12.251  0.1352 -0.0714  0.1296
13062TIP3    H160601   3.014   6.668  12.343 -0.5023 -0.5738 -0.0213
13062TIP3    H260602   2.959   6.770  12.246  1.8674  1.3019  0.5402
13063TIP3   OH260603   6.104   5.237   1.563  0.2378 -0.1826 -0.1893
13063TIP3    H160604   6.050   5.237   1.642 -0.5164  1.4107 -0.6559
13063TIP3    H260605   6.041   5.240   1.491  0.8919  1.7899 -0.7478
13064TIP3   OH260606   0.688   3.353  16.188  0.4015 -0.1824  0.8000
13064TIP3    H160607   0.701   3.271  16.235 -0.4986 -0.9422 -0.2184
13064TIP3    H260608   0.737   3.342  16.107  1.1078  0.7025  1.0979
13065TIP3   OH260609   6.608   4.901   1.780  0.5244  0.1054  0.0770
13065TIP3    H160610   6.521   4.936   1.796  0.7358  0.4730  0.4215
13065TIP3    H260611   6.612   4.888   1.685  1.1341  2.8826 -0.3450
13066TIP3   OH260612   4.994   1.268  15.864  0.5479 -0.6043 -0.7867
13066TIP3    H160613   5.055   1.333  15.829 -0.1941 -0.2206 -1.4191
13066TIP3    H260614   4.976   1.297  15.953 -0.5346  0.6738 -1.3708
13067TIP3   OH260615   5.022   3.336  12.296  0.7931  0.1701 -0.3059
13067TIP3    H160616   5.087   3.290  12.348  0.1515  1.5918  1.9290
13067TIP3    H260617   5.060   3.342  12.208  3.4000  0.4771  0.7680
13068TIP3   OH260618   2.829   0.967  12.943 -0.4447  0.4972  0.6413
13068TIP3    H160619   2.823   0.946  13.036 -1.8680  1.1662  0.7324
13068TIP3    H260620   2.851   1.060  12.941  1.2365  0.1239  0.2716
13069TIP3   OH260621   2.672   3.204  14.494 -0.1489  0.0233 -0.0564
13069TIP3    H160622   2.651   3.213  14.587 -1.0293 -2.3005  0.0209
13069TIP3    H260623   2.761   3.168  14.493  0.0214  0.4324 -0.1531
13070TIP3   OH260624   1.048   5.230  15.664 -0.0192  0.0631  0.2292
13070TIP3    H160625   0.977   5.203  15.723 -0.7139 -0.5732 -0.8533
13070TIP3    H260626   1.117   5.262  15.722 -0.8874 -0.0309  1.3534
13071TIP3   OH260627   0.390   2.547   0.315  0.7393 -0.5865 -0.2066
13071TIP3    H160628   0.414   2.619   0.374 -2.6704  0.1246  0.5581
13071TIP3    H260629   0.422   2.574   0.229  1.2063  0.9345  0.4140
13072TIP3   OH260630   1.206   4.426   2.618 -0.1307  0.4836  0.2992
13072TIP3    H160631   1.116   4.458   2.609 -0.3048  0.2479  1.1013
13072TIP3    H260632   1.233   4.406   2.528 -0.2141  2.3061 -0.1668
13073TIP3   OH260633   2.516   0.306   1.959  0.3145  0.0672 -0.0093
13073TIP3    H160634   2.432   0.262   1.975 -0.1409  0.5146 -1.0746
13073TIP3    H260635   2.495   0.375   1.896  1.6442 -0.3654 -0.9573
13074TIP3   OH260636   4.162   2.450  13.480  0.1931  0.2879 -0.1248
13074TIP3    H160637   4.129   2.532  13.444  1.2122  0.0441 -1.6911
13074TIP3    H260638   4.084   2.394  13.487 -0.3400  1.0238 -0.0387
13075TIP3   OH260639   0.837   5.837   3.875 -0.4355  0.1299  0.2538
13075TIP3    H160640   0.842   5.931   3.891 -0.2732  0.0037  0.9919
13075TIP3    H260641   0.753   5.811   3.911 -0.5221  0.0024 -0.0357
13076TIP3   OH260642   2.802   2.269   2.635  0.2280  0.0795 -0.3834
13076TIP3    H160643   2.754   2.280   2.553  0.6085  0.0727 -0.6093
13076TIP3    H260644   2.835   2.356   2.656  1.6360 -0.2237 -1.1799
13077TIP3   OH260645   5.697   1.927   5.315  0.3411  0.0455  0.5475
13077TIP3    H160646   5.750   1.871   5.372 -0.6593 -0.6594  0.8015
13077TIP3    H260647   5.754   1.947   5.241  0.6108 -1.6057  0.2695
13078TIP3   OH260648   1.055   3.883  14.172  0.3376 -0.4160 -0.1649
13078TIP3    H160649   1.012   3.800  14.190  1.2392 -0.8933 -0.1612
13078TIP3    H260650   0.990   3.950  14.196  0.4143 -1.0587  1.9987
13079TIP3   OH260651   4.334   3.375   0.196 -0.0199  0.4348  0.0716
13079TIP3    H160652   4.325   3.372   0.291 -0.4179 -0.1008  0.0186
13079TIP3    H260653   4.246   3.358   0.163  0.5515 -1.8838 -0.4214
13080TIP3   OH260654   4.928   0.111  13.440  0.5531 -0.3976  0.1399
13080TIP3    H160655   4.843   0.075  13.466  0.8536 -1.8301 -0.7200
13080TIP3    H260656   4.910   0.201  13.415 -0.6361 -0.5460  0.3958
13081TIP3   OH260657   5.382   0.605  13.159  0.1665 -0.2432  0.3925
13081TIP3    H160658   5.308   0.604  13.098 -0.7497  0.0417  1.4605
13081TIP3    H260659   5.343   0.585  13.244  1.0971  1.3064  1.2173
13082TIP3   OH260660   3.933   3.789   0.448  0.3045  0.2061 -0.0831
13082TIP3    H160661   3.989   3.723   0.407  0.2901 -0.7771  1.4143
13082TIP3    H260662   3.854   3.789   0.394  0.8425 -0.0158 -0.8949
13083TIP3   OH260663   0.944   2.261  14.734 -0.9942 -0.0515  0.4763
13083TIP3    H160664   0.980   2.180  14.768  0.6282  0.4228 -0.0074
13083TIP3    H260665   0.968   2.261  14.641 -0.8538  1.0124  0.4960
13084TIP3   OH260666   6.621   6.629  16.082 -0.1771 -0.7935 -0.1920
13084TIP3    H160667   6.597   6.549  16.037  1.2917 -1.0219 -0.6316
13084TIP3    H260668   6.701   6.658  16.038 -1.9773  2.3226 -1.7802
13085TIP3   OH260669   2.710   1.916  13.976  0.4813 -0.0274  0.1763
13085TIP3    H160670   2.740   1.825  13.969  0.4068  0.0549 -1.6060
13085TIP3    H260671   2.789   1.967  13.994  0.5219 -0.4176  1.1881
13086TIP3   OH260672   3.179   6.022  17.223 -0.0690 -0.3149 -0.0580
13086TIP3    H160673   3.158   5.952  17.285 -0.5958 -0.1148 -0.0099
13086TIP3    H260674   3.206   6.095  17.278 -1.1470  0.0715 -0.0280
13087TIP3   OH260675   2.196   6.498   1.078 -0.4801 -0.3433  0.1472
13087TIP3    H160676   2.121   6.467   1.028 -0.2766 -0.3203 -0.1741
13087TIP3    H260677   2.230   6.572   1.027 -0.2940 -0.2977  0.3356
13088TIP3   OH260678   5.002   1.448  14.915  0.1943  1.2467  0.0509
13088TIP3    H160679   4.979   1.503  14.989 -0.3987 -0.6076  1.3372
13088TIP3    H260680   5.097   1.437  14.921  0.3187  2.1242 -0.2357
13089TIP3   OH260681   2.317   4.699  13.808 -0.7121  0.1977  0.0931
13089TIP3    H160682   2.369   4.765  13.854  0.3572  0.3414 -1.2414
13089TIP3    H260683   2.340   4.616  13.851  0.0680  0.3590  0.0163
13090TIP3   OH260684   4.544   5.900  15.087  0.3109 -0.1976 -0.1469
13090TIP3    H160685   4.571   5.824  15.034  1.8110 -0.1813  0.5488
13090TIP3    H260686   4.616   5.962  15.078  0.3724  0.0122  1.4949
13091TIP3   OH260687   0.235   2.812  13.619 -0.1071  0.2897 -0.4794
13091TIP3    H160688   0.196   2.871  13.554 -0.3482  1.3351  0.5784
13091TIP3    H260689   0.296   2.867  13.668 -0.7148 -0.1892  0.8792
13092TIP3   OH260690   1.245   0.413  11.764  0.1342 -0.5984 -0.1533
13092TIP3    H160691   1.289   0.328  11.771  0.9030 -0.3252 -1.3562
13092TIP3    H260692   1.193   0.407  11.684  0.1537  0.0387 -0.2196
13093TIP3   OH260693   6.137   4.294   6.267  0.1411  0.2817 -0.0340
13093TIP3    H160694   6.205   4.227   6.270 -1.8705 -1.8693  1.0684
13093TIP3    H260695   6.057   4.245   6.247 -1.3287  2.4815  0.1234
13094TIP3   OH260696   6.488   1.943  12.035 -0.5030  0.3730 -0.0321
13094TIP3    H160697   6.512   1.996  12.111  0.1761 -0.3048  0.2424
13094TIP3    H260698   6.403   1.905  12.058 -1.0165  1.3580 -0.2503
13095TIP3   OH260699   1.449   3.231  12.486 -0.5099 -0.0461 -0.0955
13095TIP3    H160700   1.534   3.238  12.442  0.2864 -0.0120  1.3703
13095TIP3    H260701   1.388   3.278  12.429  0.7647  1.2916 -0.4190
13096TIP3   OH260702   1.459   0.655   0.859  0.4349 -0.0548 -0.4146
13096TIP3    H160703   1.502   0.740   0.850 -1.7847  0.9762 -2.6017
13096TIP3    H260704   1.459   0.638   0.953  1.5355  2.0500  0.0257
13097TIP3   OH260705   3.529   4.640  11.870 -0.4756 -0.9286 -0.1747
13097TIP3    H160706   3.469   4.569  11.894 -0.6636 -0.2284  1.6146
13097TIP3    H260707   3.472   4.711  11.841 -0.5862 -0.2277  1.6187
13098TIP3   OH260708   0.297   4.974  10.991  0.6811  0.1203  0.1806
13098TIP3    H160709   0.271   5.065  11.009 -0.7598  0.0897 -1.3942
13098TIP3    H260710   0.383   4.964  11.032  0.7529  2.1225  0.6062
13099TIP3   OH260711   5.493   5.172   3.347  0.5025 -0.3261 -0.1503
13099TIP3    H160712   5.586   5.187   3.364  0.6511 -0.8946 -0.4446
13099TIP3    H260713   5.451   5.257   3.366  0.7281 -0.7225  2.4443
13100TIP3   OH260714   2.734   5.459  11.686 -0.3485  0.1195 -0.1938
13100TIP3    H160715   2.685   5.406  11.749  0.2021  0.8368  0.8632
13100TIP3    H260716   2.806   5.403  11.658 -0.4258 -0.0982  0.0387
13101TIP3   OH260717   5.832   4.040  15.803  0.4628  0.3256 -0.2788
13101TIP3    H160718   5.853   4.066  15.892 -3.7009 -1.5409  1.5304
13101TIP3    H260719   5.855   3.947  15.798 -1.3084 -0.1639 -0.2737
13102TIP3   OH260720   2.411   4.467  14.576 -0.1109 -0.3645  0.2036
13102TIP3    H160721   2.342   4.532  14.562 -2.3988 -2.5342  0.6327
13102TIP3    H260722   2.412   4.415  14.496  0.1151 -1.1702  0.7228
13103TIP3   OH260723   4.395   4.785  11.996  0.0066  0.0892  0.2240
13103TIP3    H160724   4.346   4.716  11.950 -0.0058  0.6843 -0.6890
13103TIP3    H260725   4.484   4.752  12.002 -0.3210 -0.6466  1.1457
13104TIP3   OH260726   0.761   2.416  12.147  0.1898  0.0401 -0.5134
13104TIP3    H160727   0.800   2.484  12.203 -0.0340  0.3499 -0.7278
13104TIP3    H260728   0.800   2.430  12.061  0.4550 -0.3696 -0.4602
13105TIP3   OH260729   3.689   3.162   5.602 -0.3830  0.2496 -0.6668
13105TIP3    H160730   3.736   3.219   5.663 -0.0558  1.7683 -2.2658
13105TIP3    H260731   3.666   3.086   5.654 -0.4794  1.6505  1.4664
13106TIP3   OH260732   3.545   0.005  16.426  0.2503 -0.5092 -0.4410
13106TIP3    H160733   3.595  -0.075  16.410 -0.0764 -0.8994  0.4189
13106TIP3    H260734   3.610   0.069  16.454  0.6251 -0.2248 -1.8691
13107TIP3   OH260735   0.983   3.269  16.250 -0.5946  0.2339 -0.5833
13107TIP3    H160736   0.932   3.203  16.297 -0.7388 -0.1895 -1.3171
13107TIP3    H260737   0.928   3.347  16.251 -1.0663 -0.0844 -0.9597
13108TIP3   OH260738   5.344   5.112  15.413  0.2234  0.6140 -0.2687
13108TIP3    H160739   5.295   5.055  15.472 -0.2588 -0.4218 -1.6109
13108TIP3    H260740   5.402   5.162  15.470  1.8798 -2.3869  0.8954
13109TIP3   OH260741   4.708   2.233  13.771  0.3241 -0.1426  0.3439
13109TIP3    H160742   4.708   2.317  13.817  0.0385  0.6519 -1.0601
13109TIP3    H260743   4.625   2.233  13.723 -0.3213 -1.8481  1.3811
13110TIP3   OH260744   3.694   6.260   3.933 -0.0508  0.3846  0.0024
13110TIP3    H160745   3.748   6.299   3.864  0.9778 -0.5860  0.2246
13110TIP3    H260746   3.725   6.300   4.014 -0.3205  0.5155  0.0431
13111TIP3   OH260747   4.141   2.539  15.469  0.2163 -0.1181  0.4555
13111TIP3    H160748   4.048   2.561  15.469  0.0216 -0.9274  0.3119
13111TIP3    H260749   4.165   2.535  15.376 -0.0170 -1.5694  0.4367
13112TIP3   OH260750   5.441   4.068   5.183  0.3206 -0.5392  0.0198
13112TIP3    H160751   5.469   4.093   5.271 -0.0515  0.4478 -0.1243
13112TIP3    H260752   5.444   3.973   5.182 -1.5461 -0.6648  1.7355
13113TIP3   OH260753   3.064   1.096  14.364 -0.4009 -0.3486 -0.3532
13113TIP3    H160754   3.137   1.143  14.324 -0.2856 -1.7584 -1.9082
13113TIP3    H260755   3.009   1.165  14.402  0.8174  0.8683 -0.7139
13114TIP3   OH260756   3.557   4.111   2.010  0.1150 -0.1519  0.1564
13114TIP3    H160757   3.613   4.064   2.073  2.2288  0.1789 -1.3582
13114TIP3    H260758   3.551   4.052   1.935 -1.1565  0.0686  0.0603
13115TIP3   OH260759   5.766   4.439   4.840 -0.2385  0.1884  0.1411
13115TIP3    H160760   5.696   4.446   4.905 -0.3518  0.1276  0.0264
13115TIP3    H260761   5.759   4.519   4.788 -0.9700 -0.3501 -0.6099
13116TIP3   OH260762   1.011   1.546  12.189  0.1055 -0.0541  0.1492
13116TIP3    H160763   1.001   1.574  12.280  1.8321  0.8737  0.1035
13116TIP3    H260764   0.960   1.609  12.138  1.2418  1.0355  0.3103
13117TIP3   OH260765   3.942   4.948  13.925  0.3414  0.6728  0.5151
13117TIP3    H160766   3.938   4.888  13.850  0.0107  2.7850 -1.2584
13117TIP3    H260767   3.864   4.928  13.976  1.5338 -2.1175  1.4594
13118TIP3   OH260768   4.052   4.655   6.516 -0.1691 -0.3164 -0.1322
13118TIP3    H160769   4.033   4.624   6.427  0.4908  0.2048 -0.4645
13118TIP3    H260770   3.970   4.694   6.545  0.0789  1.0822 -1.1990
13119TIP3   OH260771   3.578   3.794   6.722  0.1046 -0.0633 -0.6352
13119TIP3    H160772   3.530   3.856   6.777 -0.3932 -1.2090  0.2643
13119TIP3    H260773   3.662   3.837   6.706 -0.4298  1.0764 -0.5042
13120TIP3   OH260774   3.977   6.276  12.907 -0.1891  0.0135 -0.0226
13120TIP3    H160775   4.029   6.356  12.898  0.7971 -0.4901  0.9264
13120TIP3    H260776   4.035   6.215  12.952 -1.1724 -1.0081 -0.0960
13121TIP3   OH260777   3.602   6.081   4.879 -0.0104  0.3646 -0.9250
13121TIP3    H160778   3.614   6.100   4.786 -1.2519 -0.4631 -1.2916
13121TIP3    H260779   3.550   6.000   4.880  0.8294 -0.1966  0.5027
13122TIP3   OH260780   1.372   2.045  16.852 -0.0915 -0.3873  0.4822
13122TIP3    H160781   1.350   2.138  16.857  0.2964 -0.2360 -0.4016
13122TIP3    H260782   1.305   2.002  16.905  0.3409  0.4661  1.7809
13123TIP3   OH260783   0.352   2.399   1.587  0.1448 -0.1985  0.3031
13123TIP3    H160784   0.339   2.456   1.511 -1.4037 -1.2579 -0.2825
13123TIP3    H260785   0.438   2.423   1.621  0.9211  0.2613 -1.8368
13124TIP3   OH260786   3.333   0.646  12.547 -0.1724 -0.6933  0.5525
13124TIP3    H160787   3.344   0.570  12.604 -2.9245 -1.9544 -0.4223
13124TIP3    H260788   3.287   0.710  12.601 -0.1530 -0.7411  0.6264
13125TIP3   OH260789   1.587   0.923   0.932 -0.1056 -0.3951  0.4335
13125TIP3    H160790   1.674   0.887   0.947  0.3096  0.1755 -0.5837
13125TIP3    H260791   1.545   0.919   1.018  0.2757 -2.3547  0.5858
13126TIP3   OH260792   1.220   3.091   4.258  0.4624  0.1451 -0.4138
13126TIP3    H160793   1.145   3.149   4.245  1.1368  1.1308 -0.0385
13126TIP3    H260794   1.274   3.105   4.180  0.5327 -0.1310 -0.4148
13127TIP3   OH260795   5.937   5.249   1.350  0.5462  0.0729 -0.0964
13127TIP3    H160796   5.996   5.196   1.295  0.1971 -0.4097 -0.0083
13127TIP3    H260797   5.911   5.322   1.294  0.0308 -0.5267 -0.6478
13128TIP3   OH260798   3.153   3.984   3.360  0.2638 -0.0520  0.2813
13128TIP3    H160799   3.123   3.894   3.351 -2.0361  0.6699  0.0791
13128TIP3    H260800   3.194   4.005   3.276  0.5942 -0.8106  0.2443
13129TIP3   OH260801   0.336   4.736  12.881  0.2879  0.1371 -0.5944
13129TIP3    H160802   0.279   4.741  12.804  0.4127  0.1153 -0.6888
13129TIP3    H260803   0.335   4.825  12.917  0.2027  0.1392 -0.6020
13130TIP3   OH260804   3.180   0.021  15.697  0.9945 -0.4872  0.5142
13130TIP3    H160805   3.203  -0.042  15.629  1.9983 -0.0683  0.4514
13130TIP3    H260806   3.086   0.037  15.685  1.4524  0.8790 -1.9103
13131TIP3   OH260807   0.635   2.388   1.699  0.1097  0.0089 -0.2127
13131TIP3    H160808   0.668   2.475   1.675  1.8213 -0.9742 -1.7187
13131TIP3    H260809   0.709   2.330   1.682 -0.9785 -1.7482  0.8127
13132TIP3   OH260810   1.355   1.375   2.693  0.7534 -0.1112 -0.1187
13132TIP3    H160811   1.449   1.363   2.706  1.0567 -0.0564 -1.9145
13132TIP3    H260812   1.347   1.397   2.600 -0.8644  1.7022  0.3826
13133TIP3   OH260813   1.078   6.372  11.658  0.1146 -0.7035 -0.0927
13133TIP3    H160814   1.048   6.338  11.743  0.4865  0.1477  0.3918
13133TIP3    H260815   1.000   6.413  11.620  0.1554 -0.3132  0.2356
13134TIP3   OH260816   3.129   6.736  12.829 -0.2419  0.3898 -0.1343
13134TIP3    H160817   3.110   6.829  12.835 -1.1433  0.2226 -0.3327
13134TIP3    H260818   3.044   6.693  12.833  0.1803 -0.4419  0.1844
13135TIP3   OH260819   1.561   4.868  11.957 -0.1266  0.4218 -1.0999
13135TIP3    H160820   1.553   4.802  11.888  1.5301 -0.0379 -0.8833
13135TIP3    H260821   1.580   4.818  12.036 -0.8241  1.0376 -0.5211
13136TIP3   OH260822   0.787   0.601  14.055  0.4773 -0.0927 -0.6147
13136TIP3    H160823   0.750   0.563  14.135  1.6395 -2.1183 -0.9587
13136TIP3    H260824   0.713   0.647  14.015 -0.9111 -1.4750  0.1989
13137TIP3   OH260825   2.803   1.622   2.100  0.2985 -0.2574 -0.5320
13137TIP3    H160826   2.731   1.569   2.134 -0.1508  0.5199 -0.2447
13137TIP3    H260827   2.807   1.697   2.159  2.4821 -1.1083  0.5409
13138TIP3   OH260828   0.203   0.575  14.888 -0.1245 -0.2607 -0.6678
13138TIP3    H160829   0.284   0.616  14.917 -0.7131  0.6379 -0.2727
13138TIP3    H260830   0.164   0.637  14.827 -1.5174  0.2791  0.6998
13139TIP3   OH260831   6.740   1.824  11.974  0.2946 -0.1787 -0.5421
13139TIP3    H160832   6.678   1.777  11.918 -0.6801  1.0969 -0.5850
13139TIP3    H260833   6.709   1.915  11.973  1.4022  0.2390  0.5074
13140TIP3   OH260834   4.550   1.768   2.807  0.0314 -0.0328  0.4025
13140TIP3    H160835   4.580   1.700   2.747  2.4839 -0.2545  1.7297
13140TIP3    H260836   4.489   1.724   2.865 -0.2241 -0.5021 -0.2079
13141TIP3   OH260837   4.746   5.810  15.644  0.0564  0.1331  0.2246
13141TIP3    H160838   4.836   5.843  15.647 -0.3345  1.3059 -0.3112
13141TIP3    H260839   4.721   5.798  15.735  0.4479  0.6941  0.4099
13142TIP3   OH260840   6.189   6.612  14.518 -0.3448  0.0979  0.8877
13142TIP3    H160841   6.265   6.621  14.575 -2.1849  4.2887  3.1722
13142TIP3    H260842   6.120   6.580  14.576 -1.1193 -0.4554 -0.3105
13143TIP3   OH260843   3.258   3.393  11.033  0.2937 -0.1014  0.0513
13143TIP3    H160844   3.219   3.458  10.974 -1.3993 -0.0747  1.1141
13143TIP3    H260845   3.243   3.309  10.988 -0.5937 -0.0442  0.2103
13144TIP3   OH260846   3.470   6.447   2.815  0.0961  0.1862 -0.2128
13144TIP3    H160847   3.453   6.502   2.891  0.0974 -1.2478  0.8763
13144TIP3    H260848   3.402   6.379   2.820  1.5074 -1.2680 -0.1374
13145TIP3   OH260849   4.172   6.191  13.413 -0.0685 -0.0657 -0.2581
13145TIP3    H160850   4.212   6.241  13.341 -1.1296  1.7887  0.3581
13145TIP3    H260851   4.174   6.100  13.383 -0.2252  0.6161 -2.5210
13146TIP3   OH260852   3.145   2.368  14.184  0.1749 -0.4849 -0.1650
13146TIP3    H160853   3.148   2.272  14.179  0.9377 -0.5158  0.6156
13146TIP3    H260854   3.171   2.397  14.097 -1.7595 -0.9657 -0.9717
13147TIP3   OH260855   5.759   0.490   3.203  0.0391  0.4938  0.1154
13147TIP3    H160856   5.707   0.557   3.247  0.0727  0.0465  0.8477
13147TIP3    H260857   5.843   0.490   3.249 -0.0198 -0.1680  0.2404
13148TIP3   OH260858   1.172   2.870   4.690  0.5677 -0.2700  0.0636
13148TIP3    H160859   1.103   2.914   4.740  0.0882 -2.0888  1.0772
13148TIP3    H260860   1.151   2.889   4.598  0.7312  2.0644  0.4487
13149TIP3   OH260861   3.620   2.535  10.974  0.5162 -0.4763  0.1542
13149TIP3    H160862   3.677   2.458  10.978  0.2737 -0.7632 -1.3590
13149TIP3    H260863   3.673   2.606  11.011  1.4564 -0.9697 -0.2131
13150TIP3   OH260864   4.253   2.053  15.510 -0.4408 -0.5120 -0.3423
13150TIP3    H160865   4.324   1.998  15.543 -0.9229 -0.6182  0.5466
13150TIP3    H260866   4.205   2.080  15.588 -0.7921  0.3773 -0.8498
13151TIP3   OH260867   6.757   0.542   0.922  0.3506  0.2247 -0.7084
13151TIP3    H160868   6.835   0.493   0.895  0.9228 -0.3333  1.6944
13151TIP3    H260869   6.784   0.634   0.916  0.1540  0.2091 -2.6713
13152TIP3   OH260870   2.721   3.960  13.243 -0.0169  0.8985  0.2390
13152TIP3    H160871   2.643   3.996  13.201 -0.6945 -0.0250  0.6811
13152TIP3    H260872   2.794   4.009  13.204 -0.7319  1.0955 -0.8942
13153TIP3   OH260873   0.187   4.595  15.257  0.0943  0.2674 -0.0027
13153TIP3    H160874   0.205   4.501  15.247  0.6368  0.3797 -0.1446
13153TIP3    H260875   0.170   4.606  15.351  0.0605  0.0335  0.0203
13154TIP3   OH260876   6.730   0.903  10.647  0.5256 -0.5349  0.2839
13154TIP3    H160877   6.734   0.808  10.648  0.5460 -0.6479 -2.3973
13154TIP3    H260878   6.700   0.925  10.558  1.1523  1.9696  0.6060
13155TIP3   OH260879   6.365   0.565   0.061 -0.2407 -0.2545 -0.1194
13155TIP3    H160880   6.448   0.536   0.024  0.3849  0.3648  0.7551
13155TIP3    H260881   6.388   0.639   0.117 -1.8907  2.6042 -2.9165
13156TIP3   OH260882   4.590   0.859  11.861 -0.0108 -0.4264 -0.2318
13156TIP3    H160883   4.615   0.935  11.913 -0.7347 -0.2472 -0.1380
13156TIP3    H260884   4.550   0.799  11.923 -0.5043 -0.3869 -0.5061
13157TIP3   OH260885   5.041   3.659   2.896 -0.1051 -0.0647 -0.2732
13157TIP3    H160886   5.124   3.622   2.865  0.5830 -0.2836  1.6782
13157TIP3    H260887   5.057   3.753   2.900 -0.5442  0.0758 -1.5135
13158TIP3   OH260888   3.813   2.745  14.426 -0.4187  0.0333 -0.8027
13158TIP3    H160889   3.838   2.784  14.510 -2.3700 -1.4474  0.5657
13158TIP3    H260890   3.748   2.805  14.390 -0.0748  0.3184 -0.9677
13159TIP3   OH260891   3.206   3.561  13.723 -0.0116 -0.0145 -0.1866
13159TIP3    H160892   3.220   3.564  13.818 -2.4812 -0.9509  0.2815
13159TIP3    H260893   3.195   3.653  13.698 -0.8530  0.1584  0.7245
13160TIP3   OH260894   5.528   0.567   4.452 -0.1937 -0.2642 -0.3563
13160TIP3    H160895   5.475   0.608   4.384 -1.5232 -0.8914  0.2574
13160TIP3    H260896   5.529   0.474   4.429  0.3964 -0.3081 -0.1888
13161TIP3   OH260897   5.998   4.553   4.690 -0.2143  0.2090 -0.0699
13161TIP3    H160898   6.054   4.477   4.703  0.6390  0.8824  0.2499
13161TIP3    H260899   6.026   4.590   4.607  0.0800  0.7731  0.2794
13162TIP3   OH260900   3.874   0.328  15.315 -0.4934 -0.6864 -0.0620
13162TIP3    H160901   3.849   0.279  15.237 -0.1430  0.0862 -0.6739
13162TIP3    H260902   3.801   0.389  15.329 -0.3411 -0.5019 -0.0696
13163TIP3   OH260903   2.523   4.169  16.330 -0.1081  0.2572 -0.3034
13163TIP3    H160904   2.600   4.133  16.374 -0.5358 -1.5895 -0.9745
13163TIP3    H260905   2.541   4.263  16.323  0.8726  0.3030  1.9397
13164TIP3   OH260906   5.058   0.166  14.501  0.2684  0.3847 -0.7258
13164TIP3    H160907   4.982   0.117  14.471  0.5199  0.6679 -1.8752
13164TIP3    H260908   5.039   0.257  14.477  0.3756  0.6597  0.2124
13165TIP3   OH260909   4.648   4.723  12.063 -0.1335 -0.3174 -0.5593
13165TIP3    H160910   4.717   4.657  12.064 -0.6294 -0.8957 -1.9283
13165TIP3    H260911   4.662   4.771  11.981 -0.0858  0.9736  0.1641
13166TIP3   OH260912   0.054   4.694   1.294  0.4079 -0.0199 -0.2821
13166TIP3    H160913   0.103   4.680   1.375 -2.2742 -1.3657  1.2912
13166TIP3    H260914   0.088   4.628   1.233  1.9163  0.4713 -0.0041
13167TIP3   OH260915   4.802   4.472   1.696 -0.1490  0.2074  0.3690
13167TIP3    H160916   4.723   4.418   1.705  0.3511 -0.4388  1.0434
13167TIP3    H260917   4.836   4.479   1.786  0.5783  0.4629  0.0807
13168TIP3   OH260918   3.175   4.480   3.992  0.3511  0.3377 -0.0492
13168TIP3    H160919   3.156   4.410   4.054  0.6834 -1.0483 -1.4488
13168TIP3    H260920   3.111   4.548   4.012 -0.6697 -0.8030  0.6642
13169TIP3   OH260921   4.683   2.849   1.151  0.7710  0.2200  0.1403
13169TIP3    H160922   4.759   2.907   1.142 -0.0794  1.3331 -0.1044
13169TIP3    H260923   4.608   2.905   1.133 -0.1318 -0.8147  0.5736
13170TIP3   OH260924   3.477   0.066   2.326  0.2421  0.1950 -0.1071
13170TIP3    H160925   3.433   0.135   2.375  0.2104  0.4448 -0.4914
13170TIP3    H260926   3.444   0.074   2.237 -0.1353 -0.6322 -0.0516
13171TIP3   OH260927   4.744   4.192  11.821 -0.0378  0.1300  0.0667
13171TIP3    H160928   4.717   4.103  11.844 -0.7163  0.2366 -0.3224
13171TIP3    H260929   4.673   4.226  11.767  0.6231  0.6006 -0.5216
13172TIP3   OH260930   2.008   6.511   2.359  0.1553 -0.0838  0.7394
13172TIP3    H160931   2.066   6.451   2.406  0.8295  0.2952  0.4189
13172TIP3    H260932   1.943   6.455   2.317  1.8855 -0.8146 -1.1438
13173TIP3   OH260933   4.324   0.874  11.111 -0.5229  0.4840 -0.2762
13173TIP3    H160934   4.408   0.829  11.116  0.5059  2.4088  3.1395
13173TIP3    H260935   4.263   0.818  11.159 -0.6973  0.0777 -0.9593
13174TIP3   OH260936   3.631   5.949   3.418 -0.2657 -0.0499  0.2443
13174TIP3    H160937   3.714   5.992   3.438 -0.3270  0.8164 -1.2600
13174TIP3    H260938   3.655   5.874   3.364 -0.2438 -1.4711  2.1267
13175TIP3   OH260939   1.569   5.327   4.878 -0.0669 -0.5054 -0.1661
13175TIP3    H160940   1.565   5.235   4.853 -2.4253 -0.0136 -2.0447
13175TIP3    H260941   1.603   5.372   4.800  0.9838  0.2511  0.6928
13176TIP3   OH260942   0.355   0.576   2.005  0.1395 -0.4684  0.0002
13176TIP3    H160943   0.406   0.645   2.049  0.8345 -1.5390  0.9063
13176TIP3    H260944   0.273   0.574   2.054  1.0906 -1.9891  1.6688
13177TIP3   OH260945   6.423   4.550  13.119 -0.0338  0.4636 -0.2012
13177TIP3    H160946   6.450   4.593  13.038 -0.8275  0.5159 -0.4453
13177TIP3    H260947   6.446   4.458  13.105  2.4806  0.9019  0.6766
13178TIP3   OH260948   0.468   4.712   5.868 -0.0815  0.7039  0.3499
13178TIP3    H160949   0.407   4.783   5.887  1.4068  1.2538  3.8483
13178TIP3    H260950   0.547   4.757   5.837 -0.0458  0.3543 -0.0612
13179TIP3   OH260951   1.928   0.255   6.598  0.1335  0.2774 -0.1476
13179TIP3    H160952   1.919   0.344   6.631 -1.5492 -0.2280  0.9284
13179TIP3    H260953   1.846   0.239   6.552 -0.1035 -1.1000  0.7071
13180TIP3   OH260954   2.883   6.373   3.276 -0.3829 -0.1543  0.2807
13180TIP3    H160955   2.804   6.363   3.223  0.7029 -0.3279 -1.3784
13180TIP3    H260956   2.891   6.289   3.321 -1.0153 -0.2233  0.2797
13181TIP3   OH260957   4.369   3.083  12.106  0.1277  0.2331  0.3682
13181TIP3    H160958   4.308   3.152  12.079  1.6202  0.6700 -2.3036
13181TIP3    H260959   4.431   3.126  12.164 -0.1182  0.6362  0.3323
13182TIP3   OH260960   5.242   0.656   5.051 -0.6396  0.6960 -0.1357
13182TIP3    H160961   5.245   0.721   5.121 -0.8669  0.0058  0.5280
13182TIP3    H260962   5.177   0.592   5.081  0.6904 -0.6566 -0.0342
13183TIP3   OH260963   6.755   1.693   3.129  0.2750  0.2455 -0.3188
13183TIP3    H160964   6.751   1.788   3.118 -0.5204  0.1982 -0.5580
13183TIP3    H260965   6.732   1.678   3.221 -0.4488  0.2436 -0.4955
13184TIP3   OH260966   4.857   1.730  15.119 -0.1860  0.6561 -0.8615
13184TIP3    H160967   4.788   1.673  15.086  0.5843 -1.1485  0.4940
13184TIP3    H260968   4.826   1.758  15.205  0.5223  0.2829 -0.4799
13185TIP3   OH260969   0.840   1.623  14.756 -0.0115 -0.3174  0.3463
13185TIP3    H160970   0.786   1.590  14.828 -0.1832  1.8943  1.3112
13185TIP3    H260971   0.929   1.601  14.781 -0.0717  0.4536  1.2517
13186TIP3   OH260972   1.669   6.232  14.618 -0.4583 -0.0842 -0.5812
13186TIP3    H160973   1.701   6.290  14.549 -2.4853  0.7375 -0.9083
13186TIP3    H260974   1.602   6.178  14.575 -1.1335 -0.1742  0.5303
13187TIP3   OH260975   1.049   2.761   3.774  0.0842 -0.0766  0.2900
13187TIP3    H160976   1.035   2.681   3.824  1.8857 -1.5113 -1.3467
13187TIP3    H260977   1.129   2.799   3.811  0.2158  0.0110 -0.0792
13188TIP3   OH260978   0.185   4.059   0.728  0.4909 -0.4715 -0.1142
13188TIP3    H160979   0.274   4.093   0.719  0.6121 -1.0865 -1.4472
13188TIP3    H260980   0.184   3.980   0.674 -1.4518  0.6670 -1.9128
13189TIP3   OH260981   5.810   5.369  11.726  0.6884  0.4574  0.1851
13189TIP3    H160982   5.830   5.407  11.640 -2.5423  2.1060  0.0196
13189TIP3    H260983   5.768   5.286  11.706  0.6874  0.4568  0.1905
13190TIP3   OH260984   2.274   6.062   2.788  0.3948 -0.2097 -0.4314
13190TIP3    H160985   2.225   6.131   2.833 -0.3741  0.2673 -1.9295
13190TIP3    H260986   2.217   5.985   2.794  1.7424 -1.1273  2.2368
13191TIP3   OH260987   5.735   2.775  17.088 -0.0823 -0.2386 -0.1925
13191TIP3    H160988   5.689   2.730  17.160  1.3112 -0.2126  0.7574
13191TIP3    H260989   5.665   2.809  17.033 -1.2017 -0.5221  0.9886
13192TIP3   OH260990   2.230   0.983  13.654 -0.0822  0.6071 -0.1739
13192TIP3    H160991   2.201   1.069  13.684  0.1281  0.4062  0.6398
13192TIP3    H260992   2.293   0.954  13.720 -0.4041 -0.3152 -0.2462
13193TIP3   OH260993   1.081   0.863   5.871  0.0099 -0.7536  0.0549
13193TIP3    H160994   1.021   0.886   5.941  1.3668 -0.2128  1.0814
13193TIP3    H260995   1.065   0.770   5.855 -0.3820 -0.8587  1.0146
13194TIP3   OH260996   0.196   6.035  11.202  0.0391 -0.1870 -0.0784
13194TIP3    H160997   0.287   6.012  11.183  0.1840  0.2680  0.0519
13194TIP3    H260998   0.144   5.980  11.144  0.4077 -0.2513 -0.3461
13195TIP3   OH260999   4.048   3.962   1.855  0.0362 -0.2262 -0.1440
13195TIP3    H161000   4.133   3.952   1.813  1.0210 -1.7197  1.9836
13195TIP3    H261001   4.001   4.026   1.802  2.4734  0.6190 -1.3930
13196TIP3   OH261002   2.766   2.219   2.316 -0.3956 -0.5354 -0.3433
13196TIP3    H161003   2.810   2.201   2.233  0.3031 -0.1528 -0.0676
13196TIP3    H261004   2.777   2.313   2.329 -1.2380 -0.4495 -0.2239
13197TIP3   OH261005   6.733   0.211  11.917 -0.4357 -0.2771  0.5624
13197TIP3    H161006   6.720   0.172  11.830  1.3420 -0.8423  0.4962
13197TIP3    H261007   6.646   0.211  11.957 -1.3919  0.5211 -1.4154
13198TIP3   OH261008   2.370   5.796  13.418  0.3019  0.5958 -0.4892
13198TIP3    H161009   2.412   5.727  13.366 -0.0504  1.3041 -1.7575
13198TIP3    H261010   2.436   5.820  13.484  0.2040 -1.3453  0.3914
13199TIP3   OH261011   4.070   6.534   1.921 -0.2040  0.1265  0.1219
13199TIP3    H161012   4.057   6.629   1.915  2.2707  0.5332  0.4773
13199TIP3    H261013   3.992   6.497   1.878 -0.7024  2.3084 -0.9954
13200TIP3   OH261014   0.552   6.720  12.392  0.6898  0.2097  0.5951
13200TIP3    H161015   0.589   6.676  12.468  0.6810 -0.0397  0.4548
13200TIP3    H261016   0.520   6.804  12.426  0.0691 -0.1859  0.9989
13201TIP3   OH261017   1.426   1.180  16.571  0.1199 -0.5468 -0.0891
13201TIP3    H161018   1.405   1.136  16.654  0.9717 -0.4077  0.2114
13201TIP3    H261019   1.418   1.111  16.505  0.0819 -0.8220  0.2008
13202TIP3   OH261020   6.562   5.631   3.104 -0.6398  0.0195 -0.4456
13202TIP3    H161021   6.644   5.655   3.061  0.3228 -2.4391 -0.1721
13202TIP3    H261022   6.502   5.610   3.033 -0.1537 -0.7298 -0.6424
13203TIP3   OH261023   6.699   1.653   4.877  0.5824 -0.2890  0.0073
13203TIP3    H161024   6.773   1.694   4.922 -0.3796  0.5886  0.8189
13203TIP3    H261025   6.691   1.567   4.917  1.2749 -0.4797 -0.2331
13204TIP3   OH261026   6.415   3.985   2.503 -0.0615  0.1860 -0.1632
13204TIP3    H161027   6.395   4.048   2.573 -1.0667 -0.1079 -0.1686
13204TIP3    H261028   6.436   3.904   2.550 -1.4526 -0.2108 -0.2039
13205TIP3   OH261029   2.136   5.567  11.597  0.7464  0.0600 -0.5408
13205TIP3    H161030   2.096   5.642  11.555 -0.6999 -0.0786  0.5307
13205TIP3    H261031   2.063   5.510  11.620  1.4539  0.0406  1.9561
13206TIP3   OH261032   1.557   1.052  16.889 -0.3494  0.2216 -0.0087
13206TIP3    H161033   1.566   0.958  16.906 -0.1239  0.2142 -0.1531
13206TIP3    H261034   1.488   1.081  16.948 -0.9481 -0.1807 -0.4960
13207TIP3   OH261035   2.250   2.534   0.294 -0.6952  0.9362  0.5394
13207TIP3    H161036   2.243   2.516   0.388  3.9375  0.8707  1.1376
13207TIP3    H261037   2.254   2.447   0.254  1.1316  0.8328  0.8557
13208TIP3   OH261038   6.176   3.261   1.107  0.3358 -0.3112  0.2014
13208TIP3    H161039   6.110   3.318   1.146  0.0741 -1.2563  1.1838
13208TIP3    H261040   6.259   3.309   1.117  0.2639 -0.4851  1.8802
13209TIP3   OH261041   6.277   6.109   0.939 -0.0556  0.1292 -0.5764
13209TIP3    H161042   6.334   6.044   0.897 -0.5022  0.0054 -1.0032
13209TIP3    H261043   6.303   6.108   1.031  1.8512  1.3232 -1.0287
13210TIP3   OH261044   6.054   3.712  15.862  0.6587  0.0685  0.1012
13210TIP3    H161045   6.033   3.766  15.786 -0.7007 -2.8234 -1.7978
13210TIP3    H261046   5.973   3.707  15.912  0.6251 -0.4985  0.0080
13211TIP3   OH261047   0.792   1.256   4.697 -0.3672  0.0196 -0.7909
13211TIP3    H161048   0.864   1.235   4.756 -0.5298 -1.1035 -0.9845
13211TIP3    H261049   0.835   1.293   4.619 -0.1538  1.5424 -0.0027
13212TIP3   OH261050   6.605   0.914   3.161  0.9269 -0.6175  0.4324
13212TIP3    H161051   6.603   0.880   3.071  0.6495  1.3249 -0.3536
13212TIP3    H261052   6.693   0.951   3.170  0.2487  1.1552  0.1404
13213TIP3   OH261053   2.384   4.047  15.432  0.6755 -0.2441  0.0542
13213TIP3    H161054   2.445   4.022  15.362 -1.0011 -1.4633 -1.0567
13213TIP3    H261055   2.362   3.965  15.475 -1.1340 -0.0533 -0.4184
13214TIP3   OH261056   1.450   4.359   0.913 -0.3752  0.3142 -0.4143
13214TIP3    H161057   1.363   4.333   0.942  0.0394 -0.3895  0.2424
13214TIP3    H261058   1.499   4.277   0.906  0.9366  0.8414  1.5971
13215TIP3   OH261059   6.496   0.687  15.412 -0.0667 -0.2093  0.2914
13215TIP3    H161060   6.421   0.635  15.441 -0.9196 -1.1749 -3.1367
13215TIP3    H261061   6.461   0.774  15.396 -0.4481 -0.5492 -0.8861
13216TIP3   OH261062   2.784   1.124  16.684 -0.9831  0.7283  0.0067
13216TIP3    H161063   2.809   1.216  16.681 -0.0058  0.6000  2.1831
13216TIP3    H261064   2.828   1.090  16.762  2.1340 -2.5921 -2.8423
13217TIP3   OH261065   3.748   1.915   1.762 -0.5159 -0.2687  0.6918
13217TIP3    H161066   3.780   2.005   1.762 -0.2232 -0.3740  0.7477
13217TIP3    H261067   3.657   1.922   1.732 -0.5796  0.0762  0.9685
13218TIP3   OH261068   2.281   1.097  15.306  0.1611 -0.4553 -0.7536
13218TIP3    H161069   2.222   1.043  15.359 -0.2596 -1.3405 -2.0500
13218TIP3    H261070   2.338   1.141  15.369 -0.2999 -1.4785  0.4129
13219TIP3   OH261071   1.801   6.448  13.656  0.1415 -1.0728 -0.1248
13219TIP3    H161072   1.720   6.396  13.658 -1.6146  1.4739  0.3528
13219TIP3    H261073   1.779   6.528  13.704  0.5038  2.9930 -5.7123
13220TIP3   OH261074   3.835   5.760   2.982  0.1412  0.2335 -0.1233
13220TIP3    H161075   3.842   5.669   2.954 -0.3277  0.0945  0.1954
13220TIP3    H261076   3.925   5.792   2.982  0.4962 -0.6673  1.1810
13221TIP3   OH261077   4.877   6.162  15.402 -0.3198  0.7085 -0.7092
13221TIP3    H161078   4.789   6.138  15.432  0.1371  0.0296  0.1262
13221TIP3    H261079   4.862   6.234  15.340 -1.5012  0.1858 -1.0594
13222TIP3   OH261080   1.797   1.871   1.944  0.0366  0.0730  0.1217
13222TIP3    H161081   1.833   1.887   1.856  0.2606 -0.9955  0.0081
13222TIP3    H261082   1.705   1.849   1.929  0.4547 -1.7158 -0.0185
13223TIP3   OH261083   2.641   4.362   3.567 -0.4163  0.2175 -0.4651
13223TIP3    H161084   2.674   4.304   3.498  1.1811  0.6886 -0.1268
13223TIP3    H261085   2.606   4.438   3.520  1.8736  1.1531 -0.7637
13224TIP3   OH261086   4.653   4.346  14.824  0.3099 -0.1571  0.0662
13224TIP3    H161087   4.700   4.263  14.829  0.0264 -0.2452  1.5039
13224TIP3    H261088   4.696   4.393  14.752  2.3055 -0.4105  1.0194
13225TIP3   OH261089   1.038   1.999   4.477  0.8270 -0.0490  0.7595
13225TIP3    H161090   1.065   1.973   4.389 -0.8285  0.6148  0.0218
13225TIP3    H261091   1.117   1.986   4.530  2.2496  0.6461 -1.0316
13226TIP3   OH261092   6.466   3.741   1.361  0.3071 -0.4405 -0.0043
13226TIP3    H161093   6.532   3.783   1.307  0.3964 -1.4603 -0.7060
13226TIP3    H261094   6.388   3.795   1.350  0.4717 -0.3429 -0.7389
13227TIP3   OH261095   4.205   3.607   3.368  0.8734 -0.0657  0.1708
13227TIP3    H161096   4.121   3.581   3.331  0.7180 -0.2736  0.6565
13227TIP3    H261097   4.228   3.687   3.322  0.9306 -0.5869 -0.7322
13228TIP3   OH261098   0.240   1.145   4.089  0.3253  0.2668 -0.3255
13228TIP3    H161099   0.230   1.232   4.049 -1.6659  0.3347  0.1959
13228TIP3    H261100   0.186   1.088   4.035 -2.3434  0.3390  2.0205
13229TIP3   OH261101   2.791   2.476   5.395 -0.4982  0.4981  0.1141
13229TIP3    H161102   2.792   2.393   5.348  2.4879  0.4557  0.0491
13229TIP3    H261103   2.700   2.506   5.390 -1.1556 -1.5677 -1.9250
13230TIP3   OH261104   1.056   3.508   5.324 -0.3898  0.5187 -0.0021
13230TIP3    H161105   1.101   3.504   5.240 -0.5350 -0.4936 -0.0417
13230TIP3    H261106   1.036   3.601   5.336  0.1081  0.7432 -0.8264
13231TIP3   OH261107   0.119   1.432  11.789  0.0961  0.5333 -0.0582
13231TIP3    H161108   0.051   1.391  11.735  0.5924 -0.4327  0.0392
13231TIP3    H261109   0.078   1.513  11.821 -1.6142 -0.7685  1.2951
13232TIP3   OH261110   3.792   1.993   4.088 -0.3992 -0.9384 -0.2757
13232TIP3    H161111   3.746   1.976   4.170  1.5530  0.1342  1.1143
13232TIP3    H261112   3.847   1.916   4.074 -0.0801 -0.7427 -0.1047
13233TIP3   OH261113   1.751   3.343   0.684  0.0542 -0.3132 -1.0251
13233TIP3    H161114   1.704   3.423   0.657  0.1089  0.1816  0.2638
13233TIP3    H261115   1.743   3.343   0.779 -1.1465 -2.5995 -1.0609
13234TIP3   OH261116   1.650   6.134   1.176 -0.1377 -0.5911 -0.0126
13234TIP3    H161117   1.621   6.058   1.226 -1.2838 -0.4647 -0.4599
13234TIP3    H261118   1.719   6.100   1.119  0.3030 -0.9994  0.7447
13235TIP3   OH261119   0.758   1.114  16.101  0.0338 -0.0636  0.2498
13235TIP3    H161120   0.706   1.110  16.181 -1.2709 -3.2979 -0.6203
13235TIP3    H261121   0.827   1.049  16.113  0.1223 -0.2400 -1.0184
13236TIP3   OH261122   5.762   6.234   4.437 -0.6107 -1.0768 -0.6093
13236TIP3    H161123   5.691   6.188   4.391 -1.6596 -1.4305  1.2800
13236TIP3    H261124   5.719   6.309   4.478  0.2166 -0.9681  0.0823
13237TIP3   OH261125   0.801   5.333  13.294  0.3699 -0.4304 -0.0861
13237TIP3    H161126   0.757   5.340  13.378  0.3351 -1.7951  0.0243
13237TIP3    H261127   0.825   5.424  13.272 -1.6593  0.2411  0.2648
13238TIP3   OH261128   0.798   5.644  13.853 -0.0948 -0.2082  0.0617
13238TIP3    H161129   0.709   5.673  13.872 -0.6007 -0.1186 -2.2275
13238TIP3    H261130   0.787   5.554  13.821  0.4639  0.2212 -1.4120
13239TIP3   OH261131   3.080   3.702   4.168  0.1878  0.9654  0.4504
13239TIP3    H161132   3.158   3.665   4.126  0.3070  0.9597  0.6769
13239TIP3    H261133   3.092   3.683   4.261  0.3304  1.7089  0.5889
13240TIP3   OH261134   1.702   1.554  11.567  0.4855 -0.6442  0.2149
13240TIP3    H161135   1.717   1.459  11.567  0.2342 -0.7299 -2.0414
13240TIP3    H261136   1.626   1.566  11.623  0.1507 -1.8627  0.0532
13241TIP3   OH261137   6.746   0.971  16.819  0.0589  0.1743  0.0070
13241TIP3    H161138   6.729   1.019  16.900  1.4919 -1.0468  1.0830
13241TIP3    H261139   6.826   1.011  16.784  1.5742 -1.6529  1.1902
13242TIP3   OH261140   6.397   4.059   0.411  0.1574  0.0950 -0.4370
13242TIP3    H161141   6.433   4.146   0.395 -1.7765  1.0143 -0.1523
13242TIP3    H261142   6.422   4.008   0.334  1.4923  0.8281 -0.5145
13243TIP3   OH261143   0.228   5.546  12.464  0.4530  0.5009 -0.0013
13243TIP3    H161144   0.296   5.497  12.511  0.2268  0.9764  0.8500
13243TIP3    H261145   0.147   5.521  12.507  0.1964  0.6697 -0.3834
13244TIP3   OH261146   5.307   5.703   1.566 -0.0398  0.0964 -0.2703
13244TIP3    H161147   5.229   5.748   1.599  1.3296  1.8529  0.7107
13244TIP3    H261148   5.341   5.656   1.643  0.0320 -0.4418 -0.6260
13245TIP3   OH261149   4.037   6.075  14.910  0.2305 -0.8476 -0.0610
13245TIP3    H161150   3.964   6.119  14.954 -1.0430 -1.9104 -1.0171
13245TIP3    H261151   4.094   6.046  14.981 -0.3323 -0.1043  0.7117
13246TIP3   OH261152   2.310   2.752  12.296  0.4359  0.4006 -0.0923
13246TIP3    H161153   2.327   2.780  12.386  0.5841 -0.0740  0.0271
13246TIP3    H261154   2.396   2.736  12.259  0.3728  0.5696 -0.3127
13247TIP3   OH261155   3.618   0.682  13.323  0.4336  0.2091 -0.2528
13247TIP3    H161156   3.580   0.762  13.358 -1.3706 -1.2161  1.2604
13247TIP3    H261157   3.596   0.684  13.229 -1.3454  0.5846  0.1410
13248TIP3   OH261158   5.651   2.921  12.540  0.2195 -0.0124  0.2710
13248TIP3    H161159   5.616   2.842  12.499 -0.3424  0.1663  0.3918
13248TIP3    H261160   5.613   2.921  12.628  0.3483  0.3062  0.3274
13249TIP3   OH261161   1.220   2.371   2.017  0.7788  0.2862  0.2731
13249TIP3    H161162   1.164   2.419   2.078 -1.0486 -1.0840 -0.2356
13249TIP3    H261163   1.225   2.283   2.052  3.0392  0.4323  0.5147
13250TIP3   OH261164   5.958   1.702   4.373  0.3957 -0.0316  0.5868
13250TIP3    H161165   6.031   1.762   4.390 -0.3978  0.6285  1.7676
13250TIP3    H261166   5.917   1.737   4.294 -0.6665  1.6415  1.8125
13251TIP3   OH261167   0.828   5.848  15.084 -0.7466 -0.4824 -0.1331
13251TIP3    H161168   0.806   5.843  14.991 -1.2940 -0.7029  0.0005
13251TIP3    H261169   0.854   5.939  15.098 -1.0663 -0.3444 -0.4202
13252TIP3   OH261170   3.065   5.691  11.203 -0.1435 -0.2042  0.1765
13252TIP3    H161171   3.079   5.689  11.298  0.8365  0.1567  0.0523
13252TIP3    H261172   3.114   5.615  11.171  0.1434  0.1014 -0.1111
13253TIP3   OH261173   0.416   4.416   2.335  0.3957 -0.0112 -0.2275
13253TIP3    H161174   0.355   4.352   2.372  1.7445 -0.0425  2.1500
13253TIP3    H261175   0.378   4.439   2.251 -2.7547 -0.2356  0.9896
13254TIP3   OH261176   3.541   4.798   2.871 -0.2366 -0.1067 -0.4060
13254TIP3    H161177   3.545   4.893   2.882  0.9571 -0.1626 -0.2770
13254TIP3    H261178   3.477   4.784   2.801  0.8956  0.9056 -1.6919
13255TIP3   OH261179   3.365   0.656  10.972 -0.5969  0.6485 -0.0081
13255TIP3    H161180   3.280   0.696  10.991 -0.1237  0.9155  1.6614
13255TIP3    H261181   3.381   0.596  11.045 -0.2241 -0.8968 -1.3002
13256TIP3   OH261182   6.536   4.675  14.475  0.7641 -0.7804  0.1847
13256TIP3    H161183   6.566   4.741  14.412  0.1481 -1.7009 -1.1238
13256TIP3    H261184   6.492   4.725  14.544 -0.2505  0.1561 -1.0989
13257TIP3   OH261185   4.172   4.665  15.199  0.0744 -0.1437 -0.0310
13257TIP3    H161186   4.199   4.643  15.110 -2.7053 -1.2458 -0.7197
13257TIP3    H261187   4.082   4.696  15.189  0.4531  1.8966  2.1872
13258TIP3   OH261188   4.885   2.435   5.665 -0.1148  0.4891  0.2556
13258TIP3    H161189   4.967   2.388   5.678 -0.1516  0.2204 -0.4376
13258TIP3    H261190   4.886   2.505   5.730  0.7211  0.5713  0.1565
13259TIP3   OH261191   1.230   1.302  13.634  0.1215 -0.0266 -0.0522
13259TIP3    H161192   1.221   1.314  13.540 -0.2581  0.5305  0.0463
13259TIP3    H261193   1.186   1.219  13.652  0.6484 -0.3933 -0.4310
13260TIP3   OH261194   1.865   3.963   3.806 -0.3324 -0.2605  0.3813
13260TIP3    H161195   1.812   3.953   3.885  0.0111 -2.1292  0.4147
13260TIP3    H261196   1.913   3.881   3.798  0.2191  0.1778 -1.3607
13261TIP3   OH261197   4.367   1.503  13.029 -0.3541 -0.2072 -0.6915
13261TIP3    H161198   4.299   1.459  12.978 -0.3205  0.7954 -1.6180
13261TIP3    H261199   4.402   1.570  12.971 -0.9796  1.6367  0.9697
13262TIP3   OH261200   0.059   1.551  16.461 -0.6074  0.5675 -0.1380
13262TIP3    H161201  -0.027   1.510  16.465 -0.7902  0.8378 -0.9222
13262TIP3    H261202   0.116   1.486  16.419 -0.5072  0.5104  0.0846
13263TIP3   OH261203   5.152   0.239  11.171  0.6826  0.2638 -0.0625
13263TIP3    H161204   5.095   0.314  11.156 -0.0715 -0.5895 -1.6511
13263TIP3    H261205   5.223   0.248  11.108  2.3528  1.2652  1.8283
13264TIP3   OH261206   0.025   4.227  12.283 -0.1553  0.2950  0.0359
13264TIP3    H161207   0.009   4.240  12.377 -2.0122 -0.1562 -0.1687
13264TIP3    H261208   0.002   4.311  12.243 -1.1713 -0.0674 -0.1739
13265TIP3   OH261209   4.103   0.921  15.706 -0.3779  0.3324 -0.3753
13265TIP3    H161210   4.103   1.016  15.697 -0.0428  0.2756 -1.0667
13265TIP3    H261211   4.157   0.891  15.633 -0.3416 -0.3772 -0.0583
13266TIP3   OH261212   6.613   3.878  15.483  0.3701 -0.5094 -0.5129
13266TIP3    H161213   6.623   3.865  15.389  0.7424 -0.6473 -0.4555
13266TIP3    H261214   6.642   3.796  15.522  0.4174 -0.3775 -0.2680
13267TIP3   OH261215   4.520   6.442  11.298 -0.1797 -0.3636  0.2283
13267TIP3    H161216   4.513   6.472  11.207  0.8381 -0.1328  0.2131
13267TIP3    H261217   4.437   6.467  11.338  0.3067  1.8197  0.0148
13268TIP3   OH261218   5.131   4.821  14.349 -0.1168 -0.5537 -0.4231
13268TIP3    H161219   5.208   4.763  14.353  1.1049  0.9557 -0.9236
13268TIP3    H261220   5.121   4.853  14.439 -0.1992 -0.8058 -0.3426
13269TIP3   OH261221   4.587   2.278  10.686 -0.5457  0.8121 -0.1392
13269TIP3    H161222   4.515   2.313  10.738 -1.1891 -1.0645  0.2920
13269TIP3    H261223   4.634   2.356  10.656 -1.1699  2.0027  1.7782
13270TIP3   OH261224   3.204   0.071   5.993  0.2630 -0.4379 -0.7795
13270TIP3    H161225   3.241   0.051   5.907 -1.5188 -0.1982 -1.6495
13270TIP3    H261226   3.126   0.123   5.974 -1.7454 -2.6482  0.7996
13271TIP3   OH261227   0.135   0.703  13.601  0.1038  0.2713 -0.1288
13271TIP3    H161228   0.137   0.755  13.681  1.0381 -2.6689  1.9137
13271TIP3    H261229   0.144   0.612  13.630  1.8474 -0.8937 -3.6431
13272TIP3   OH261230   3.916   5.337   1.666 -0.7031  0.3103  0.4937
13272TIP3    H161231   3.832   5.374   1.640 -1.6574 -0.2286  2.6455
13272TIP3    H261232   3.893   5.261   1.719  1.1785 -0.4686  0.2611
13273TIP3   OH261233   3.249   5.749   5.513  0.1437  0.2605  0.2020
13273TIP3    H161234   3.309   5.683   5.480  1.0887 -0.0869  2.4183
13273TIP3    H261235   3.175   5.699   5.549 -0.1993  0.5438 -0.1002
13274TIP3   OH261236   2.655   1.497   2.275 -0.0255  0.2099  0.0552
13274TIP3    H161237   2.598   1.421   2.284 -0.5483  0.5370 -0.4228
13274TIP3    H261238   2.621   1.561   2.336 -0.5297  0.6147 -0.6403
13275TIP3   OH261239   2.894   4.142  16.688 -0.3291 -0.4067 -0.0356
13275TIP3    H161240   2.844   4.121  16.767 -1.9260 -0.0815 -0.9119
13275TIP3    H261241   2.837   4.114  16.616  0.8818 -0.2528 -1.0862
13276TIP3   OH261242   2.269   5.086  16.770 -0.6456  0.0411  0.1397
13276TIP3    H161243   2.239   5.008  16.817 -0.9654 -0.6153 -1.0989
13276TIP3    H261244   2.302   5.052  16.687  0.5212  1.0997  0.1376
13277TIP3   OH261245   1.708   0.709  15.011 -0.0655  0.1605 -0.1152
13277TIP3    H161246   1.663   0.661  14.942 -1.1080  0.8033  0.0957
13277TIP3    H261247   1.744   0.786  14.967 -2.3151  1.5443  0.3460
13278TIP3   OH261248   0.948   4.147   4.654  0.1622 -0.3532 -0.3707
13278TIP3    H161249   0.874   4.165   4.713 -1.8621  0.5600 -3.0161
13278TIP3    H261250   0.962   4.228   4.607  2.0206 -0.9292 -0.9185
13279TIP3   OH261251   6.329   6.704   3.913 -0.7890  0.2900 -0.5163
13279TIP3    H161252   6.419   6.673   3.923 -1.2491 -0.5655  1.3373
13279TIP3    H261253   6.276   6.624   3.908 -1.4899  0.7875 -1.3321
13280TIP3   OH261254   6.564   1.865  10.619 -0.3356  0.2395 -0.6272
13280TIP3    H161255   6.474   1.835  10.609 -0.2942 -0.2657  0.3749
13280TIP3    H261256   6.617   1.786  10.616  0.0481  0.4947 -0.7967
13281TIP3   OH261257   2.960   1.384  16.856 -0.0157 -0.4076  0.5138
13281TIP3    H161258   3.027   1.373  16.789 -1.6012 -0.4531 -1.1470
13281TIP3    H261259   2.919   1.468  16.835 -0.7507 -0.5794  1.2316
13282TIP3   OH261260   4.897   3.178  14.300  0.3699  0.0941  0.4342
13282TIP3    H161261   4.946   3.097  14.313  0.4172  0.3959  2.5502
13282TIP3    H261262   4.836   3.181  14.373 -1.2655  0.8434 -0.9088
13283TIP3   OH261263   2.538   1.423   4.143  0.7582  0.1606  0.9702
13283TIP3    H161264   2.514   1.508   4.180 -0.8111  0.8686 -1.4293
13283TIP3    H261265   2.598   1.445   4.071  0.0083 -0.7130  0.0602
13284TIP3   OH261266   5.943   3.587  14.390  0.4344 -0.1554  0.0802
13284TIP3    H161267   5.854   3.612  14.366  0.6591  0.2007 -0.4092
13284TIP3    H261268   5.933   3.514  14.450 -0.1669 -0.7488 -0.7271
13285TIP3   OH261269   6.303   0.625  14.077  0.1364 -0.0659  0.3334
13285TIP3    H161270   6.314   0.677  14.157 -1.5326  1.3801 -0.3113
13285TIP3    H261271   6.337   0.539  14.100  0.7922  0.6414  2.2229
13286TIP3   OH261272   3.577   6.123   6.029 -0.4478  0.4409 -0.4599
13286TIP3    H161273   3.595   6.187   5.960 -0.3100 -0.8137 -1.6235
13286TIP3    H261274   3.623   6.157   6.106  2.4400  0.0932 -1.9038
13287TIP3   OH261275   5.058   5.673   3.446 -0.2174 -0.0428  0.5198
13287TIP3    H161276   5.120   5.674   3.519  1.0378 -1.6332 -0.4518
13287TIP3    H261277   5.084   5.748   3.392 -0.0726  0.1457  0.8486
13288TIP3   OH261278   4.087   4.759   2.121 -0.1813 -0.2995 -0.6085
13288TIP3    H161279   4.076   4.664   2.126  0.7313 -0.3693  0.2392
13288TIP3    H261280   4.159   4.771   2.059  1.1875 -0.2858  0.9260
13289TIP3   OH261281   0.120   6.588  15.970 -0.3807  0.4626  0.2373
13289TIP3    H161282   0.195   6.548  16.015 -2.0211 -2.7253  0.4336
13289TIP3    H261283   0.104   6.530  15.895 -1.6368  2.0313 -0.7605
13290TIP3   OH261284   0.081   2.942   5.514  0.4643 -0.3440 -0.9065
13290TIP3    H161285   0.159   2.894   5.488  0.8541  0.5584 -1.4308
13290TIP3    H261286   0.054   2.989   5.436  0.1713  0.3978 -0.3731
13291TIP3   OH261287   3.473   3.774  16.850 -0.5237 -0.3120 -0.4261
13291TIP3    H161288   3.431   3.694  16.884 -1.8356  0.5914  0.1647
13291TIP3    H261289   3.517   3.812  16.926  1.0991 -1.0421 -0.9602
13292TIP3   OH261290   2.874   6.594   0.520  0.0039  0.5370  0.3461
13292TIP3    H161291   2.828   6.672   0.489 -0.1274  0.3293  0.0128
13292TIP3    H261292   2.965   6.607   0.491 -0.7434 -1.3289 -3.5345
13293TIP3   OH261293   6.523   0.007  13.522  0.0325  0.5267 -0.6288
13293TIP3    H161294   6.599   0.024  13.466  0.1829  2.1271  0.0040
13293TIP3    H261295   6.497  -0.083  13.502  0.7025  0.7220 -2.5133
13294TIP3   OH261296   1.006   2.524  13.059 -0.3233  0.6643  0.1257
13294TIP3    H161297   1.084   2.511  13.114 -0.2972 -0.4055 -0.1481
13294TIP3    H261298   1.017   2.612  13.023 -0.1768  1.2604  1.5591
13295TIP3   OH261299   2.302   4.890  11.426 -0.5277 -0.7762  0.4353
13295TIP3    H161300   2.250   4.825  11.379 -0.3455 -1.3343  0.9880
13295TIP3    H261301   2.239   4.935  11.483 -1.3531  1.9321 -2.3518
13296TIP3   OH261302   6.631   0.108  11.644  0.1922  0.0674  0.2451
13296TIP3    H161303   6.702   0.122  11.581  0.8918 -0.5758  0.8638
13296TIP3    H261304   6.560   0.163  11.613 -0.0018 -1.2673 -1.9330
13297TIP3   OH261305   1.505   3.666  15.632  0.0422 -0.1811  0.2074
13297TIP3    H161306   1.415   3.691  15.611  0.6805  1.5220 -0.7650
13297TIP3    H261307   1.522   3.703  15.718  0.3223  1.0238 -0.3439
13298TIP3   OH261308   3.967   3.711   2.375  0.5552 -0.2310 -0.0149
13298TIP3    H161309   3.908   3.669   2.437 -1.3539  0.8652 -1.0136
13298TIP3    H261310   4.007   3.638   2.328 -2.2574 -1.0735 -1.3300
13299TIP3   OH261311   6.208   3.627  13.669  0.5450 -0.0785 -0.6524
13299TIP3    H161312   6.177   3.537  13.676  0.4293 -0.0704 -1.0331
13299TIP3    H261313   6.218   3.642  13.575 -1.3829  0.9599 -0.7371
13300TIP3   OH261314   5.447   2.585  15.990 -0.2115 -0.1282  0.2826
13300TIP3    H161315   5.525   2.632  15.961 -0.5169  0.4772  0.4318
13300TIP3    H261316   5.386   2.591  15.917  0.2359 -1.4791 -0.2410
13301TIP3   OH261317   5.072   0.836   3.577 -0.2522 -0.6866 -0.2518
13301TIP3    H161318   5.127   0.883   3.640  0.1610 -0.8480 -0.4894
13301TIP3    H261319   5.042   0.904   3.517  0.5985 -0.7652 -0.7783
13302TIP3   OH261320   1.057   0.685   4.263 -0.0242 -0.0148 -0.9141
13302TIP3    H161321   1.137   0.737   4.274 -1.0999  1.3815  1.1270
13302TIP3    H261322   0.988   0.739   4.302 -1.6730 -1.9246 -1.0060
13303TIP3   OH261323   5.489   1.487  16.765  0.0911  0.0945 -0.1379
13303TIP3    H161324   5.529   1.550  16.705 -0.0708  0.7141  0.3949
13303TIP3    H261325   5.416   1.534  16.805  0.2288 -0.2863  0.5861
13304TIP3   OH261326   3.333   4.684  13.175  0.5974 -0.0796 -0.0034
13304TIP3    H161327   3.374   4.654  13.094 -0.0715 -0.6284 -0.1467
13304TIP3    H261328   3.347   4.779  13.175 -0.3408  0.0778 -1.3038
13305TIP3   OH261329   0.342   4.263   1.642  0.3227 -0.2702  0.3038
13305TIP3    H161330   0.413   4.202   1.663  0.7194  1.0338  3.3571
13305TIP3    H261331   0.265   4.225   1.686  0.0217  0.2352  0.2176
13306TIP3   OH261332   2.147   4.030   4.874 -0.8211  0.5858  0.3465
13306TIP3    H161333   2.108   3.950   4.839  0.9610 -0.0150 -0.3568
13306TIP3    H261334   2.140   4.094   4.802  0.1385  0.2478 -0.0617
13307TIP3   OH261335   3.400   3.948   4.415 -0.1768  0.2102 -0.4077
13307TIP3    H161336   3.423   3.862   4.448 -0.1184 -0.1772 -1.4152
13307TIP3    H261337   3.423   4.009   4.485 -0.8372 -0.6453  0.5805
13308TIP3   OH261338   4.299   6.021  13.077  0.2130 -0.2614  0.4032
13308TIP3    H161339   4.287   6.078  13.002  1.5864 -0.3042  0.1283
13308TIP3    H261340   4.215   6.023  13.123 -1.2548 -1.5266 -2.0066
13309TIP3   OH261341   6.145   0.930  14.183  0.6864  0.5652  0.0751
13309TIP3    H161342   6.102   0.982  14.250 -2.1526 -1.4798  0.0507
13309TIP3    H261343   6.212   0.880  14.229  0.1781  0.7277  0.9972
13310TIP3   OH261344   4.459   1.373  13.245 -0.3360  0.2652  0.0389
13310TIP3    H161345   4.395   1.356  13.313 -0.9169 -0.0897 -0.5925
13310TIP3    H261346   4.412   1.425  13.180  0.3268  0.9475  0.0871
13311TIP3   OH261347   2.304   1.117  10.802 -0.2621 -0.2036 -0.5455
13311TIP3    H161348   2.365   1.191  10.798  1.7573 -1.5845  1.9413
13311TIP3    H261349   2.298   1.087  10.711  1.3614  1.0781 -1.1337
13312TIP3   OH261350   6.431   0.658  15.109  0.0092  0.7484  0.1511
13312TIP3    H161351   6.348   0.622  15.141  1.0014 -1.6642  0.2051
13312TIP3    H261352   6.497   0.620  15.166  1.5839 -1.3330 -2.7984
13313TIP3   OH261353   4.125   5.708  11.937 -0.4634  0.2193  0.0303
13313TIP3    H161354   4.117   5.660  11.855 -1.3836  0.2184  0.1186
13313TIP3    H261355   4.041   5.696  11.981  0.2078 -0.2194  1.2212
13314TIP3   OH261356   3.369   5.010   0.757  0.3997 -0.2107 -0.0434
13314TIP3    H161357   3.329   4.984   0.674 -0.0860 -1.8185  0.6579
13314TIP3    H261358   3.463   4.999   0.744  0.4033  0.5092 -0.6827
13315TIP3   OH261359   5.905   1.970  14.665 -0.1238  0.0428  0.4466
13315TIP3    H161360   5.940   1.985  14.577 -1.7265 -1.0628 -0.4258
13315TIP3    H261361   5.983   1.952  14.718  0.7460 -1.3632 -1.1836
13316TIP3   OH261362   0.111   0.599   3.001  0.3594  0.3838 -0.5626
13316TIP3    H161363   0.153   0.600   2.915 -1.4893 -0.4531 -1.5385
13316TIP3    H261364   0.071   0.513   3.007  1.2132  0.0634  1.5834
13317TIP3   OH261365   1.925   0.081   5.212  0.0875  0.4219 -0.6366
13317TIP3    H161366   2.020   0.095   5.209  0.2468 -0.7917 -2.5186
13317TIP3    H261367   1.915  -0.004   5.255 -0.1111  0.3568 -0.8106
13318TIP3   OH261368   2.074   1.264  16.423 -0.3553  0.1360 -0.4981
13318TIP3    H161369   2.006   1.331  16.408 -3.2112 -2.3696  0.3161
13318TIP3    H261370   2.090   1.227  16.336 -1.1996 -0.2527 -0.5019
13319TIP3   OH261371   1.320   5.077  16.326 -0.5770  0.4415  0.4646
13319TIP3    H161372   1.356   5.164  16.312 -0.7011  0.7810  2.0439
13319TIP3    H261373   1.288   5.050  16.240 -0.7908  2.0754 -0.0066
13320TIP3   OH261374   0.940   0.642  10.845 -0.1544  0.2996 -0.4285
13320TIP3    H161375   0.905   0.728  10.869 -0.4065  0.1697 -0.3187
13320TIP3    H261376   0.989   0.657  10.765 -0.1764  0.5512 -0.3954
13321TIP3   OH261377   5.445   2.179  11.626  0.2501 -0.2659 -0.2616
13321TIP3    H161378   5.358   2.188  11.665  0.4345 -0.2285  0.1408
13321TIP3    H261379   5.445   2.090  11.591  0.6620 -0.9092  1.2873
13322TIP3   OH261380   2.046   4.457   1.792  0.4023 -0.0155 -0.4216
13322TIP3    H161381   2.102   4.401   1.739  0.7788  0.0927 -0.1443
13322TIP3    H261382   1.960   4.452   1.750  0.7013  0.0947 -1.0647
13323TIP3   OH261383   1.049   2.482   4.515 -0.0086  0.0560 -0.4087
13323TIP3    H161384   1.060   2.467   4.421  1.0609  0.4520 -0.3611
13323TIP3    H261385   0.963   2.523   4.523  0.4330  1.2487 -1.3771
13324TIP3   OH261386   4.225   5.216  14.877 -0.4359 -0.0212 -0.2449
13324TIP3    H161387   4.175   5.221  14.959  0.7804  2.0919  0.4423
13324TIP3    H261388   4.158   5.212  14.809 -1.5156 -0.0084  0.7709
13325TIP3   OH261389   1.397   1.454  11.566  0.1718 -0.1804  0.2182
13325TIP3    H161390   1.405   1.360  11.548  1.4525 -0.2028  0.8030
13325TIP3    H261391   1.439   1.466  11.651  1.5364  1.1808 -0.6067
13326TIP3   OH261392   2.396   5.190  15.106  0.0111 -0.0868 -0.4145
13326TIP3    H161393   2.450   5.260  15.143 -0.8541  0.6740 -0.5587
13326TIP3    H261394   2.450   5.154  15.036  0.0653  1.1745 -1.0674
13327TIP3   OH261395   0.353   3.061  17.281 -0.1600 -0.5947  0.6496
13327TIP3    H161396   0.434   3.012  17.266  0.5725  1.0492 -1.0420
13327TIP3    H261397   0.368   3.147  17.241 -2.6756 -0.1657  0.4463
13328TIP3   OH261398   1.525   3.189   2.865 -0.3785 -0.6662 -1.0422
13328TIP3    H161399   1.561   3.185   2.953 -0.8817 -2.4679 -0.8813
13328TIP3    H261400   1.474   3.270   2.864 -0.0811 -0.4432  0.2002
13329TIP3   OH261401   2.925   5.790   0.553  0.1859  0.4641 -0.1631
13329TIP3    H161402   3.001   5.735   0.535  1.5915  2.2258  0.2218
13329TIP3    H261403   2.899   5.824   0.468 -1.3727 -1.5258 -0.5812
13330TIP3   OH261404   4.365   3.513  16.518 -0.0253 -0.1840  0.4782
13330TIP3    H161405   4.433   3.571  16.484  0.3989 -0.5919  0.6105
13330TIP3    H261406   4.335   3.554  16.599  0.2868 -0.1598  0.5817
13331TIP3   OH261407   6.567   4.511  11.886  0.2575 -0.0773  0.0955
13331TIP3    H161408   6.597   4.573  11.820  1.0149 -0.2461  0.2630
13331TIP3    H261409   6.482   4.481  11.855  0.2827  0.3879 -0.4297
13332TIP3   OH261410   5.957   2.879  16.212 -0.0235  0.0505 -0.5525
13332TIP3    H161411   5.948   2.896  16.306 -1.6190 -1.2564 -0.4248
13332TIP3    H261412   6.051   2.868  16.199  0.0933 -1.8512  1.3255
13333TIP3   OH261413   2.201   1.076  14.065 -0.2803 -0.4265  0.1709
13333TIP3    H161414   2.168   0.999  14.112 -0.0330  0.5341  2.0465
13333TIP3    H261415   2.128   1.104  14.010 -1.2065 -0.6618  1.2362
13334TIP3   OH261416   1.326   4.777  15.164 -0.2947  0.8469 -0.6020
13334TIP3    H161417   1.310   4.857  15.114 -1.0278  1.6512  0.8526
13334TIP3    H261418   1.282   4.792  15.247  1.9571  0.0896  0.8093
13335TIP3   OH261419   0.280   5.630   6.086 -0.1324  0.1715 -0.0614
13335TIP3    H161420   0.346   5.667   6.144  0.8677 -0.6145 -0.6589
13335TIP3    H261421   0.203   5.684   6.099 -0.0516 -0.1787  2.2457
13336TIP3   OH261422   3.496   0.184   5.718 -0.2149  0.1115 -0.2584
13336TIP3    H161423   3.516   0.257   5.659 -0.9344 -0.4845 -1.2586
13336TIP3    H261424   3.569   0.183   5.780  1.1973  0.0090 -1.8400
13337TIP3   OH261425   1.413   6.565   5.712 -0.0322 -0.4849  0.2439
13337TIP3    H161426   1.321   6.539   5.703 -0.7459  1.6760  0.6413
13337TIP3    H261427   1.420   6.644   5.658  2.2296 -1.8758 -1.6939
13338TIP3   OH261428   1.161   4.801   4.198  0.0455  0.6984  0.3686
13338TIP3    H161429   1.075   4.814   4.158  0.1653  2.0916  0.5185
13338TIP3    H261430   1.142   4.764   4.284 -0.2087 -2.6482 -0.9910
13339TIP3   OH261431   0.858   0.567   4.608  0.3854  0.1365  0.5538
13339TIP3    H161432   0.858   0.519   4.525 -1.0736  1.0315 -0.0006
13339TIP3    H261433   0.835   0.502   4.674 -2.2418  0.1386 -0.2750
13340TIP3   OH261434   2.762   4.340  11.208 -0.1492 -0.2022  0.0861
13340TIP3    H161435   2.730   4.259  11.249  2.8832 -0.8804  1.3190
13340TIP3    H261436   2.786   4.396  11.281 -0.1431  0.9697 -0.7859
13341TIP3   OH261437   2.553   2.558   5.716 -0.0707  0.1834  0.1255
13341TIP3    H161438   2.601   2.507   5.781 -2.1046  0.5203  2.0185
13341TIP3    H261439   2.622   2.596   5.660  1.8653  0.5608  2.5765
13342TIP3   OH261440   1.040   2.000  16.170 -0.1896  0.2687  0.1216
13342TIP3    H161441   1.106   2.068  16.188  0.9092 -0.8934  0.7186
13342TIP3    H261442   0.965   2.048  16.136  0.2995  1.8576  1.1388
13343TIP3   OH261443   5.022   4.839   2.731 -0.6269 -0.1123 -0.1847
13343TIP3    H161444   5.036   4.846   2.825 -2.3203 -1.2494  0.1959
13343TIP3    H261445   4.927   4.834   2.721 -0.4370 -1.2152 -1.8649
13344TIP3   OH261446   4.670   0.690   5.169 -0.0596  0.0181 -0.2998
13344TIP3    H161447   4.696   0.762   5.111  2.1506 -0.3797  0.1185
13344TIP3    H261448   4.575   0.700   5.178  0.2417  3.4917  0.5249
13345TIP3   OH261449   0.778   2.153  11.501  0.5032  0.4678  0.2515
13345TIP3    H161450   0.687   2.171  11.475  0.8475  0.2607 -1.2073
13345TIP3    H261451   0.783   2.181  11.592 -1.2469 -0.3009  0.6272
13346TIP3   OH261452   6.660   4.825  12.599 -0.3031 -0.4288 -0.6513
13346TIP3    H161453   6.737   4.775  12.571 -1.2346 -1.8705 -0.7435
13346TIP3    H261454   6.617   4.768  12.664 -1.1918  0.4295 -0.4667
13347TIP3   OH261455   4.313   2.737  11.589  0.3999  0.0897  0.6897
13347TIP3    H161456   4.376   2.711  11.523 -0.2100  0.6817 -0.1411
13347TIP3    H261457   4.362   2.735  11.671  0.9457 -1.4886  0.3710
13348TIP3   OH261458   0.768   2.551   5.558 -0.5949 -0.4916  0.0789
13348TIP3    H161459   0.722   2.634   5.567 -1.2900 -0.6108 -1.8749
13348TIP3    H261460   0.722   2.491   5.617 -0.6437  0.2807  0.8361
13349TIP3   OH261461   2.594   3.793  13.434 -0.2709 -0.2381  0.2813
13349TIP3    H161462   2.643   3.826  13.358  0.5937 -1.0714  0.4606
13349TIP3    H261463   2.604   3.698  13.430 -0.5067 -0.3155  1.2500
13350TIP3   OH261464   2.562   1.388  11.109 -0.2437  0.0485 -0.2957
13350TIP3    H161465   2.468   1.404  11.106 -0.1748  0.3393 -1.3042
13350TIP3    H261466   2.600   1.459  11.057  0.5446 -0.0322  0.1463
13351TIP3   OH261467   2.775   6.416  13.023  0.3117 -0.3640 -0.1551
13351TIP3    H161468   2.725   6.463  13.090  0.2206 -0.7365  0.0411
13351TIP3    H261469   2.865   6.417  13.055  0.8460  2.1249 -1.5028
13352TIP3   OH261470   0.216   5.701   0.754 -0.0241  0.2620  0.0083
13352TIP3    H161471   0.198   5.773   0.694  0.0240  1.1116  0.9770
13352TIP3    H261472   0.136   5.650   0.755 -0.8505  1.4995  0.8865
13353TIP3   OH261473   4.071   5.199   2.869  0.5753 -0.0489 -0.0729
13353TIP3    H161474   4.095   5.223   2.780 -0.0310  0.9764  0.0274
13353TIP3    H261475   4.118   5.260   2.925  0.5255 -0.3363  0.2920
13354TIP3   OH261476   5.264   1.565   0.697 -0.2793 -0.3812 -0.3164
13354TIP3    H161477   5.326   1.511   0.648  0.2960  0.5379 -0.6338
13354TIP3    H261478   5.240   1.635   0.637  0.2824  0.6519  0.6135
13355TIP3   OH261479   3.092   2.065   4.082 -0.6823 -0.0139  0.1740
13355TIP3    H161480   3.141   2.121   4.022  0.3587  0.8523  1.7588
13355TIP3    H261481   3.002   2.098   4.079 -0.6893 -0.0854 -0.9726
13356TIP3   OH261482   5.050   4.956  16.979  0.0745  0.2870 -0.7039
13356TIP3    H161483   5.065   4.963  17.073  0.2202 -4.4810 -0.0960
13356TIP3    H261484   4.956   4.965  16.968  0.1905  2.3034 -0.4065
13357TIP3   OH261485   5.318   5.047   6.330 -0.8862 -0.7778 -0.2615
13357TIP3    H161486   5.312   5.126   6.382 -1.7878 -0.7523 -0.3923
13357TIP3    H261487   5.299   4.976   6.391  1.2257 -1.0341  0.1676
13358TIP3   OH261488   2.319   4.106   0.471  0.1783  0.0640  0.8493
13358TIP3    H161489   2.323   4.182   0.529 -2.4809  0.6367  0.3780
13358TIP3    H261490   2.248   4.052   0.505  0.2822 -0.8935 -0.3566
13359TIP3   OH261491   1.502   2.277  13.090 -0.4379  0.2913 -0.5698
13359TIP3    H161492   1.595   2.301  13.088  0.2533 -2.1714 -0.2810
13359TIP3    H261493   1.474   2.297  13.179  0.4304 -1.0158  0.0184
13360TIP3   OH261494   1.921   0.779  14.697 -0.0213  0.6936  0.1817
13360TIP3    H161495   1.933   0.690  14.730  0.7979  1.2150  1.3864
13360TIP3    H261496   1.830   0.800  14.718  0.0203  0.4209  0.6569
13361TIP3   OH261497   1.344   6.531  14.099 -0.2021  0.1300  0.4163
13361TIP3    H161498   1.342   6.455  14.041 -1.2276  0.9530 -0.6566
13361TIP3    H261499   1.411   6.509  14.164 -1.1533 -2.1015  0.7220
13362TIP3   OH261500   3.806   5.705   4.388  0.0046 -0.0199 -0.2284
13362TIP3    H161501   3.814   5.786   4.337  2.3564 -0.6584 -1.0098
13362TIP3    H261502   3.716   5.676   4.373 -0.8350  2.2809 -0.1237
13363TIP3   OH261503   2.827   1.611   4.281 -0.4727  0.4008 -0.0721
13363TIP3    H161504   2.734   1.599   4.298 -0.6070  0.2874 -0.8483
13363TIP3    H261505   2.857   1.669   4.350 -0.6676 -1.2237  1.4539
13364TIP3   OH261506   6.521   3.964   4.444  0.0249 -0.0847  0.6738
13364TIP3    H161507   6.552   3.973   4.534  2.8664  0.4783 -0.2831
13364TIP3    H261508   6.600   3.963   4.391 -1.6145  2.9574 -2.1549
13365TIP3   OH261509   6.610   0.379   2.743  0.0706  0.1367 -0.0399
13365TIP3    H161510   6.537   0.334   2.701 -0.0583  0.7456 -0.4950
13365TIP3    H261511   6.586   0.472   2.739  0.1685  0.2358  1.1776
13366TIP3   OH261512   3.764   3.757  10.659 -0.3005 -0.3588 -0.1406
13366TIP3    H161513   3.722   3.843  10.656  0.0955 -0.1636 -0.1229
13366TIP3    H261514   3.757   3.731  10.751  0.9785  0.3642  0.1867
13367TIP3   OH261515   0.912   5.443  12.621  0.0990  0.7300  0.6041
13367TIP3    H161516   0.972   5.433  12.547 -1.3612 -1.0227 -0.4317
13367TIP3    H261517   0.891   5.536  12.623  1.1974  1.0218 -0.3215
13368TIP3   OH261518   5.640   2.141  14.704 -0.2856 -0.4092 -0.0974
13368TIP3    H161519   5.575   2.072  14.688  0.7169 -1.1684 -1.0616
13368TIP3    H261520   5.724   2.095  14.707  0.2851  0.6356  0.4406
13369TIP3   OH261521   1.476   5.109   4.372  0.4497  0.0823 -0.8004
13369TIP3    H161522   1.480   5.191   4.422  0.4747 -0.2708 -0.2141
13369TIP3    H261523   1.384   5.102   4.347  0.2957 -0.0857 -0.2044
13370TIP3   OH261524   0.559   1.201   3.767 -0.2872 -0.9241 -0.4171
13370TIP3    H161525   0.590   1.291   3.776 -0.0337 -0.8136 -2.0596
13370TIP3    H261526   0.566   1.165   3.855 -1.4844  0.9848  0.5250
13371TIP3   OH261527   3.907   6.301  15.187 -0.1715 -0.3503  0.0228
13371TIP3    H161528   3.993   6.292  15.228  0.1011  0.4075 -0.3652
13371TIP3    H261529   3.922   6.355  15.110 -0.9162 -0.6056 -0.3135
13372TIP3   OH261530   3.271   0.025   2.115  0.2764  0.1712  0.8394
13372TIP3    H161531   3.215   0.010   2.040  1.0727  0.5486  0.1555
13372TIP3    H261532   3.265   0.120   2.131  1.3310  0.3484  0.2536
13373TIP3   OH261533   5.673   5.687   1.784  0.7862  0.2069  0.0235
13373TIP3    H161534   5.742   5.729   1.732  3.2208 -1.5868  1.5924
13373TIP3    H261535   5.674   5.595   1.755 -1.4113  0.2491 -0.3221
13374TIP3   OH261536   5.039   0.948   4.539 -0.3380 -0.0800  0.2265
13374TIP3    H161537   4.975   0.882   4.567 -1.1479  0.7254  0.3196
13374TIP3    H261538   5.021   0.959   4.446 -1.6276  1.4895  0.6155
13375TIP3   OH261539   0.176   6.315   3.091 -0.4516 -0.1142  0.4304
13375TIP3    H161540   0.138   6.375   3.027 -0.0434 -0.5125 -0.2026
13375TIP3    H261541   0.196   6.236   3.040 -1.5660 -1.0371  1.3563
13376TIP3   OH261542   0.961   1.308  15.111  0.0592 -0.3039 -0.0131
13376TIP3    H161543   1.049   1.325  15.077 -0.8643  4.4362 -0.7802
13376TIP3    H261544   0.908   1.288  15.034 -0.2518  1.1221 -0.2049
13377TIP3   OH261545   3.186   2.257  12.698 -0.1969  0.1787 -0.4019
13377TIP3    H161546   3.118   2.304  12.746 -0.3149 -0.8324  0.4255
13377TIP3    H261547   3.268   2.283  12.741 -0.3341 -1.0282  0.6238
13378TIP3   OH261548   4.330   5.974  13.791 -0.3626 -0.2087  0.3203
13378TIP3    H161549   4.389   5.900  13.780 -1.8823 -1.4616  0.0858
13378TIP3    H261550   4.369   6.045  13.739 -0.0268 -1.5763 -1.3669
13379TIP3   OH261551   5.891   5.377   5.816  0.5502  0.0601 -0.4992
13379TIP3    H161552   5.872   5.463   5.853  0.2291  0.4366 -1.4808
13379TIP3    H261553   5.805   5.341   5.794  0.7600  0.3101 -1.8206
13380TIP3   OH261554   4.484   6.070   3.965  0.1734 -0.0912  0.3701
13380TIP3    H161555   4.563   6.043   3.918  0.8935  0.7066  1.0973
13380TIP3    H261556   4.485   6.018   4.045 -1.5247 -2.1128 -0.8095
13381TIP3   OH261557   3.124   0.410  16.716  0.1224 -0.4586 -0.0746
13381TIP3    H161558   3.195   0.453  16.763  0.2102 -0.5182 -0.1516
13381TIP3    H261559   3.052   0.404  16.780 -0.4052  1.1184 -0.4886
13382TIP3   OH261560   4.818   6.363   0.985  0.1398  0.5920  0.2855
13382TIP3    H161561   4.907   6.380   0.955  0.8072 -2.4233  0.2420
13382TIP3    H261562   4.790   6.446   1.024  2.3907  2.0680 -0.9973
13383TIP3   OH261563   1.977   4.172  16.275  0.4939 -0.6843  0.4466
13383TIP3    H161564   2.060   4.171  16.226  0.3435 -2.3407  0.1594
13383TIP3    H261565   1.999   4.215  16.358  1.4400 -0.3669  0.0498
13384TIP3   OH261566   3.693   3.276  17.006  0.2649 -0.0150 -0.5615
13384TIP3    H161567   3.611   3.266  16.958  0.7044  0.1078 -1.3483
13384TIP3    H261568   3.697   3.199  17.063 -0.2677 -0.1542 -0.7065
13385TIP3   OH261569   0.368   2.363   5.043 -0.1637  0.6973  0.7902
13385TIP3    H161570   0.280   2.344   5.076 -0.2631 -0.2254  0.0367
13385TIP3    H261571   0.401   2.431   5.102 -1.8586  1.9970  0.3308
13386TIP3   OH261572   0.941   2.663  16.805 -0.0058 -0.3910  0.1080
13386TIP3    H161573   0.968   2.755  16.809 -1.8898  0.1502  2.3240
13386TIP3    H261574   0.964   2.627  16.890  0.4348 -1.9205 -0.6322
13387TIP3   OH261575   1.566   3.527   0.568 -0.1140 -0.2929 -0.7772
13387TIP3    H161576   1.551   3.621   0.572 -0.8545 -0.4299 -0.0199
13387TIP3    H261577   1.497   3.494   0.511  0.5587 -0.3139 -1.6099
13388TIP3   OH261578   3.625   3.836  13.588  0.4799 -0.0408  0.2008
13388TIP3    H161579   3.575   3.756  13.606  0.8182 -0.3600 -0.2324
13388TIP3    H261580   3.717   3.810  13.600  0.6402  0.0591 -0.7345
13389TIP3   OH261581   5.042   6.562  12.529  0.3759 -0.8769  0.1222
13389TIP3    H161582   5.012   6.484  12.482  0.0964  0.5183 -2.1680
13389TIP3    H261583   4.963   6.596  12.571 -0.2368 -0.0174 -1.6644
13390TIP3   OH261584   5.268   4.045  15.824 -0.0444  0.1850  0.3355
13390TIP3    H161585   5.198   4.096  15.783 -0.5487 -1.1768 -0.5889
13390TIP3    H261586   5.348   4.073  15.778  0.0426  1.6755  1.3309
13391TIP3   OH261587   0.473   1.636   2.513 -0.0484 -0.0836 -0.7464
13391TIP3    H161588   0.481   1.666   2.604  0.9360  0.2158 -0.9159
13391TIP3    H261589   0.558   1.596   2.493 -0.0202  0.4253 -1.7310
13392TIP3   OH261590   0.644   2.554   2.752 -0.1586 -0.1840 -0.9215
13392TIP3    H161591   0.549   2.560   2.743 -0.3060  0.2558  0.6194
13392TIP3    H261592   0.663   2.601   2.833  1.2812 -1.0475 -0.7252
13393TIP3   OH261593   3.661   2.586   2.307  0.7932 -0.1015  0.6184
13393TIP3    H161594   3.714   2.552   2.380  3.3905  1.5402 -0.3895
13393TIP3    H261595   3.700   2.671   2.286 -0.9651  0.2462 -1.5996
13394TIP3   OH261596   2.591   1.311   5.386 -0.2292  0.0199 -0.2143
13394TIP3    H161597   2.680   1.282   5.408  0.1724  1.3779  0.0598
13394TIP3    H261598   2.540   1.292   5.464 -0.0310 -0.1712 -0.1285
13395TIP3   OH261599   1.999   0.842  13.669 -0.0773 -0.0340  0.1170
13395TIP3    H161600   2.017   0.781  13.740 -2.0384 -1.0610 -0.2067
13395TIP3    H261601   2.077   0.896  13.664  0.7126 -0.8987  2.0616
13396TIP3   OH261602   4.227   5.575   3.078  0.0773  0.3398  0.2288
13396TIP3    H161603   4.196   5.611   3.161 -0.4221 -0.2105  0.2892
13396TIP3    H261604   4.321   5.590   3.079 -0.1826  2.2673 -0.0605
13397TIP3   OH261605   4.182   5.648  12.921  0.2280 -0.3923  0.4806
13397TIP3    H161606   4.192   5.588  12.995  1.0361 -1.6937 -0.6273
13397TIP3    H261607   4.257   5.707  12.928  0.2295 -0.4298  0.7859
13398TIP3   OH261608   3.389   3.950   4.896  0.3692 -0.1251 -0.4725
13398TIP3    H161609   3.457   3.988   4.951 -1.2726  2.7169 -0.1833
13398TIP3    H261610   3.437   3.905   4.826  2.4760 -0.7182  1.2385
13399TIP3   OH261611   2.302   2.680  16.977 -0.0390  0.4424  0.2082
13399TIP3    H161612   2.248   2.608  17.008 -1.6107  0.7870 -1.5268
13399TIP3    H261613   2.384   2.638  16.949 -0.6872 -0.5824 -0.2001
13400TIP3   OH261614   6.745   5.681   6.679  0.1782  0.3960  0.0663
13400TIP3    H161615   6.817   5.661   6.619 -1.1045 -1.8130 -0.8717
13400TIP3    H261616   6.695   5.749   6.634 -0.0014 -0.2636 -0.7735
13401TIP3   OH261617   6.264   4.865  12.142 -0.5699  0.1731 -0.1507
13401TIP3    H161618   6.320   4.815  12.084 -0.0661 -1.6980  1.8013
13401TIP3    H261619   6.242   4.944  12.093  0.0907 -1.1212 -2.6847
13402TIP3   OH261620   5.429   4.523   4.645  0.5826 -0.0535 -0.1388
13402TIP3    H161621   5.442   4.556   4.734 -0.6872  1.6582 -0.5302
13402TIP3    H261622   5.481   4.443   4.641 -1.1016 -1.5074  2.9098
13403TIP3   OH261623   1.657   5.665  11.007  0.3220 -0.3250  0.0084
13403TIP3    H161624   1.614   5.615  10.938  0.9211  0.4337 -0.9361
13403TIP3    H261625   1.625   5.755  10.995  0.8636 -0.0804  0.3594
13404TIP3   OH261626   5.155   0.868   3.880  0.3672  0.1531 -0.0724
13404TIP3    H161627   5.180   0.952   3.841  4.5061 -0.3485  1.0389
13404TIP3    H261628   5.208   0.861   3.959 -1.7556 -2.4303  1.2900
13405TIP3   OH261629   6.697   3.863  14.251 -0.0060 -0.2376 -0.0142
13405TIP3    H161630   6.637   3.853  14.176  1.0414 -1.5136 -0.7256
13405TIP3    H261631   6.650   3.823  14.324 -0.7962  0.4881 -0.1017
13406TIP3   OH261632   0.959   0.860   4.633  0.7958 -0.2679  0.5457
13406TIP3    H161633   0.965   0.872   4.728 -1.2596 -0.9838  0.8322
13406TIP3    H261634   0.947   0.765   4.622 -0.7776 -0.0009 -0.2639
13407TIP3   OH261635   5.777   4.338  13.933 -0.2161 -0.1283 -0.1616
13407TIP3    H161636   5.764   4.339  14.028  0.0890  0.9458 -0.1145
13407TIP3    H261637   5.774   4.245  13.909  3.3847 -0.8073  1.4252
13408TIP3   OH261638   2.893   5.296  12.055 -0.2008 -0.2362  0.1453
13408TIP3    H161639   2.972   5.247  12.077  0.9078  0.5125 -1.8480
13408TIP3    H261640   2.878   5.352  12.131  1.4908 -0.0352  0.3820
13409TIP3   OH261641   3.644   1.750  10.985 -0.2428 -0.4468 -0.1976
13409TIP3    H161642   3.606   1.835  10.964  0.9976 -0.1702 -1.4644
13409TIP3    H261643   3.634   1.741  11.080 -0.9781  0.8107 -0.1445
13410TIP3   OH261644   3.614   0.780   0.631  0.2499  0.2972 -0.1889
13410TIP3    H161645   3.691   0.809   0.583  0.1813 -0.8257 -1.0392
13410TIP3    H261646   3.545   0.841   0.605  0.6996  0.9256  0.0835
13411TIP3   OH261647   6.748   0.564  12.655 -0.2485  0.2197  0.1667
13411TIP3    H161648   6.723   0.656  12.649 -0.8963 -0.0055 -0.8686
13411TIP3    H261649   6.798   0.547  12.575 -3.5659 -1.2850 -1.8069
13412TIP3   OH261650   2.675   2.673  16.394 -0.0024  0.2266 -0.0767
13412TIP3    H161651   2.671   2.768  16.382  1.5428  0.4825  1.0736
13412TIP3    H261652   2.598   2.640  16.348  0.0938  1.9159 -1.5755
13413TIP3   OH261653   5.493   0.359   3.657 -0.5401 -0.3774 -0.4001
13413TIP3    H161654   5.471   0.271   3.687  0.6937 -0.7257 -0.4539
13413TIP3    H261655   5.437   0.417   3.709 -3.2425 -1.2641 -2.1186
13414TIP3   OH261656   0.281   4.034   2.212  0.1786  0.2226  0.1182
13414TIP3    H161657   0.232   4.107   2.173  2.8382  2.4716  0.7189
13414TIP3    H261658   0.253   4.033   2.303 -0.6155 -0.2081 -0.1206
13415TIP3   OH261659   4.033   5.041  16.693  0.1897 -0.4017 -0.1598
13415TIP3    H161660   3.985   5.120  16.671  0.3625 -0.4279 -0.6449
13415TIP3    H261661   3.968   4.984  16.736  0.2116  0.2268  0.7368
13416TIP3   OH261662   0.461   5.338   5.751 -0.6065  0.2734  0.1509
13416TIP3    H161663   0.509   5.412   5.789 -0.6509  1.5835 -2.1672
13416TIP3    H261664   0.370   5.369   5.746 -0.6642 -0.0107 -0.6612
13417TIP3   OH261665   2.474   4.431   5.942  0.6273 -0.1746 -0.1629
13417TIP3    H161666   2.454   4.401   6.031  0.4080  1.9633  0.5687
13417TIP3    H261667   2.393   4.414   5.892  0.3133 -0.2491  0.3651
13418TIP3   OH261668   1.061   4.303   4.113 -0.1468 -0.4759  0.2301
13418TIP3    H161669   1.011   4.324   4.034  0.2482 -1.0359 -0.1696
13418TIP3    H261670   1.139   4.259   4.082  0.4697  0.1351  0.8782
13419TIP3   OH261671   4.766   6.128   2.059  0.2982  0.2478  0.0006
13419TIP3    H161672   4.798   6.100   1.974 -2.6596 -1.9281 -0.5573
13419TIP3    H261673   4.802   6.065   2.121  1.1891  0.9055  0.1735
13420TIP3   OH261674   2.054   6.719   4.489 -0.0270  0.7619  0.4567
13420TIP3    H161675   2.092   6.784   4.429 -1.0592  2.2015  1.2939
13420TIP3    H261676   2.039   6.768   4.571 -0.9861 -0.4907  1.0649
13421TIP3   OH261677   2.368   2.903   6.314 -0.0570  0.1439 -0.1038
13421TIP3    H161678   2.454   2.944   6.309 -0.8446  1.6759 -3.0277
13421TIP3    H261679   2.384   2.821   6.360  3.0890  0.0943 -1.0415
13422TIP3   OH261680   2.982   3.402   4.926 -0.0621 -0.4521  0.3692
13422TIP3    H161681   2.945   3.382   5.012  0.0339  2.4604  1.1747
13422TIP3    H261682   3.076   3.409   4.942  0.1461 -1.3825 -0.3325
13423TIP3   OH261683   3.149   1.205  10.967  0.1149 -0.0132 -0.2264
13423TIP3    H161684   3.231   1.205  11.015 -0.5597 -0.6458  0.9687
13423TIP3    H261685   3.111   1.119  10.985 -1.3077  0.6671  0.1059
13424TIP3   OH261686   2.456   2.034  14.025  0.1072  1.0336  0.1555
13424TIP3    H161687   2.460   2.109  13.966 -1.5698  0.3305 -0.9246
13424TIP3    H261688   2.515   1.969  13.986  0.5896  1.3168  0.4035
13425TIP3   OH261689   4.400   2.562   5.913  0.5037  0.0240  0.1723
13425TIP3    H161690   4.331   2.525   5.969  0.7383  0.5464  0.8209
13425TIP3    H261691   4.409   2.653   5.943  1.3216  0.0250 -0.0542
13426TIP3   OH261692   4.088   0.814   0.489 -0.4193 -0.0555 -0.0169
13426TIP3    H161693   4.121   0.901   0.467 -0.2922 -0.0271  0.2777
13426TIP3    H261694   4.137   0.754   0.433 -0.5198  0.0641 -0.2329
13427TIP3   OH261695   5.471   2.898   2.132 -0.0889  0.1860 -0.2471
13427TIP3    H161696   5.422   2.964   2.083 -0.7838  0.1055  0.3245
13427TIP3    H261697   5.437   2.905   2.221  0.1322 -0.6635 -0.0937
13428TIP3   OH261698   5.904   5.859   3.767 -0.2878 -0.1983 -0.6421
13428TIP3    H161699   5.903   5.795   3.838  0.6571 -0.3957 -0.8031
13428TIP3    H261700   5.886   5.942   3.810 -0.9594 -0.4774 -0.3547
13429TIP3   OH261701   5.025   2.516  11.118  0.0617  0.4517 -0.2522
13429TIP3    H161702   4.991   2.542  11.032  1.5029  0.1042 -0.9719
13429TIP3    H261703   5.036   2.598  11.165  2.1498  1.0031 -1.5612
13430TIP3   OH261704   1.389   4.530   1.134 -0.5291 -0.1522 -0.0059
13430TIP3    H161705   1.461   4.592   1.148 -1.8853  1.3011  0.8205
13430TIP3    H261706   1.433   4.448   1.111  1.3549  0.9168 -0.4517
13431TIP3   OH261707   1.654   3.872  13.523  0.2629  0.1674 -0.3517
13431TIP3    H161708   1.639   3.788  13.565 -0.0830  0.4571  0.1179
13431TIP3    H261709   1.739   3.862  13.478  0.4939 -0.2423  0.1655
13432TIP3   OH261710   3.839   5.720   4.896  0.2871 -0.0959  0.4340
13432TIP3    H161711   3.890   5.642   4.917  1.2032  0.5839  0.8202
13432TIP3    H261712   3.769   5.722   4.961  0.2162 -0.6322  0.3752
13433TIP3   OH261713   6.544   3.722  13.539  0.1501 -0.1203  0.2843
13433TIP3    H161714   6.522   3.629  13.540  0.0873 -0.1050  1.1522
13433TIP3    H261715   6.635   3.724  13.508 -0.2276 -0.3738 -0.8642
13434TIP3   OH261716   3.526   5.099   4.051 -0.1960  0.8953 -0.0435
13434TIP3    H161717   3.506   5.047   4.129 -2.4250  2.6634  0.6812
13434TIP3    H261718   3.607   5.062   4.017 -0.6007 -1.6887  1.5524
13435TIP3   OH261719   1.427   3.369  15.417  0.3655 -0.4749 -0.3693
13435TIP3    H161720   1.475   3.290  15.442 -0.4712 -0.6834  0.6437
13435TIP3    H261721   1.486   3.414  15.356  1.2453 -1.4124 -0.2487
13436TIP3   OH261722   1.678   5.297   0.734  0.0755  0.1311  0.0732
13436TIP3    H161723   1.753   5.356   0.727 -0.9293  1.7516  1.7882
13436TIP3    H261724   1.606   5.345   0.693 -0.6328 -0.1419  0.9672
13437TIP3   OH261725   2.267   1.832  14.634  1.0179  0.0501  0.3728
13437TIP3    H161726   2.310   1.752  14.603 -0.9113 -0.8098 -0.2417
13437TIP3    H261727   2.182   1.833  14.589 -0.1823  0.9819  2.4968
13438TIP3   OH261728   5.957   5.171  13.266 -0.0594  0.6637  0.5884
13438TIP3    H161729   5.953   5.215  13.181  1.6847 -0.0441  0.0846
13438TIP3    H261730   5.984   5.082  13.245  0.7629  0.5816  1.8931
13439TIP3   OH261731   0.298   0.557   2.506 -0.0753  0.2848 -0.2261
13439TIP3    H161732   0.265   0.602   2.429  0.5467  0.7866 -0.2077
13439TIP3    H261733   0.221   0.519   2.547 -0.5217  0.7751 -0.6044
13440TIP3   OH261734   0.672   1.893   3.453  0.2967 -0.3532 -0.4971
13440TIP3    H161735   0.715   1.885   3.367  0.7863 -0.5323 -0.2381
13440TIP3    H261736   0.665   1.987   3.469 -0.3121 -0.3048 -0.9849
13441TIP3   OH261737   1.239   1.826   1.143 -0.3540  0.1699  0.6501
13441TIP3    H161738   1.193   1.814   1.060  0.1583 -1.2430  0.5457
13441TIP3    H261739   1.326   1.791   1.128  0.2887  1.4308  1.2977
13442TIP3   OH261740   3.376   1.983  12.285 -0.3851 -0.7180 -0.1399
13442TIP3    H161741   3.451   1.924  12.288 -1.0777 -1.6220 -0.3791
13442TIP3    H261742   3.368   2.017  12.374 -0.0963 -1.1277  0.0411
13443TIP3   OH261743   0.844   4.081  13.996  0.2640 -0.2040 -0.9366
13443TIP3    H161744   0.803   3.999  14.025  0.9395 -0.4886 -0.7860
13443TIP3    H261745   0.926   4.054  13.954  1.2143  0.4866  0.4120
13444TIP3   OH261746   3.894   2.730   2.885  0.5702  0.4914  0.0247
13444TIP3    H161747   3.960   2.669   2.915  2.1457  2.0173 -0.1819
13444TIP3    H261748   3.935   2.816   2.894 -0.5705  1.3376 -2.1561
13445TIP3   OH261749   5.103   4.851   2.980 -0.9890 -0.0960 -0.2081
13445TIP3    H161750   5.193   4.850   2.945 -0.9665 -1.5001 -0.1677
13445TIP3    H261751   5.115   4.858   3.075 -0.8539 -1.5435 -0.0972
13446TIP3   OH261752   5.310   6.714  14.937 -0.0186 -0.0543 -0.4920
13446TIP3    H161753   5.365   6.777  14.982  0.6631 -1.4314  0.6756
13446TIP3    H261754   5.224   6.722  14.978  0.0510  0.1471 -0.3880
13447TIP3   OH261755   0.257   4.880   5.260 -0.0149 -0.3955  0.2751
13447TIP3    H161756   0.215   4.956   5.220  1.1402 -0.2266 -0.6832
13447TIP3    H261757   0.294   4.913   5.342  2.1153  0.6142 -1.0050
13448TIP3   OH261758   2.000   6.341   1.520  0.2840  0.5018  0.1250
13448TIP3    H161759   2.033   6.362   1.432 -0.2471  0.1632 -0.1555
13448TIP3    H261760   2.041   6.407   1.576 -0.7660  1.8747 -0.6389
13449TIP3   OH261761   2.433   5.155  12.913  0.1533  0.1703 -0.2588
13449TIP3    H161762   2.505   5.155  12.850  1.0844  1.3215  0.7674
13449TIP3    H261763   2.359   5.190  12.864  0.4235 -0.4835 -1.1627
13450TIP3   OH261764   3.305   6.692   5.385  0.4782 -0.1178 -0.3663
13450TIP3    H161765   3.280   6.619   5.442 -0.7675 -1.1546 -2.1505
13450TIP3    H261766   3.381   6.659   5.337 -0.5879 -0.6330 -1.7794
13451TIP3   OH261767   1.675   5.346   5.733 -0.8253 -0.5929  0.4074
13451TIP3    H161768   1.644   5.430   5.701 -1.1209 -1.1600 -0.8695
13451TIP3    H261769   1.596   5.300   5.761 -1.0733 -1.5436 -1.6491
13452TIP3   OH261770   1.664   5.296  12.201  0.4205  0.4811  0.6632
13452TIP3    H161771   1.681   5.238  12.127  3.4958 -0.8736  2.2318
13452TIP3    H261772   1.601   5.360  12.168  0.2281 -1.1600 -2.4979
13453TIP3   OH261773   3.085   3.550   0.783 -0.1071 -0.2409 -0.7803
13453TIP3    H161774   3.000   3.578   0.747  0.0496  2.0559  0.4536
13453TIP3    H261775   3.133   3.632   0.796  1.0643 -1.2315  1.5651
13454TIP3   OH261776   3.227   0.555   1.800 -0.1639  0.2891  0.3057
13454TIP3    H161777   3.192   0.564   1.711 -0.2440  0.3076  0.3392
13454TIP3    H261778   3.192   0.630   1.848 -2.4472 -1.1688  1.1179
13455TIP3   OH261779   3.802   1.312  11.624 -0.4348 -0.1300 -0.7962
13455TIP3    H161780   3.854   1.384  11.587 -2.0101  0.1138 -2.7058
13455TIP3    H261781   3.863   1.239  11.630  1.3342  1.3983  1.6033
13456TIP3   OH261782   1.724   1.808   0.782  0.5966 -0.2620  0.5295
13456TIP3    H161783   1.760   1.723   0.808 -0.5806 -0.2507  2.4302
13456TIP3    H261784   1.747   1.866   0.855 -2.5371 -0.1080  1.5416
13457TIP3   OH261785   3.447   5.421   3.811  0.2767  0.0737 -0.3887
13457TIP3    H161786   3.489   5.444   3.728 -0.7340  1.4172 -0.5607
13457TIP3    H261787   3.387   5.350   3.788 -1.2282  1.5412 -1.1996
13458TIP3   OH261788   1.819   1.948  17.152  0.1120  1.1735 -0.7189
13458TIP3    H161789   1.903   1.993  17.158 -0.2125  1.9320 -1.6706
13458TIP3    H261790   1.772   1.993  17.082 -0.9310  0.4942 -0.4816
13459TIP3   OH261791   0.123   3.709  12.278 -0.4126  0.5066  0.0206
13459TIP3    H161792   0.212   3.726  12.310 -1.3121  1.0457  2.4389
13459TIP3    H261793   0.092   3.794  12.247 -0.5312  0.6023  0.3970
13460TIP3   OH261794   4.931   1.403   2.681  0.7307 -0.1806  0.1248
13460TIP3    H161795   4.894   1.463   2.746  0.2844  0.3950 -0.6424
13460TIP3    H261796   5.026   1.407   2.697  0.9164  2.1427 -1.0115
13461TIP3   OH261797   2.376   5.859  11.050  0.2407  0.7293 -0.3906
13461TIP3    H161798   2.445   5.900  10.999 -0.3988  1.1824 -0.9123
13461TIP3    H261799   2.341   5.930  11.105  0.8525  0.2714  0.6107
13462TIP3   OH261800   0.416   4.382   5.045 -0.1676  0.2412  0.7171
13462TIP3    H161801   0.332   4.353   5.010 -0.3457  0.3953  1.0027
13462TIP3    H261802   0.405   4.477   5.056 -1.3496 -0.1218  4.2537
13463TIP3   OH261803   3.016   1.878  11.140 -0.3907 -0.0979 -0.0942
13463TIP3    H161804   3.015   1.816  11.068 -1.5273  0.7772 -0.8733
13463TIP3    H261805   2.981   1.959  11.103  4.1175  2.1445 -0.0831
13464TIP3   OH261806   5.970   4.258   4.468 -0.0821 -0.0224  0.1282
13464TIP3    H161807   5.879   4.281   4.485  0.2436  0.4653  1.2428
13464TIP3    H261808   6.013   4.259   4.553  1.2736  1.0567 -0.5245
13465TIP3   OH261809   0.171   2.525  12.149 -0.3504  0.0866 -0.2816
13465TIP3    H161810   0.227   2.588  12.103 -1.5755  1.4870  0.0677
13465TIP3    H261811   0.110   2.494  12.081  0.3405 -0.8762 -0.4879
13466TIP3   OH261812   0.103   2.365   3.411  0.1364 -0.1587 -0.3282
13466TIP3    H161813   0.153   2.446   3.421  0.5488 -0.3359 -0.8863
13466TIP3    H261814   0.124   2.314   3.490 -0.4898  0.4600  0.2527
13467TIP3   OH261815   2.094   0.209   4.356 -0.4862  0.3417  0.3871
13467TIP3    H161816   2.167   0.257   4.318 -1.5070  1.8978  0.2892
13467TIP3    H261817   2.054   0.270   4.418 -1.3212 -0.7058  0.9318
13468TIP3   OH261818   4.330   0.958   0.649  0.0541 -0.4276 -0.0852
13468TIP3    H161819   4.322   0.927   0.558 -0.7168 -1.0924  0.2014
13468TIP3    H261820   4.424   0.971   0.661  0.1075  0.3128 -1.1882
13469TIP3   OH261821   3.402   1.658   1.258  0.7295  0.5572  0.1584
13469TIP3    H161822   3.400   1.577   1.310 -3.9786 -0.1211 -0.6255
13469TIP3    H261823   3.487   1.697   1.277  1.8616 -2.8599  3.2299
13470TIP3   OH261824   2.451   6.328  12.285  0.1034 -0.2039  0.3210
13470TIP3    H161825   2.413   6.242  12.301 -0.4789 -0.0239 -0.0587
13470TIP3    H261826   2.406   6.360  12.207 -0.2626  0.7712  0.9105
13471TIP3   OH261827   5.171   5.600  13.358 -0.2425 -0.1917 -0.5506
13471TIP3    H161828   5.138   5.690  13.355  1.1128  0.3545  0.0906
13471TIP3    H261829   5.263   5.609  13.384 -0.6086 -1.9049  1.6141
13472TIP3   OH261830   2.289   2.756   2.420 -0.0313  0.3703 -0.6076
13472TIP3    H161831   2.332   2.823   2.368  0.4110  1.0636  0.6022
13472TIP3    H261832   2.209   2.735   2.372  0.1833  1.2391 -1.3601
13473TIP3   OH261833   1.064   3.771   0.202  0.1400  0.4596 -0.4000
13473TIP3    H161834   0.977   3.755   0.239  0.3322  0.4195  0.0534
13473TIP3    H261835   1.099   3.683   0.187 -0.2897  0.4716 -1.5584
13474TIP3   OH261836   2.751   5.344  16.794 -0.0409  0.1861  0.1091
13474TIP3    H161837   2.769   5.386  16.878 -0.2900  2.2839 -0.8117
13474TIP3    H261838   2.661   5.370  16.774 -0.1837 -0.7755 -0.5620
13475TIP3   OH261839   2.747   0.610  13.726 -0.3381 -0.4000 -0.7125
13475TIP3    H161840   2.780   0.569  13.646 -1.1132 -2.1932 -0.1671
13475TIP3    H261841   2.705   0.691  13.696  1.0299 -0.0808 -1.8642
13476TIP3   OH261842   5.059   2.922   0.964 -0.2444 -0.0636 -0.2231
13476TIP3    H161843   5.131   2.920   0.901 -0.3037  0.6495 -0.3150
13476TIP3    H261844   5.060   2.835   1.003  0.5030 -0.1457 -0.4085
13477TIP3   OH261845   3.805   1.016  11.236  0.3103 -0.1296 -0.5116
13477TIP3    H161846   3.732   1.079  11.237  0.1377 -0.3168 -0.8890
13477TIP3    H261847   3.793   0.968  11.154 -0.2942 -1.5118  0.3509
13478TIP3   OH261848   5.481   4.945  13.757 -0.0664  0.4713  0.0657
13478TIP3    H161849   5.423   4.870  13.760  0.9014 -0.2813  2.4426
13478TIP3    H261850   5.505   4.954  13.665 -0.9879 -1.4904 -0.4027
13479TIP3   OH261851   5.144   3.507  11.488 -0.5959  0.0543  0.3485
13479TIP3    H161852   5.111   3.594  11.469 -2.1252 -0.7404 -0.8944
13479TIP3    H261853   5.234   3.508  11.456 -0.8162  0.9857 -0.2939
13480TIP3   OH261854   4.208   5.620  13.398 -0.3405  0.7844  0.5490
13480TIP3    H161855   4.292   5.631  13.441  0.4607  0.1816 -0.8000
13480TIP3    H261856   4.146   5.606  13.469  0.8277  0.4134  1.5228
13481TIP3   OH261857   0.441   4.120   6.093 -0.3350 -0.2271  0.0163
13481TIP3    H161858   0.404   4.118   6.005  0.3470  3.9146 -0.5761
13481TIP3    H261859   0.375   4.164   6.147  0.2781 -0.4397  0.9744
13482TIP3   OH261860   0.719   1.056   2.725 -0.1446 -0.3133 -0.3333
13482TIP3    H161861   0.674   0.995   2.783  1.0714 -1.1757 -0.2723
13482TIP3    H261862   0.791   1.006   2.688 -0.0993  0.6060 -1.5772
13483TIP3   OH261863   6.290   5.765  12.214 -0.2579  0.0011 -0.2500
13483TIP3    H161864   6.266   5.772  12.306  0.0624  1.4129 -0.2531
13483TIP3    H261865   6.274   5.673  12.192  1.2190 -0.7868  1.6551
13484TIP3   OH261866   2.688   4.931  12.539  0.1093 -0.0290 -0.2648
13484TIP3    H161867   2.661   4.989  12.610  2.5549 -0.0899  0.8395
13484TIP3    H261868   2.708   4.990  12.467  1.5726  0.4837  0.5087
13485TIP3   OH261869   5.652   6.379  12.551 -0.4022 -0.2858 -0.0885
13485TIP3    H161870   5.568   6.347  12.583 -0.1094 -0.0336  0.9864
13485TIP3    H261871   5.633   6.466  12.517 -0.8187 -0.7698 -1.1218
13486TIP3   OH261872   3.220   1.181  12.149  0.9169 -0.1051  0.0312
13486TIP3    H161873   3.197   1.250  12.211  1.2606 -0.1206  0.1818
13486TIP3    H261874   3.278   1.123  12.199 -0.2941 -1.1539  0.2781
13487TIP3   OH261875   3.794   4.908  11.947 -0.6278 -0.6485 -0.3526
13487TIP3    H161876   3.839   4.841  11.896  0.1922  0.5037 -1.1771
13487TIP3    H261877   3.767   4.973  11.883 -1.3431 -0.1361  0.4487
13488TIP3   OH261878   5.939   4.352   0.194  0.0058 -0.9661 -0.3187
13488TIP3    H161879   5.859   4.328   0.147 -0.2691  1.6958 -1.3632
13488TIP3    H261880   6.009   4.328   0.133 -0.2101 -0.0328 -0.9530
13489TIP3   OH261881   0.238   3.200   1.301  0.3406 -0.6140 -0.0481
13489TIP3    H161882   0.292   3.196   1.380  1.8594 -0.6543 -1.0339
13489TIP3    H261883   0.229   3.293   1.282 -0.0611 -0.6033  0.2082
13490TIP3   OH261884   1.058   2.114   5.299 -0.6795 -0.2734  0.1460
13490TIP3    H161885   1.085   2.200   5.265  0.1401  0.4873  2.4698
13490TIP3    H261886   1.128   2.055   5.271 -1.2814 -0.2300 -1.5300
13491TIP3   OH261887   0.168   2.815   4.997 -0.3665  0.2027 -0.4157
13491TIP3    H161888   0.175   2.734   4.945 -2.3375 -1.2620  1.4265
13491TIP3    H261889   0.114   2.873   4.944 -1.2082 -0.7427 -0.6190
13492TIP3   OH261890   1.509   4.615  13.691 -0.2407 -0.4172  0.0457
13492TIP3    H161891   1.567   4.604  13.766 -0.7554 -1.1619  0.3423
13492TIP3    H261892   1.455   4.691  13.713  1.4302  1.0632 -0.7731
13493TIP3   OH261893   1.932   3.904   1.940  0.3154  0.3930 -0.4633
13493TIP3    H161894   1.860   3.848   1.967 -0.0720 -0.0094 -2.2249
13493TIP3    H261895   1.892   3.991   1.929 -0.1211  0.0031 -2.2196
13494TIP3   OH261896   5.588   5.233   6.269 -0.4090 -0.2764 -0.2938
13494TIP3    H161897   5.532   5.160   6.296 -0.2705  0.3751  1.9491
13494TIP3    H261898   5.655   5.238   6.336 -1.6800  3.2827  0.9424
13495TIP3   OH261899   6.191   6.409  13.846  0.3941 -0.1285  0.4204
13495TIP3    H161900   6.155   6.341  13.904 -0.8379  0.5011  0.4255
13495TIP3    H261901   6.115   6.444  13.800  0.8657  1.9139  1.1139
13496TIP3   OH261902   3.779   1.125  15.723  1.0048 -0.2558  0.6414
13496TIP3    H161903   3.804   1.035  15.745  0.5717 -0.8792 -1.2125
13496TIP3    H261904   3.859   1.165  15.688  0.5239 -0.9213 -1.3549
13497TIP3   OH261905   0.630   0.234  13.267 -0.3396 -0.1470 -0.0299
13497TIP3    H161906   0.701   0.289  13.299 -0.5763  0.9291 -1.2167
13497TIP3    H261907   0.560   0.246  13.331  0.3367 -0.7821  0.8534
13498TIP3   OH261908   2.362   0.799  12.367  0.1527 -0.4748  0.2347
13498TIP3    H161909   2.329   0.889  12.357  0.7869 -0.1217  1.1265
13498TIP3    H261910   2.381   0.770  12.278 -0.7371  0.0089 -0.1288
13499TIP3   OH261911   1.924   0.302   4.619 -0.2970  0.3324 -0.3233
13499TIP3    H161912   1.964   0.387   4.639  0.6434 -0.6480  2.4917
13499TIP3    H261913   1.978   0.239   4.666  0.5568 -2.2137 -4.2778
13500TIP3   OH261914   5.374   2.363   1.361 -0.2904  0.4969 -0.4991
13500TIP3    H161915   5.287   2.332   1.334 -0.5594 -0.3031  1.1831
13500TIP3    H261916   5.377   2.347   1.455  2.2051 -0.7994 -0.7172
13501TIP3   OH261917   5.101   2.694  14.737  0.0813  0.2903 -0.0864
13501TIP3    H161918   5.027   2.729  14.687 -0.9137  0.8040  1.6331
13501TIP3    H261919   5.085   2.600  14.741 -1.9686  0.6266  2.3626
13502TIP3   OH261920   0.257   5.165   0.469 -0.3113 -0.0542  0.0433
13502TIP3    H161921   0.264   5.160   0.565 -0.1511 -0.3902  0.0161
13502TIP3    H261922   0.180   5.111   0.449 -1.2611  1.2197  0.0997
13503TIP3   OH261923   0.961   3.503   4.332  0.3467  0.6676  0.7045
13503TIP3    H161924   1.024   3.454   4.386 -0.4565  1.2367  2.2246
13503TIP3    H261925   0.933   3.441   4.265 -0.4467 -0.9329  2.4184
13504TIP3   OH261926   4.182   2.308  14.793  0.3665  0.1360 -0.4337
13504TIP3    H161927   4.088   2.309  14.776 -0.1896  0.5203  2.2767
13504TIP3    H261928   4.204   2.399  14.814  0.7279 -0.4008  1.6974
13505TIP3   OH261929   3.842   1.374   1.093  0.5914 -0.2174  0.1079
13505TIP3    H161930   3.788   1.386   1.171  2.2625  0.4904  1.2218
13505TIP3    H261931   3.794   1.419   1.024 -0.8393 -0.6946  0.7434
13506TIP3   OH261932   1.849   3.845  15.716 -0.3620 -0.2607  0.1379
13506TIP3    H161933   1.876   3.774  15.658 -2.5991 -0.0895 -1.2047
13506TIP3    H261934   1.805   3.908  15.659 -0.3166  1.1978  1.6327
13507TIP3   OH261935   4.197   6.440  11.650  0.2815  0.1074 -0.4770
13507TIP3    H161936   4.104   6.431  11.670  0.7748 -2.0313  1.3071
13507TIP3    H261937   4.210   6.533  11.634 -2.2542  0.3748 -1.4320
13508TIP3   OH261938   6.575   0.555  11.885 -0.7190  0.1256 -0.5489
13508TIP3    H161939   6.537   0.474  11.851 -1.2031 -0.0935  0.4687
13508TIP3    H261940   6.501   0.614  11.897 -0.4764  0.4208 -0.4821
13509TIP3   OH261941   4.389   0.606  16.248 -0.0058  0.1999 -0.0191
13509TIP3    H161942   4.429   0.601  16.335  0.5034 -0.0987 -0.2678
13509TIP3    H261943   4.327   0.533  16.246  0.8720 -0.5564 -0.3482
13510TIP3   OH261944   3.757   6.448  11.494 -0.7001  0.3956  0.1427
13510TIP3    H161945   3.740   6.436  11.401 -0.5052  0.6411  0.0756
13510TIP3    H261946   3.706   6.525  11.518 -1.0279  0.1301  0.3194
13511TIP3   OH261947   1.159   1.693   5.492 -0.6785  0.2972  0.2432
13511TIP3    H161948   1.087   1.700   5.429 -0.8767 -2.7732  0.0012
13511TIP3    H261949   1.163   1.600   5.515  1.4777  0.7948  2.3478
13512TIP3   OH261950   2.772   6.164  16.096  0.7833 -0.2550 -0.0769
13512TIP3    H161951   2.734   6.247  16.070  0.4245  0.3527  2.1235
13512TIP3    H261952   2.866   6.176  16.087  0.6912  0.0719 -0.6164
13513TIP3   OH261953   6.665   0.934   2.415 -0.2441  0.3907 -0.7020
13513TIP3    H161954   6.725   0.861   2.424  0.2216  0.7744 -0.6891
13513TIP3    H261955   6.586   0.896   2.376 -1.0546 -0.6522  1.7413
13514TIP3   OH261956   6.120   0.945  16.568  0.1270  0.7650 -0.0625
13514TIP3    H161957   6.214   0.958  16.555  0.4642 -1.7191 -0.6119
13514TIP3    H261958   6.083   0.948  16.480  0.0663 -0.6370 -0.0946
13515TIP3   OH261959   4.286   4.584   5.692  0.0404 -0.0377 -0.0684
13515TIP3    H161960   4.337   4.503   5.681 -0.2476 -0.2146 -0.1106
13515TIP3    H261961   4.323   4.624   5.771  1.8412  1.0337 -1.3673
13516TIP3   OH261962   6.502   6.558   3.595 -0.0742 -0.4049  0.5189
13516TIP3    H161963   6.567   6.625   3.617 -0.6981 -0.2928  2.1698
13516TIP3    H261964   6.474   6.579   3.507  0.8066  0.6386  0.4746
13517TIP3   OH261965   4.413   4.786  13.433  0.4994 -0.0980  0.1836
13517TIP3    H161966   4.476   4.795  13.362  0.4402  0.0800  0.1538
13517TIP3    H261967   4.455   4.727  13.495 -0.1554 -1.6668 -0.8060
13518TIP3   OH261968   2.384   1.745  14.106 -0.1646  0.4699  0.5945
13518TIP3    H161969   2.400   1.839  14.098 -1.9474  0.6373 -2.6014
13518TIP3    H261970   2.292   1.739  14.130 -0.6589 -0.4051 -1.3652
13519TIP3   OH261971   3.191   1.896  17.298 -0.3624 -0.1372  0.0479
13519TIP3    H161972   3.096   1.900  17.284 -0.1635 -1.3119 -2.0275
13519TIP3    H261973   3.221   1.986  17.287 -0.8210 -0.2739 -3.1859
13520TIP3   OH261974   1.981   3.946   4.531  0.0279 -0.0986 -0.1867
13520TIP3    H161975   1.975   3.879   4.462  0.5484 -0.8854  0.5130
13520TIP3    H261976   1.961   3.899   4.612  2.1523  0.1703  0.5511
13521TIP3   OH261977   1.191   3.530  15.296 -0.2375  0.0655 -0.5725
13521TIP3    H161978   1.188   3.474  15.218 -0.3738 -2.3373  1.0376
13521TIP3    H261979   1.271   3.582  15.284 -0.1310 -0.4038 -2.2054
13522TIP3   OH261980   1.627   0.437  16.682 -0.0041 -0.1896 -0.3186
13522TIP3    H161981   1.612   0.352  16.641  0.4331 -0.5343  0.2332
13522TIP3    H261982   1.540   0.477  16.686 -0.8524 -2.0831  2.6744
13523TIP3   OH261983   2.811   0.597   1.177 -0.2430  0.2204  0.1520
13523TIP3    H161984   2.829   0.621   1.087  1.2966 -0.6642  0.1942
13523TIP3    H261985   2.752   0.522   1.170  1.5660 -1.2408 -0.2350
13524TIP3   OH261986   3.976   4.853  13.003 -0.2725  0.4758  0.1077
13524TIP3    H161987   4.068   4.840  13.026 -0.2077  0.6575 -0.0482
13524TIP3    H261988   3.975   4.935  12.954 -0.1886 -0.5655 -1.7791
13525TIP3   OH261989   2.959   6.058   5.156  0.0032 -0.1023  0.2609
13525TIP3    H161990   3.026   6.108   5.109  0.1403 -0.1062  0.4499
13525TIP3    H261991   2.986   5.967   5.147 -1.2469 -0.3146 -1.6643
13526TIP3   OH261992   2.119   3.258   5.484 -0.5270 -0.6943  0.1022
13526TIP3    H161993   2.188   3.261   5.551  0.7481 -1.8054 -1.0822
13526TIP3    H261994   2.058   3.192   5.516  2.0539 -4.1893 -1.4436
13527TIP3   OH261995   0.348   1.779  13.416 -0.0182  0.1200 -0.2073
13527TIP3    H161996   0.351   1.819  13.504 -0.0028 -1.7304  0.6708
13527TIP3    H261997   0.255   1.778  13.394  0.1059  2.5720 -1.2320
13528TIP3   OH261998   3.662   2.345   1.115 -0.9110  0.2149 -0.3240
13528TIP3    H161999   3.740   2.315   1.164 -0.4375  1.6556 -0.1607
13528TIP3    H262000   3.680   2.437   1.095 -2.7817  0.7112  0.1221
13529TIP3   OH262001   2.105   3.143   3.356  0.1293 -0.1773 -0.0198
13529TIP3    H162002   2.021   3.173   3.390  0.2905  0.0475  0.1786
13529TIP3    H262003   2.141   3.088   3.425 -0.3704 -1.2124 -0.5595
13530TIP3   OH262004   5.604   2.676  11.620  0.0868  0.5015  0.0108
13530TIP3    H162005   5.677   2.623  11.589  1.2863  2.5063 -0.7792
13530TIP3    H262006   5.624   2.765  11.591 -3.1999  1.0118 -1.1790
13531TIP3   OH262007   5.526   2.130  14.308  0.2377 -0.3588  0.4361
13531TIP3    H162008   5.537   2.220  14.337  0.2669 -0.1625 -0.1701
13531TIP3    H262009   5.435   2.124  14.279  0.3309 -0.4284  0.1528
13532TIP3   OH262010   4.441   1.551   6.384 -0.5262 -0.2817  0.9350
13532TIP3    H162011   4.525   1.512   6.360 -0.5884 -0.4065  0.9181
13532TIP3    H262012   4.420   1.610   6.311  0.1387  0.6965  1.5082
13533TIP3   OH262013   4.997   6.387   5.695 -0.1725 -0.3683  0.5381
13533TIP3    H162014   5.036   6.335   5.765  1.4153 -0.1488 -0.1426
13533TIP3    H262015   4.986   6.325   5.623  0.1812 -0.1316  0.2793
13534TIP3   OH262016   1.474   5.724  13.371  0.3121  0.3084 -0.3345
13534TIP3    H162017   1.428   5.746  13.452  1.4915 -1.0361  0.7415
13534TIP3    H262018   1.440   5.788  13.307 -0.7167  1.3438  1.1588
13535TIP3   OH262019   1.832   2.027   3.176 -0.2490 -0.0388  0.0831
13535TIP3    H162020   1.832   2.063   3.265 -0.5139  3.9628 -1.3410
13535TIP3    H262021   1.755   1.971   3.173 -0.7861  0.4887  2.1002
13536TIP3   OH262022   4.568   1.160  16.370 -0.3852 -0.0066 -0.1700
13536TIP3    H162023   4.525   1.190  16.450  0.6345 -0.9935  0.7850
13536TIP3    H262024   4.551   1.229  16.306 -0.6540  1.1296  1.0872
13537TIP3   OH262025   1.748   2.294   4.720  0.3907 -0.0247 -0.4818
13537TIP3    H162026   1.745   2.387   4.697 -1.7090 -0.5751 -2.8736
13537TIP3    H262027   1.685   2.284   4.792  0.6770  0.3984 -0.1704
13538TIP3   OH262028   5.930   4.626  12.354 -0.1994 -0.3387 -1.1625
13538TIP3    H162029   5.955   4.592  12.268  1.5092 -0.0227 -0.8353
13538TIP3    H262030   5.965   4.563  12.416 -0.3585  0.0472 -0.6712
13539TIP3   OH262031   3.638   1.895   3.163 -0.0318  0.3010 -0.8437
13539TIP3    H162032   3.579   1.969   3.175 -0.5563 -0.4000  1.3505
13539TIP3    H262033   3.720   1.934   3.131  0.8577  2.4049  3.4074
13540TIP3   OH262034   4.998   5.959   4.771  0.2680 -0.2504 -0.0304
13540TIP3    H162035   5.075   5.904   4.765  0.0377 -0.5318 -0.5068
13540TIP3    H262036   4.970   5.971   4.680  0.1142  0.3592  0.0941
13541TIP3   OH262037   4.752   6.044  16.402  0.1730 -0.9489  0.2663
13541TIP3    H162038   4.752   6.110  16.472 -2.1650 -2.8969  2.2923
13541TIP3    H262039   4.833   5.996  16.415  1.3945  0.7898 -0.5759
13542TIP3   OH262040   0.760   0.281  16.036 -0.4409 -0.0091  0.2533
13542TIP3    H162041   0.732   0.205  15.986 -1.5520  0.0766  0.6957
13542TIP3    H262042   0.695   0.348  16.014 -0.4120  0.3015  1.0945
13543TIP3   OH262043   1.592   1.133   3.919  0.9915  0.0745 -0.0745
13543TIP3    H162044   1.550   1.080   3.986 -0.4499 -1.3550 -1.9917
13543TIP3    H262045   1.683   1.103   3.918  0.2914 -2.1890 -0.8530
13544TIP3   OH262046   0.761   5.826   1.942 -0.9343  0.6116  0.3056
13544TIP3    H162047   0.768   5.783   1.856  0.0289  1.3248  0.0080
13544TIP3    H262048   0.678   5.874   1.938 -0.2362  1.7879 -0.7823
13545TIP3   OH262049   5.896   0.599  11.430 -0.0209  0.2967  0.5127
13545TIP3    H162050   5.901   0.584  11.524  0.1699  2.6783  0.9581
13545TIP3    H262051   5.803   0.615  11.413 -0.0277  0.0638  0.3223
13546TIP3   OH262052   3.183   0.210  12.968  0.9386 -0.5301 -0.2901
13546TIP3    H162053   3.143   0.280  12.917  1.2541  0.2230  0.4839
13546TIP3    H262054   3.277   0.228  12.964  0.9183 -0.0014  1.1970
13547TIP3   OH262055   2.437   0.718   0.907  0.9307 -0.5357 -0.5573
13547TIP3    H162056   2.351   0.723   0.947 -0.3011 -2.4445 -2.6782
13547TIP3    H262057   2.471   0.632   0.932  0.9031 -1.0179 -2.0449
13548TIP3   OH262058   5.684   4.180   2.412  0.0777 -0.1231  0.5742
13548TIP3    H162059   5.596   4.218   2.413 -0.1423 -0.5582 -0.5184
13548TIP3    H262060   5.670   4.088   2.393  0.8013 -0.0776 -0.2218
13549TIP3   OH262061   2.904   6.199   0.196  0.2608 -0.6619  0.7134
13549TIP3    H162062   2.933   6.290   0.184  1.3008 -0.9770  0.7121
13549TIP3    H262063   2.974   6.158   0.246  0.7089 -1.9385 -0.8859
13550TIP3   OH262064   4.296   0.540  14.932 -0.3097  0.0208 -0.3439
13550TIP3    H162065   4.234   0.516  14.863  0.3507 -0.2598 -0.8502
13550TIP3    H262066   4.260   0.621  14.968 -0.2504  0.6234 -1.5637
13551TIP3   OH262067   1.822   4.472   6.466  0.3522 -0.0538 -0.1904
13551TIP3    H162068   1.742   4.460   6.517  0.4210 -1.3537 -0.3465
13551TIP3    H262069   1.800   4.540   6.402  0.2685  1.6163  1.5245
13552TIP3   OH262070   1.537   6.087   1.779  0.4672 -0.4189  0.3202
13552TIP3    H162071   1.613   6.140   1.802  1.5987 -1.9436  0.2924
13552TIP3    H262072   1.469   6.113   1.841  0.9850  1.0124  0.3122
13553TIP3   OH262073   4.993   4.806   0.962 -0.1413  0.4904 -0.0696
13553TIP3    H162074   5.036   4.890   0.947 -0.8920  1.0905  0.9887
13553TIP3    H262075   4.901   4.829   0.976 -0.2026 -0.3909  1.1700
13554TIP3   OH262076   0.867   3.205   0.671  0.0259  0.2052 -0.2546
13554TIP3    H162077   0.813   3.220   0.749 -0.0112 -1.1673  0.0086
13554TIP3    H262078   0.950   3.172   0.706 -0.6276 -2.2181 -0.8288
13555TIP3   OH262079   4.102   0.276   3.870 -0.2565  0.0077 -0.5096
13555TIP3    H162080   4.191   0.307   3.857 -0.0732 -0.1372  0.3338
13555TIP3    H262081   4.106   0.222   3.950 -0.9888 -0.4283 -0.7505
13556TIP3   OH262082   1.507   1.000   4.143  0.3627  0.6243  0.3173
13556TIP3    H162083   1.555   1.024   4.222  1.0375 -1.4503  0.6023
13556TIP3    H262084   1.500   0.905   4.147 -1.9200  0.6705 -0.8168
13557TIP3   OH262085   1.074   3.794   2.895 -0.2347 -0.2941 -0.2938
13557TIP3    H162086   0.992   3.842   2.897  0.0292  0.2882  3.1556
13557TIP3    H262087   1.136   3.854   2.852 -1.4300 -0.6022 -2.5962
13558TIP3   OH262088   1.110   2.748   4.970  0.2244  0.5456  0.3740
13558TIP3    H162089   1.106   2.837   4.934 -0.1878  0.5278  0.3754
13558TIP3    H262090   1.200   2.740   5.003  1.0384  0.1244 -1.7722
13559TIP3   OH262091   3.128   2.523   0.852 -0.0153  0.2344  0.0728
13559TIP3    H162092   3.151   2.431   0.861 -0.4274  0.0136 -0.9438
13559TIP3    H262093   3.155   2.563   0.934  0.3556 -0.7531  0.4455
13560TIP3   OH262094   0.298   5.706  14.009 -0.0048 -0.2315 -0.6680
13560TIP3    H162095   0.273   5.694  14.100  1.0598  2.1370  0.0104
13560TIP3    H262096   0.238   5.772  13.976  0.7942  0.2798 -1.1195
13561TIP3   OH262097   4.009   4.935  16.296  0.5749 -0.5094  0.8572
13561TIP3    H162098   4.094   4.967  16.326  0.7889 -1.1782  0.9742
13561TIP3    H262099   4.001   4.848  16.334 -0.5491 -0.1136  1.5740
13562TIP3   OH262100   5.768   1.608  16.132  0.2075 -0.1636  0.2891
13562TIP3    H162101   5.758   1.536  16.195 -1.2845 -2.0027 -1.8894
13562TIP3    H262102   5.740   1.685  16.181 -1.3447 -1.5818  1.8137
13563TIP3   OH262103   1.976   1.139   3.450  0.6838  0.5212 -0.0534
13563TIP3    H162104   2.031   1.156   3.526 -0.8815  2.0955  0.8014
13563TIP3    H262105   1.891   1.115   3.486 -0.3096  2.0288 -1.2332
13564TIP3   OH262106   2.284   2.145  12.718 -0.1145 -0.4696 -0.3974
13564TIP3    H162107   2.325   2.145  12.631  0.3505 -3.1185 -0.2628
13564TIP3    H262108   2.280   2.052  12.742 -1.6935  0.0901  1.7460
13565TIP3   OH262109   2.420   1.283   4.940  0.6106  0.0564  0.2726
13565TIP3    H162110   2.366   1.347   4.893  1.9232  0.7011 -0.3941
13565TIP3    H262111   2.359   1.241   5.000 -0.3927  1.6359  0.4314
13566TIP3   OH262112   1.832   3.043   4.984 -0.2945  0.0095 -0.7866
13566TIP3    H162113   1.783   2.963   4.967  0.5220 -1.3222  2.3155
13566TIP3    H262114   1.904   3.041   4.921  0.4172 -2.4599 -0.0278
13567TIP3   OH262115   3.898   6.679  13.393 -0.5422  0.0687  0.0473
13567TIP3    H162116   3.849   6.597  13.396  0.0511 -0.3364 -1.0071
13567TIP3    H262117   3.836   6.746  13.422 -1.0307 -0.7422  0.9272
13568TIP3   OH262118   0.639   1.658  13.807 -0.3561  0.2311 -0.0278
13568TIP3    H162119   0.610   1.631  13.719 -0.8285 -0.7322  0.4053
13568TIP3    H262120   0.708   1.596  13.830  0.0344  0.7196  0.1287
13569TIP3   OH262121   1.670   1.533  16.712  0.2943 -0.6111 -1.0137
13569TIP3    H162122   1.756   1.546  16.752 -0.4707 -0.7227  0.7473
13569TIP3    H262123   1.655   1.439  16.718 -2.0495 -0.2236  3.5400
13570TIP3   OH262124   2.094   6.387  14.245 -0.1279  0.0461 -0.4244
13570TIP3    H162125   2.064   6.415  14.158 -0.7044 -0.7061 -0.4800
13570TIP3    H262126   2.145   6.461  14.278 -1.7573  1.2464 -0.4664
13571TIP3   OH262127   1.977   5.140  12.044  0.0796 -0.6833  0.0204
13571TIP3    H162128   1.950   5.064  12.095  0.9440 -1.4148 -0.5875
13571TIP3    H262129   1.930   5.213  12.084  1.3041 -1.0951  2.3551
13572TIP3   OH262130   5.730   1.521  15.305  0.1337 -0.4563 -0.1741
13572TIP3    H162131   5.823   1.507  15.320  0.6230  1.3401 -1.2705
13572TIP3    H262132   5.696   1.434  15.283  1.8013 -0.9365 -0.9727
13573TIP3   OH262133   5.565   1.426  11.241 -0.2485  0.6645  0.0985
13573TIP3    H162134   5.492   1.365  11.233 -0.3134  0.3764  2.3234
13573TIP3    H262135   5.562   1.456  11.332  1.2755  2.1029 -0.2641
13574TIP3   OH262136   6.143   4.695  15.480 -0.1384  0.7833  0.5824
13574TIP3    H162137   6.056   4.688  15.519 -0.8190  2.2571 -0.5813
13574TIP3    H262138   6.151   4.618  15.424 -0.0002 -0.2214  1.9245
13575TIP3   OH262139   1.948   6.717  11.769  0.1741 -0.1681 -0.0690
13575TIP3    H162140   1.941   6.774  11.692  1.2656  0.9103  0.6014
13575TIP3    H262141   1.871   6.660  11.763  0.5436 -0.5373 -2.2761
13576TIP3   OH262142   5.599   6.303  12.858  0.4843  0.4654  0.6274
13576TIP3    H162143   5.516   6.350  12.859  0.2451  0.1336 -1.0637
13576TIP3    H262144   5.581   6.223  12.809  1.4406 -0.3441  1.5331
13577TIP3   OH262145   1.346   6.693   3.027 -0.2322  0.0609  0.2704
13577TIP3    H162146   1.392   6.777   3.030 -0.5919  0.2436  0.6788
13577TIP3    H262147   1.260   6.711   3.063 -0.7591 -0.2089 -0.8029
13578TIP3   OH262148   0.536   5.006   0.033 -0.2869 -0.0154  0.4761
13578TIP3    H162149   0.597   5.053  -0.023  2.2905 -3.5626 -0.0285
13578TIP3    H262150   0.579   5.001   0.118 -0.4961 -1.3159  0.5352
13579TIP3   OH262151   5.726   1.519  14.054  0.3901  0.2701  0.3287
13579TIP3    H162152   5.739   1.564  14.138  0.7323  0.4356  0.1894
13579TIP3    H262153   5.799   1.457  14.049 -1.0669 -1.6789  1.3922
13580TIP3   OH262154   1.206   4.024  11.013 -0.1539 -0.5901 -0.2935
13580TIP3    H162155   1.182   3.952  10.955 -0.8563  0.0069 -0.7659
13580TIP3    H262156   1.127   4.041  11.065 -0.2552  0.3431 -0.7338
13581TIP3   OH262157   0.593   6.497   4.413  0.2518  0.1246 -0.3023
13581TIP3    H162158   0.628   6.478   4.326  2.4367 -0.1202  0.5761
13581TIP3    H262159   0.669   6.496   4.471 -1.1071  0.5013  1.5997
13582TIP3   OH262160   1.856   1.150  15.208  0.0634  0.6699 -0.0692
13582TIP3    H162161   1.792   1.142  15.138  0.0619 -0.5735  0.0510
13582TIP3    H262162   1.941   1.151  15.163  0.1554 -1.7015 -0.0594
13583TIP3   OH262163   1.396   3.517   5.226  0.2280  0.0162  0.9454
13583TIP3    H162164   1.306   3.520   5.193  0.2740 -1.9992  0.5210
13583TIP3    H262165   1.442   3.583   5.173 -0.7974  0.4496  0.5553
13584TIP3   OH262166   2.706   6.235  13.968 -0.9186  0.2792 -0.0774
13584TIP3    H162167   2.640   6.282  14.019 -1.0249  0.5444 -0.4481
13584TIP3    H262168   2.784   6.291  13.972 -0.8443  0.1691  0.0166
13585TIP3   OH262169   2.443   1.945   0.584 -0.5403 -0.3017  0.1304
13585TIP3    H162170   2.496   2.024   0.590 -1.3431  0.3219 -0.7054
13585TIP3    H262171   2.499   1.881   0.541 -0.0328 -0.0581  0.4273
13586TIP3   OH262172   3.392   2.424   4.884 -0.0865 -0.6147  0.5177
13586TIP3    H162173   3.415   2.331   4.881 -2.3330 -1.2645  1.6298
13586TIP3    H262174   3.443   2.459   4.958 -1.4873 -1.7061  2.0609
13587TIP3   OH262175   3.083   0.039   0.204  0.0300  0.2457  0.7511
13587TIP3    H162176   3.153   0.103   0.196 -0.1936  0.3357 -0.6870
13587TIP3    H262177   3.126  -0.039   0.240  0.4793  0.8765  1.6442
13588TIP3   OH262178   5.031   0.089  12.577  0.1493  0.0624  0.1752
13588TIP3    H162179   5.059   0.009  12.532  0.9160 -0.6295  1.8210
13588TIP3    H262180   4.968   0.059  12.643 -2.0657  1.2201 -1.2605
13589TIP3   OH262181   3.898   2.299   1.248  0.4097 -0.2535  0.4353
13589TIP3    H162182   3.971   2.337   1.297  0.7319  0.4011 -0.5098
13589TIP3    H262183   3.885   2.212   1.286  0.3891  0.3834  1.9133
13590TIP3   OH262184   5.152   4.634  13.443 -0.1256  0.5425 -0.2110
13590TIP3    H162185   5.174   4.690  13.369  0.5873 -0.8072 -1.0582
13590TIP3    H262186   5.077   4.582  13.413  0.0021  0.1702  0.0951
13591TIP3   OH262187   1.557   3.417   3.111  0.2176  0.4488 -0.2095
13591TIP3    H162188   1.521   3.505   3.096 -1.6684 -0.2241  0.0371
13591TIP3    H262189   1.634   3.413   3.054 -0.0581  2.0071 -0.7612
13592TIP3   OH262190   4.183   4.088  13.662  0.1832  0.1529  0.5136
13592TIP3    H162191   4.100   4.045  13.684  0.4098 -0.5039  0.0917
13592TIP3    H262192   4.219   4.116  13.746 -1.4266  2.2596  0.5864
13593TIP3   OH262193   0.823   6.307  14.142 -0.3055 -0.3232 -0.3678
13593TIP3    H162194   0.802   6.397  14.168 -1.9268 -0.7450 -0.0718
13593TIP3    H262195   0.884   6.316  14.069  0.5166  0.9794  0.4324
13594TIP3   OH262196   1.699   6.409   1.196 -0.0722  0.1933  0.0931
13594TIP3    H162197   1.696   6.318   1.165 -0.9349  0.8350 -1.8756
13594TIP3    H262198   1.774   6.447   1.152  1.5135 -0.0043  2.4467
13595TIP3   OH262199   3.744   1.959  16.496 -0.9000 -0.7323 -0.4656
13595TIP3    H162200   3.774   1.982  16.583 -0.0321 -0.2566 -0.8791
13595TIP3    H262201   3.731   1.864  16.498  0.6617 -0.9550 -0.2792
13596TIP3   OH262202   0.696   0.943  16.398  0.7998  0.0306 -0.3633
13596TIP3    H162203   0.611   0.987  16.394  0.2764 -1.0266 -1.5495
13596TIP3    H262204   0.715   0.936  16.491  0.6784  2.2768 -0.0953
13597TIP3   OH262205   6.191   0.657   2.232  0.5380  0.0802  0.2973
13597TIP3    H162206   6.238   0.581   2.266 -1.6741 -1.0577  0.9647
13597TIP3    H262207   6.114   0.666   2.289 -0.4960  1.3794 -1.2157
13598TIP3   OH262208   1.940   3.664   5.162  0.5965 -0.0696  0.0335
13598TIP3    H162209   1.934   3.579   5.205  0.5718 -0.4598 -0.7359
13598TIP3    H262210   1.880   3.720   5.212  0.9082 -0.3897  0.7877
13599TIP3   OH262211   1.942   6.615   2.838 -0.0790 -0.0509  0.0571
13599TIP3    H162212   1.971   6.638   2.927  1.1962 -0.6103 -0.1870
13599TIP3    H262213   2.018   6.634   2.783  0.4620 -3.0547 -0.3952
13600TIP3   OH262214   0.831   1.118  13.947 -0.2555 -0.4125 -0.0861
13600TIP3    H162215   0.817   1.023  13.940 -0.8400 -0.2542 -1.7344
13600TIP3    H262216   0.868   1.143  13.862  1.0452  0.6737  0.7613
13601TIP3   OH262217   2.815   5.818  11.155  0.6149 -0.1457  0.0344
13601TIP3    H162218   2.884   5.764  11.116  0.4577  0.7671 -1.6381
13601TIP3    H262219   2.825   5.904  11.113 -1.8215 -0.1156 -0.6539
13602TIP3   OH262220   3.473   4.631   2.379 -0.6294 -0.3745  0.2874
13602TIP3    H162221   3.471   4.709   2.434  0.2618 -0.4181  0.4065
13602TIP3    H262222   3.431   4.563   2.432 -0.5148 -0.2170  0.5836
13603TIP3   OH262223   5.738   2.546   5.509  0.2401  0.1590  1.1877
13603TIP3    H162224   5.695   2.592   5.437  0.8428 -0.7405  0.2257
13603TIP3    H262225   5.725   2.603   5.585 -0.7230  0.9557  0.4579
13604TIP3   OH262226   6.524   1.140   3.003  0.0671  0.2921 -0.9114
13604TIP3    H162227   6.542   1.085   3.079  1.3806 -0.9485 -2.0781
13604TIP3    H262228   6.430   1.128   2.986 -0.0246 -0.2048 -0.1061
13605TIP3   OH262229   1.911   1.042  16.519  0.4409 -0.1111  0.6179
13605TIP3    H162230   1.824   1.040  16.560  0.1040 -0.9563 -0.1120
13605TIP3    H262231   1.944   1.130  16.539 -1.3833  0.9574 -0.6995
13606TIP3   OH262232   3.681   3.072   0.196 -0.3765  0.0281 -0.2838
13606TIP3    H162233   3.608   3.010   0.206 -0.6285  0.1927 -1.0341
13606TIP3    H262234   3.708   3.091   0.286  0.3451 -1.9170 -0.0217
13607TIP3   OH262235   6.140   3.464  17.205 -0.5820 -0.4153 -0.1349
13607TIP3    H162236   6.202   3.391  17.209 -0.9648 -0.7314  0.0710
13607TIP3    H262237   6.194   3.542  17.214 -0.1154 -0.6524 -0.8370
13608TIP3   OH262238   4.140   3.013   0.996  0.1754 -0.2881 -0.2067
13608TIP3    H162239   4.129   3.010   1.091 -0.9169  0.6355 -0.2797
13608TIP3    H262240   4.097   2.934   0.963 -0.4191 -0.0525 -0.0036
13609TIP3   OH262241   0.147   0.149   2.597  0.1084  0.3017  0.6396
13609TIP3    H162242   0.145   0.092   2.519  1.3498  0.3283  0.5586
13609TIP3    H262243   0.116   0.093   2.668  2.3602 -0.9093  0.7814
13610TIP3   OH262244   5.271   1.531  17.191 -0.0344 -0.0566  0.0313
13610TIP3    H162245   5.224   1.502  17.113  1.6584 -0.8796 -0.7372
13610TIP3    H262246   5.285   1.451  17.242  1.3700 -0.0150 -0.2484
13611TIP3   OH262247   1.973   3.811   4.303  0.1116  0.4583  0.2408
13611TIP3    H162248   2.024   3.858   4.238 -0.8320 -0.0898 -0.9260
13611TIP3    H262249   1.951   3.728   4.262 -2.1089  0.8623  0.4912
13612TIP3   OH262250   5.354   1.911  11.492 -0.0691 -0.1475  0.2396
13612TIP3    H162251   5.262   1.892  11.512 -0.2487  1.0270  0.5562
13612TIP3    H262252   5.352   1.960  11.410  0.3606 -0.9149 -0.2527
13613TIP3   OH262253   1.380   5.533   2.094  0.1408 -0.1474 -0.2088
13613TIP3    H162254   1.332   5.591   2.153 -0.0568 -2.6235  2.2531
13613TIP3    H262255   1.371   5.574   2.008 -1.3092  2.5730  1.1139
13614TIP3   OH262256   3.100   0.333   4.580  0.2210 -0.1537  0.3613
13614TIP3    H162257   3.013   0.336   4.619 -0.0362 -0.7891 -0.1517
13614TIP3    H262258   3.149   0.271   4.635  0.8057  1.2601  1.5164
13615TIP3   OH262259   3.955   3.840   5.277  0.4010 -0.1066 -0.7636
13615TIP3    H162260   3.974   3.841   5.183 -0.4406  1.4911 -0.9404
13615TIP3    H262261   3.875   3.890   5.286 -0.7903 -2.1184  0.5978
13616TIP3   OH262262   0.770   3.628  17.104  0.0731 -0.3233  0.2860
13616TIP3    H162263   0.730   3.673  17.029 -1.4322 -3.1367 -0.7458
13616TIP3    H262264   0.702   3.631  17.172 -0.5130 -1.8877 -0.1820
13617TIP3   OH262265   2.356   0.530  12.732  0.5670  0.0625  0.5517
13617TIP3    H162266   2.264   0.508  12.721  0.7237 -1.9195  2.6237
13617TIP3    H262267   2.390   0.536  12.642 -1.1064 -1.3089 -0.2251
13618TIP3   OH262268   3.349   6.437   4.465 -0.1696 -0.3441 -0.3091
13618TIP3    H162269   3.408   6.507   4.494  0.6598 -1.7554  1.6994
13618TIP3    H262270   3.358   6.435   4.370  0.0597  1.9931 -0.3886
13619TIP3   OH262271   3.388   0.286   0.968 -0.6597 -0.5878 -0.1117
13619TIP3    H162272   3.478   0.320   0.969 -0.1516 -1.8297  1.4709
13619TIP3    H262273   3.396   0.198   0.931 -1.1205 -0.8773  0.4493
13620TIP3   OH262274   6.169   1.212  13.031  0.8288 -0.2742  0.1227
13620TIP3    H162275   6.162   1.151  12.957 -1.4354 -0.8049  0.6981
13620TIP3    H262276   6.097   1.274  13.018  0.4564 -0.3121  1.8215
13621TIP3   OH262277   1.235   1.605   3.379  0.0925 -0.4531  0.1780
13621TIP3    H162278   1.150   1.586   3.340 -0.3892  1.2787  0.2921
13621TIP3    H262279   1.237   1.551   3.458 -1.1088 -0.1816  0.4209
13622TIP3   OH262280   4.727   3.394  11.396 -0.1720 -0.2664  0.3276
13622TIP3    H162281   4.783   3.324  11.361 -2.9475 -1.5648 -1.9722
13622TIP3    H262282   4.658   3.348  11.443 -1.1593  0.9979  0.1695
13623TIP3   OH262283   1.491   1.264   6.261  0.4505  0.0978 -0.3634
13623TIP3    H162284   1.476   1.194   6.324  1.1136  0.9174  0.7547
13623TIP3    H262285   1.538   1.331   6.311 -1.1840  1.8650 -1.0307
13624TIP3   OH262286   6.498   2.228   4.316 -0.0065 -0.2273  0.1510
13624TIP3    H162287   6.571   2.286   4.340  0.6443 -0.6785 -0.6756
13624TIP3    H262288   6.537   2.141   4.314 -0.1441 -0.2899 -1.9281
13625TIP3   OH262289   4.687   3.313  16.604 -0.3550 -0.5357 -0.0191
13625TIP3    H162290   4.650   3.282  16.521 -0.7547 -1.2136  0.4032
13625TIP3    H262291   4.632   3.274  16.671  0.0080 -0.0485  0.5779
13626TIP3   OH262292   3.324   6.236   5.342 -0.1670 -0.4679  0.2791
13626TIP3    H162293   3.288   6.153   5.375 -1.8854 -0.1458 -0.6400
13626TIP3    H262294   3.317   6.228   5.246 -0.7007  0.8605  0.1863
13627TIP3   OH262295   3.146   4.696   4.941  0.1594 -0.5244  0.2993
13627TIP3    H162296   3.052   4.680   4.931  0.1946 -1.4933  1.3321
13627TIP3    H262297   3.162   4.774   4.888 -1.4504  0.3592  1.0430
13628TIP3   OH262298   0.229   0.206   4.160 -0.7711 -0.3739  0.1076
13628TIP3    H162299   0.179   0.215   4.242  1.5456 -0.0016  1.5718
13628TIP3    H262300   0.252   0.296   4.137  0.9201 -0.6444  0.6181
13629TIP3   OH262301   4.339   4.313   4.420 -0.2061  0.4269 -0.1495
13629TIP3    H162302   4.358   4.397   4.377 -0.9262  0.9408  0.5241
13629TIP3    H262303   4.426   4.274   4.434  0.0968  0.6991 -1.1620
13630TIP3   OH262304   5.056   2.573   4.433 -0.2659 -0.2646 -0.3931
13630TIP3    H162305   4.960   2.583   4.431 -0.4300 -1.7622 -1.4588
13630TIP3    H262306   5.070   2.479   4.425  1.3317  0.0339 -1.2957
13631TIP3   OH262307   5.204   1.013  14.962  0.1353 -0.5427  0.6095
13631TIP3    H162308   5.124   1.066  14.973  0.6469  0.3361  0.2644
13631TIP3    H262309   5.272   1.063  15.006  1.1661  0.4657 -1.8967
13632TIP3   OH262310   1.305   5.963   2.122 -0.2359  1.2988  0.9712
13632TIP3    H162311   1.273   5.905   2.191  0.3262 -0.2206  0.0008
13632TIP3    H262312   1.386   6.000   2.158 -0.0993  0.7495  1.2476
13633TIP3   OH262313   0.337   0.670   1.370 -0.4457 -0.4137 -0.1046
13633TIP3    H162314   0.280   0.645   1.297  1.4490 -2.9963 -0.8449
13633TIP3    H262315   0.316   0.607   1.440  1.7462 -1.7850 -0.5847
13634TIP3   OH262316   5.857   0.177  17.175  0.1382  0.1763 -0.1189
13634TIP3    H162317   5.898   0.227  17.105 -0.5555  2.9355  1.2868
13634TIP3    H262318   5.767   0.210  17.179 -0.0866 -0.5067  1.5073
13635TIP3   OH262319   0.749   0.462  16.909  0.3325  0.5994 -0.3637
13635TIP3    H162320   0.655   0.475  16.898  0.3488 -0.2524 -1.6987
13635TIP3    H262321   0.783   0.549  16.930 -0.8389  0.7709  1.0431
13636TIP3   OH262322   6.715   1.884  11.563 -0.1042  0.1988 -0.0744
13636TIP3    H162323   6.737   1.881  11.470 -0.6318  0.9402 -0.2296
13636TIP3    H262324   6.621   1.868  11.566 -0.4791  2.2228  0.1447
13637TIP3   OH262325   1.173   3.778  13.016 -0.3074 -0.3589  0.0981
13637TIP3    H162326   1.150   3.836  13.089  1.1646  0.5620 -0.1312
13637TIP3    H262327   1.130   3.818  12.940  2.1349  1.5530 -0.3902
13638TIP3   OH262328   4.893   4.168  17.079  0.3180  0.0161 -0.0663
13638TIP3    H162329   4.836   4.146  17.153  1.8866 -0.1441  1.1468
13638TIP3    H262330   4.866   4.108  17.009 -1.4350  0.4033  0.2147
13639TIP3   OH262331   6.149   3.363  13.640  0.4086  0.2791 -0.0244
13639TIP3    H162332   6.201   3.340  13.563  0.0895 -0.3411 -0.0636
13639TIP3    H262333   6.118   3.278  13.674  2.0087  0.3542  1.8356
13640TIP3   OH262334   0.066   0.171   3.892 -0.4727  0.4127 -0.3841
13640TIP3    H162335   0.106   0.140   3.974  0.4530 -2.5021 -1.8374
13640TIP3    H262336   0.140   0.203   3.840 -0.8238  0.6063 -0.7683
13641TIP3   OH262337   4.898   1.009   2.189  0.5811  0.2151  0.4389
13641TIP3    H162338   4.972   0.995   2.247  0.9412  3.3657  0.8940
13641TIP3    H262339   4.829   1.046   2.244 -0.8183 -1.1162 -0.3002
13642TIP3   OH262340   4.708   2.089   3.153 -0.4128 -0.0693 -0.3765
13642TIP3    H162341   4.778   2.090   3.087 -0.7031 -1.7111 -0.7410
13642TIP3    H262342   4.631   2.057   3.106 -0.7380 -0.8151  0.6347
13643TIP3   OH262343   0.007   0.576   0.279  0.1315  0.1504 -0.2383
13643TIP3    H162344  -0.076   0.575   0.327  0.0299  1.4333 -0.3749
13643TIP3    H262345   0.074   0.578   0.347  0.0731 -0.9065 -0.1268
13644TIP3   OH262346   5.097   2.091  16.772  0.5613  0.1282  0.3854
13644TIP3    H162347   5.179   2.067  16.815  0.5898  0.8829  0.7918
13644TIP3    H262348   5.029   2.049  16.825  0.6763 -0.2756  0.2101
13645TIP3   OH262349   1.050   5.653  16.475 -0.0975 -0.3371  0.3366
13645TIP3    H162350   1.097   5.731  16.444 -1.0002  0.0516 -0.0974
13645TIP3    H262351   0.998   5.626  16.399 -1.8094  0.2086  1.2683
13646TIP3   OH262352   0.395   4.981   3.201 -0.1905  0.3708 -0.0331
13646TIP3    H162353   0.379   4.912   3.136  0.6214 -0.2740  0.4344
13646TIP3    H262354   0.476   4.954   3.245  1.0550  2.4545 -0.9365
13647TIP3   OH262355   2.229   0.818   5.835  0.0505  0.1117 -0.1619
13647TIP3    H162356   2.184   0.744   5.794  0.9665 -0.4145 -0.2450
13647TIP3    H262357   2.279   0.858   5.764 -0.9003  1.1856 -0.2471
13648TIP3   OH262358   0.302   5.263  14.345 -0.0202 -0.5321 -0.3144
13648TIP3    H162359   0.213   5.286  14.374  0.1743 -0.7797  0.5234
13648TIP3    H262360   0.348   5.240  14.426  1.1260  0.6317 -0.5918
13649TIP3   OH262361   5.645   3.517  15.225 -0.0156  0.3579  0.8086
13649TIP3    H162362   5.575   3.514  15.159 -0.2577  1.4119  0.9978
13649TIP3    H262363   5.698   3.439  15.208 -0.5961  0.1424 -0.0522
13650TIP3   OH262364   3.122   4.741  12.064 -0.1981  0.3321  0.0557
13650TIP3    H162365   3.050   4.679  12.050  1.9563 -2.4975  0.7992
13650TIP3    H262366   3.082   4.812  12.116 -2.0185 -2.2235  2.4351
13651TIP3   OH262367   2.558   1.955  11.616 -0.6023  0.2648  0.2179
13651TIP3    H162368   2.622   2.011  11.572  0.9575 -0.1123  1.8710
13651TIP3    H262369   2.536   1.887  11.551  1.1240  0.0878 -0.2240
13652TIP3   OH262370   6.176   2.636   1.157  0.3313 -0.7542 -0.2571
13652TIP3    H162371   6.223   2.712   1.122 -1.0469 -1.3555 -3.8669
13652TIP3    H262372   6.244   2.570   1.169  0.9644 -0.4434 -1.8251
13653TIP3   OH262373   0.433   4.991  12.973 -0.2462  0.4179 -0.3111
13653TIP3    H162374   0.495   4.997  12.900  0.4630  0.8140  0.3088
13653TIP3    H262375   0.486   5.005  13.051 -0.9695 -0.1561  0.3015
13654TIP3   OH262376   6.599   5.700   3.592  0.5855 -0.1289  0.0744
13654TIP3    H162377   6.669   5.667   3.536  2.3636  0.8391  1.6029
13654TIP3    H262378   6.520   5.658   3.559  1.9687 -1.8340 -1.2787
13655TIP3   OH262379   1.646   1.358   2.895 -0.0079 -0.7058  0.5010
13655TIP3    H162380   1.583   1.419   2.935  0.0675 -0.0005 -0.4271
13655TIP3    H262381   1.724   1.365   2.950  0.5035  1.1252 -0.3892
13656TIP3   OH262382   4.420   0.100  12.358  0.1795  0.3028 -0.6389
13656TIP3    H162383   4.326   0.118  12.350 -0.1641  0.2662  2.1100
13656TIP3    H262384   4.432   0.015  12.317 -1.6258 -1.0566  1.3972
13657TIP3   OH262385   0.320   5.371  12.782 -0.0642  0.4342 -0.2497
13657TIP3    H162386   0.236   5.414  12.770  0.1252  0.8091 -0.2319
13657TIP3    H262387   0.298   5.285  12.820 -0.4500  0.4358 -0.4736
13658TIP3   OH262388   6.388   1.160   5.303  0.0529  0.0234 -0.3256
13658TIP3    H162389   6.414   1.069   5.287  0.3783  0.3330 -1.6051
13658TIP3    H262390   6.323   1.179   5.236 -0.0049  0.7407 -0.0748
13659TIP3   OH262391   2.725   6.288   1.268  0.0753  0.2770  0.7027
13659TIP3    H162392   2.726   6.265   1.175 -0.2230  1.9962  0.2319
13659TIP3    H262393   2.807   6.255   1.303  0.0700 -0.6173 -0.1158
13660TIP3   OH262394   5.526   3.442   4.697 -0.2413 -0.1833 -0.6962
13660TIP3    H162395   5.525   3.529   4.657 -1.2296  0.2812  0.2757
13660TIP3    H262396   5.454   3.395   4.655 -0.4648 -0.1277 -0.3763
13661TIP3   OH262397   6.608   1.609   3.462  0.2658  0.6851  0.2428
13661TIP3    H162398   6.544   1.568   3.519  0.8283  0.4253  0.6956
13661TIP3    H262399   6.653   1.535   3.420  0.1698  0.8666 -0.1840
13662TIP3   OH262400   0.560   2.767  14.367  0.1153  0.5999  0.1630
13662TIP3    H162401   0.497   2.703  14.398  1.5184 -0.9153  0.0272
13662TIP3    H262402   0.646   2.726  14.382  1.0651  2.3626 -0.1117
13663TIP3   OH262403   0.882   3.487   5.874 -0.2845 -0.3025 -0.4075
13663TIP3    H162404   0.940   3.561   5.855 -1.7453  0.6614 -1.3212
13663TIP3    H262405   0.857   3.454   5.788  1.8020 -3.1473 -0.0770
13664TIP3   OH262406   3.816   0.950  13.125 -0.0311 -0.1440 -0.6552
13664TIP3    H162407   3.885   0.943  13.059  1.6154 -2.1053  1.1294
13664TIP3    H262408   3.855   1.001  13.196  0.2358 -2.4876  1.0102
13665TIP3   OH262409   5.254   4.545  12.800 -0.2807  0.1928  0.5503
13665TIP3    H162410   5.315   4.613  12.772 -1.5839  0.8896 -0.7726
13665TIP3    H262411   5.205   4.584  12.872 -0.1909  0.2099  0.6015
13666TIP3   OH262412   3.249   3.252  14.843  0.1020 -0.5022  0.0876
13666TIP3    H162413   3.212   3.328  14.889 -0.8781 -0.8452 -0.1000
13666TIP3    H262414   3.332   3.284  14.808  0.0610  0.2647  0.6450
13667TIP3   OH262415   3.825   5.825   5.743  0.2909 -0.1259  0.2492
13667TIP3    H162416   3.778   5.824   5.659  0.1497 -0.2688  0.3313
13667TIP3    H262417   3.871   5.741   5.746  1.3740  0.4177 -0.3012
13668TIP3   OH262418   3.277   1.852   2.399  0.4668 -0.7219  0.2860
13668TIP3    H162419   3.241   1.906   2.329  1.2666  1.3458  1.3667
13668TIP3    H262420   3.351   1.807   2.359  0.0870 -0.6401 -0.5272
13669TIP3   OH262421   6.324   4.046  11.548  0.2756 -0.0867  0.1366
13669TIP3    H162422   6.413   4.010  11.555  1.2901  2.0957 -0.7729
13669TIP3    H262423   6.298   4.028  11.458 -0.1978 -0.6388  0.3749
13670TIP3   OH262424   5.298   0.157  16.948  0.0860 -0.6340 -0.5687
13670TIP3    H162425   5.317   0.158  17.042  0.3910  0.5206 -0.6286
13670TIP3    H262426   5.382   0.178  16.907 -0.2419 -0.2692 -1.0556
13671TIP3   OH262427   0.397   5.409   1.611 -0.2169 -0.2867 -0.0538
13671TIP3    H162428   0.421   5.437   1.522 -1.0538 -1.7532 -0.7785
13671TIP3    H262429   0.453   5.462   1.668  3.5066 -2.1512 -1.5664
13672TIP3   OH262430   0.564   6.449   0.793  0.1790 -0.1758 -0.3238
13672TIP3    H162431   0.590   6.533   0.831  2.7418 -1.2385  0.4815
13672TIP3    H262432   0.542   6.394   0.868 -2.8847  0.0655 -0.8938
13673TIP3   OH262433   1.868   3.128   2.909  0.1914  0.0645  0.2185
13673TIP3    H162434   1.901   3.081   2.833  1.4071 -0.0525  0.7863
13673TIP3    H262435   1.775   3.140   2.892 -0.3428 -3.0270  0.2649
13674TIP3   OH262436   3.975   5.124   2.076 -0.4937 -0.4041 -0.2329
13674TIP3    H162437   3.941   5.063   2.142  0.3687  0.4832  1.0662
13674TIP3    H262438   3.898   5.172   2.046 -0.7313  0.1161  1.1349
13675TIP3   OH262439   2.838   1.029  15.489  0.2709 -0.3788 -0.1853
13675TIP3    H162440   2.869   1.017  15.578  0.0778 -2.1320 -0.3207
13675TIP3    H262441   2.872   0.954  15.441  0.5858  0.6560 -1.6716
13676TIP3   OH262442   2.481   6.299  14.113 -0.6373 -0.2959 -0.0742
13676TIP3    H162443   2.432   6.381  14.124  1.9488  1.3452  0.1867
13676TIP3    H262444   2.446   6.261  14.032 -1.3158  1.5282 -0.7037
13677TIP3   OH262445   2.811   6.758   4.884  0.0398  0.2359 -0.0319
13677TIP3    H162446   2.896   6.759   4.840  0.8844  0.7166  1.5301
13677TIP3    H262447   2.798   6.666   4.908  0.2523  0.2074 -0.0235
13678TIP3   OH262448   1.866   0.203  14.012  0.6575  0.2934  0.4414
13678TIP3    H162449   1.956   0.208  14.044  0.4588  3.2319  0.7976
13678TIP3    H262450   1.812   0.221  14.089 -0.3409 -1.7908  0.3157
13679TIP3   OH262451   3.641   1.974   4.637  0.7265 -0.3464  0.1415
13679TIP3    H162452   3.568   1.984   4.575 -0.5812 -0.2243  1.6433
13679TIP3    H262453   3.615   1.900   4.692  0.4844  1.2795  2.3260
13680TIP3   OH262454   3.361   5.919   2.501 -0.5437 -0.6197 -0.1319
13680TIP3    H162455   3.308   5.840   2.509 -0.4289 -0.6197  0.7721
13680TIP3    H262456   3.422   5.915   2.575 -0.3840  0.1930 -0.2027
13681TIP3   OH262457   5.918   1.355   5.404 -0.2921 -0.3798  0.0918
13681TIP3    H162458   5.857   1.428   5.414  0.0228 -0.1791  0.5389
13681TIP3    H262459   6.003   1.390   5.431 -0.1598 -0.9474  0.4252
13682TIP3   OH262460   4.501   0.681  12.057  0.3540  0.1109 -0.1182
13682TIP3    H162461   4.506   0.688  12.152  1.0364 -0.0798 -0.1340
13682TIP3    H262462   4.451   0.601  12.041 -2.7856  1.9007  0.0607
13683TIP3   OH262463   2.984   0.583  15.769 -0.1519 -0.7519 -0.2313
13683TIP3    H162464   3.030   0.504  15.741 -2.6345 -2.5717  0.4966
13683TIP3    H262465   2.986   0.640  15.693  1.5261 -1.5750 -0.8532
13684TIP3   OH262466   1.582   1.603   3.804  0.1407 -0.1964 -0.6112
13684TIP3    H162467   1.592   1.601   3.709  0.0469  0.6319 -0.6500
13684TIP3    H262468   1.603   1.694   3.828  1.1973 -0.6565  0.2810
13685TIP3   OH262469   0.039   1.149   2.587  0.7462 -0.0713 -0.7149
13685TIP3    H162470   0.010   1.083   2.523  2.2448  0.4839 -2.0390
13685TIP3    H262471  -0.011   1.129   2.666  1.8817 -3.4812 -0.6892
13686TIP3   OH262472   2.571   5.176   6.701 -0.1229  0.5199 -0.5173
13686TIP3    H162473   2.546   5.094   6.746 -0.8384  1.5777  1.1251
13686TIP3    H262474   2.666   5.181   6.711 -0.1581  0.2285  0.0246
13687TIP3   OH262475   6.095   0.963   0.122 -0.1237 -0.1817 -0.3951
13687TIP3    H162476   6.148   0.936   0.047  1.3530  0.5871  0.3215
13687TIP3    H262477   6.065   0.881   0.161  0.2098 -0.6217 -1.0534
13688TIP3   OH262478   3.889   0.048   1.245 -0.9951 -0.5253 -0.3892
13688TIP3    H162479   3.925   0.042   1.156 -0.6945  2.4971 -0.5659
13688TIP3    H262480   3.952  -0.001   1.299 -0.3375 -1.0787 -1.6146
13689TIP3   OH262481   1.255   4.719   5.048  0.1889  0.0705 -0.2954
13689TIP3    H162482   1.284   4.779   5.117  2.1881 -2.2434  1.0548
13689TIP3    H262483   1.313   4.643   5.057 -4.0302 -3.4605  0.1736
13690TIP3   OH262484   0.185   1.277   1.579  0.3865  0.2613  0.6496
13690TIP3    H162485   0.214   1.252   1.667 -2.9652 -1.5192  1.3991
13690TIP3    H262486   0.133   1.357   1.593 -2.1994 -1.3284  0.8267
13691TIP3   OH262487   5.435   0.715   1.187 -0.0628 -0.5759  0.7510
13691TIP3    H162488   5.468   0.683   1.272 -0.0576 -0.0784  0.9400
13691TIP3    H262489   5.497   0.681   1.123  1.8129  1.6920  1.2432
13692TIP3   OH262490   5.695   0.191   4.965  0.2080 -0.0093 -0.0736
13692TIP3    H162491   5.671   0.203   4.873 -0.4138  2.8695  0.3787
13692TIP3    H262492   5.612   0.194   5.012  0.6867  0.6868  0.7537
13693TIP3   OH262493   1.174   5.935   2.413 -0.2156  0.3559  0.7459
13693TIP3    H162494   1.176   6.028   2.391  3.3828  0.5425  1.3761
13693TIP3    H262495   1.138   5.932   2.502 -0.2708  1.1299  0.7561
13694TIP3   OH262496   1.739   2.925  10.612 -0.1721  0.2706 -0.3297
13694TIP3    H162497   1.770   3.005  10.568  0.8560  1.3078  2.1109
13694TIP3    H262498   1.804   2.909  10.681 -1.8683 -1.0771  1.0304
13695TIP3   OH262499   2.692   4.972  17.231 -0.7867 -0.0258  0.3626
13695TIP3    H162500   2.641   4.892  17.246 -1.8044  0.8698  1.9117
13695TIP3    H262501   2.655   5.010  17.152 -1.5003 -0.1781  0.6201
13696TIP3   OH262502   5.607   3.134  15.624  0.4014  0.1293 -0.4232
13696TIP3    H162503   5.634   3.206  15.682  1.1292 -0.8010  0.4241
13696TIP3    H262504   5.582   3.178  15.543  0.5142  1.3723  0.1836
13697TIP3   OH262505   0.317   2.180   6.546  0.4516  0.1084  0.4259
13697TIP3    H162506   0.249   2.163   6.481  3.1067  2.6168 -3.4739
13697TIP3    H262507   0.375   2.104   6.540  0.5506  0.2117  0.0707
13698TIP3   OH262508   3.657   3.030  13.366 -0.0975  0.3187  0.1978
13698TIP3    H162509   3.636   3.045  13.274  0.0720  2.6912  0.4905
13698TIP3    H262510   3.752   3.015  13.367 -0.2483 -0.7433 -0.0913
13699TIP3   OH262511   5.030   5.520  12.392 -0.4819  0.2521 -0.3395
13699TIP3    H162512   4.945   5.483  12.371 -1.0797  2.1669 -1.6149
13699TIP3    H262513   5.092   5.469  12.340 -0.7764 -1.3060  0.7754
13700TIP3   OH262514   5.729   5.816  11.358 -0.0185  0.3748 -0.2443
13700TIP3    H162515   5.661   5.799  11.294  1.9801 -1.2695 -2.1209
13700TIP3    H262516   5.714   5.752  11.427 -1.2758  1.1126  0.1895
13701TIP3   OH262517   0.785   2.167   2.142 -0.6574 -0.0285  0.7564
13701TIP3    H162518   0.755   2.083   2.178 -2.8216 -0.1253 -1.0795
13701TIP3    H262519   0.779   2.228   2.215 -0.1361 -1.2108  1.8275
13702TIP3   OH262520   6.007   6.731  15.783 -0.3364  0.1426 -0.4750
13702TIP3    H162521   5.984   6.741  15.876 -2.4100  1.2443 -1.0516
13702TIP3    H262522   5.987   6.639  15.764  1.6486 -0.5666  0.4875
13703TIP3   OH262523   3.813   2.232   3.094  0.1665  0.3194  0.8260
13703TIP3    H162524   3.867   2.161   3.058  0.3398  1.8499 -2.2882
13703TIP3    H262525   3.871   2.309   3.093 -0.4458  0.8660  2.7475
13704TIP3   OH262526   2.342   5.605  15.811 -0.0921 -0.2234 -0.3403
13704TIP3    H162527   2.343   5.598  15.907  1.4116  1.3234 -0.1869
13704TIP3    H262528   2.434   5.597  15.786 -0.1896  1.5321 -1.4344
13705TIP3   OH262529   3.932   6.135  17.265  0.1215 -0.5119 -0.1619
13705TIP3    H162530   3.936   6.040  17.274  0.3624 -0.4784  0.1066
13705TIP3    H262531   3.843   6.158  17.288  0.4039 -0.5448  1.0367
13706TIP3   OH262532   6.253   6.744   1.460 -0.3246  0.3939  0.0929
13706TIP3    H162533   6.244   6.685   1.534  0.3580 -2.3679 -1.8632
13706TIP3    H262534   6.168   6.788   1.453 -1.1759 -1.0283  1.1034
13707TIP3   OH262535   4.969   6.544  14.446  0.1113  0.5073  0.0238
13707TIP3    H162536   4.904   6.568  14.512  1.9220 -0.3346  2.2590
13707TIP3    H262537   4.956   6.450  14.433  0.0503  0.5852 -0.4904
13708TIP3   OH262538   4.960   0.520   1.909  0.3731  1.2407  0.0210
13708TIP3    H162539   5.000   0.578   1.974  1.3708  0.3840  0.1995
13708TIP3    H262540   5.010   0.536   1.829  2.8313 -1.5555  0.8211
13709TIP3   OH262541   6.148   5.710  14.303 -0.1735  0.1116 -0.4161
13709TIP3    H162542   6.120   5.764  14.377 -0.9510  0.0297 -0.6470
13709TIP3    H262543   6.243   5.705  14.313 -0.3974 -1.4423  1.6234
13710TIP3   OH262544   1.567   0.624   1.876 -0.3859 -0.7402 -0.2861
13710TIP3    H162545   1.530   0.695   1.929  0.5101 -0.5261  0.0754
13710TIP3    H262546   1.655   0.612   1.911  0.6230  0.0921 -2.3735
13711TIP3   OH262547   2.663   5.162   1.029  0.0421  0.1351  0.3724
13711TIP3    H162548   2.639   5.081   0.982 -0.5943  2.1937 -3.2172
13711TIP3    H262549   2.700   5.131   1.111 -2.2267 -3.7235  0.2067
13712TIP3   OH262550   3.337   3.350   2.391 -0.6240 -0.1912 -0.2441
13712TIP3    H162551   3.276   3.424   2.388  0.9228  1.0910 -1.3203
13712TIP3    H262552   3.403   3.369   2.325  1.3926 -1.1542  1.3546
13713TIP3   OH262553   1.933   2.599   3.768  0.3935 -0.5312 -0.0037
13713TIP3    H162554   1.903   2.510   3.747 -0.9661 -0.1472  0.2147
13713TIP3    H262555   1.855   2.653   3.755  0.8144  0.4160  1.3242
13714TIP3   OH262556   3.269   0.010  16.561  0.0093  0.7946  0.6376
13714TIP3    H162557   3.339   0.068  16.529  0.0239 -0.2907 -1.4935
13714TIP3    H262558   3.314  -0.050  16.620  0.4221  1.5276  1.0863
13715TIP3   OH262559   3.025   3.989  13.856 -0.0495  0.1416  0.3684
13715TIP3    H162560   2.966   3.979  13.931  1.0578 -0.2382  1.2257
13715TIP3    H262561   3.049   4.081  13.857  1.5062 -0.2241  1.7424
13716TIP3   OH262562   4.854   4.471  14.160 -0.2935  0.0496 -0.3799
13716TIP3    H162563   4.802   4.421  14.097  0.9718 -0.4454 -1.0471
13716TIP3    H262564   4.932   4.498  14.113 -0.0058  0.9447  0.5581
13717TIP3   OH262565   6.619   3.541  11.622 -0.1209  0.1344  0.0438
13717TIP3    H162566   6.530   3.546  11.586  0.2850  1.4156 -0.8703
13717TIP3    H262567   6.637   3.447  11.629 -0.0669 -0.2758 -3.6677
13718TIP3   OH262568   3.158   0.493  15.399  0.0748 -0.0097  0.0837
13718TIP3    H162569   3.141   0.399  15.407 -1.5430  0.3918  2.1068
13718TIP3    H262570   3.213   0.500  15.320  1.4969 -2.7670  0.6872
13719TIP3   OH262571   3.599   4.415   1.752  0.1182 -0.1872 -0.1820
13719TIP3    H162572   3.648   4.389   1.831  0.7956  0.5178 -0.3585
13719TIP3    H262573   3.642   4.495   1.723 -2.5015  1.7920  0.9349
13720TIP3   OH262574   5.137   0.905  12.540  0.0266 -0.1510  0.1556
13720TIP3    H162575   5.132   0.813  12.515  1.7559 -0.5560  1.1568
13720TIP3    H262576   5.067   0.917  12.605 -0.0325 -0.8115  0.2152
13721TIP3   OH262577   2.800   4.547   4.816 -0.1957  0.0523  0.1012
13721TIP3    H162578   2.795   4.642   4.825 -0.1170  0.1476 -0.7071
13721TIP3    H262579   2.710   4.516   4.832 -0.0554  0.1691  1.1884
13722TIP3   OH262580   4.450   1.904   1.530  0.1390 -0.1389 -0.4417
13722TIP3    H162581   4.473   1.963   1.602  3.8907 -0.3802 -1.2494
13722TIP3    H262582   4.486   1.819   1.557 -1.3289 -1.0473 -1.2189
13723TIP3   OH262583   2.001   5.084   3.661 -0.4051  0.0622 -0.3017
13723TIP3    H162584   1.959   5.006   3.698 -0.8424  0.4380  0.0043
13723TIP3    H262585   2.082   5.094   3.711 -0.3612 -0.1792 -0.3242
13724TIP3   OH262586   4.104   4.176  12.599 -0.5392 -0.6786  0.0815
13724TIP3    H162587   4.069   4.210  12.517  0.3671 -1.0620 -0.4821
13724TIP3    H262588   4.194   4.209  12.604 -1.1280  0.8194  1.8200
13725TIP3   OH262589   6.614   5.839  15.813  0.8427 -0.0822  1.2057
13725TIP3    H162590   6.589   5.747  15.800  1.9622 -0.3727  1.0581
13725TIP3    H262591   6.585   5.859  15.903 -1.3272  0.0902  0.5379
13726TIP3   OH262592   5.840   3.228   4.849 -0.4526  0.6509 -0.5098
13726TIP3    H162593   5.785   3.166   4.801  0.5195 -0.8631  0.2793
13726TIP3    H262594   5.875   3.286   4.781 -1.4480  0.4102 -1.2480
13727TIP3   OH262595   0.384   4.699   1.899  0.2332 -0.3812 -0.2134
13727TIP3    H162596   0.335   4.764   1.950 -0.2467 -2.2933  1.9261
13727TIP3    H262597   0.441   4.751   1.843 -1.1234  1.8808  0.3845
13728TIP3   OH262598   6.095   3.189  16.903  0.1495  0.1154  0.2146
13728TIP3    H162599   6.150   3.120  16.938 -0.3444 -0.6118 -0.4052
13728TIP3    H262600   6.144   3.225  16.829 -0.6150 -1.2827 -1.0525
13729TIP3   OH262601   6.078   5.776  13.755  0.5061 -0.2291 -0.5112
13729TIP3    H162602   5.991   5.807  13.780  0.5639  0.1418 -0.7654
13729TIP3    H262603   6.084   5.689  13.794 -0.9900 -1.3411 -2.6051
13730TIP3   OH262604   3.671   1.511  14.364 -0.4990 -0.2066  0.1061
13730TIP3    H162605   3.605   1.445  14.386 -0.8224  0.0789  0.0088
13730TIP3    H262606   3.746   1.490  14.419 -0.4563 -0.8854 -0.2002
13731TIP3   OH262607   0.050   2.355   0.984  0.4359  0.4109  0.1307
13731TIP3    H162608   0.085   2.266   0.987 -1.5794 -0.5375 -1.5086
13731TIP3    H262609  -0.010   2.360   1.059  0.9128  0.5858  0.5079
13732TIP3   OH262610   3.827   6.085  13.674 -0.5844 -0.1221  0.8088
13732TIP3    H162611   3.899   6.142  13.645 -0.6694 -0.3657  0.1085
13732TIP3    H262612   3.777   6.140  13.734 -0.2049  0.2776  0.7704
13733TIP3   OH262613   1.804   3.522  16.046 -0.1682 -0.1694  0.0883
13733TIP3    H162614   1.883   3.520  16.100  0.4590  1.5435 -0.6675
13733TIP3    H262615   1.836   3.548  15.960 -0.9986 -3.7570 -1.4703
13734TIP3   OH262616   5.681   5.172   3.708  0.0209  0.2908 -0.0409
13734TIP3    H162617   5.737   5.130   3.642 -0.4381 -1.2501  0.5004
13734TIP3    H262618   5.678   5.264   3.682  0.4037 -0.1475 -1.7684
13735TIP3   OH262619   2.602   0.289   5.563 -0.1123  0.1812  0.0826
13735TIP3    H162620   2.526   0.238   5.537  0.6364 -1.9174  1.6787
13735TIP3    H262621   2.669   0.269   5.497 -0.4334  0.6947 -0.3991
13736TIP3   OH262622   1.582   0.750   3.497 -0.0573 -0.3494 -0.4150
13736TIP3    H162623   1.634   0.671   3.487  0.1508 -0.1315 -1.1754
13736TIP3    H262624   1.515   0.728   3.562  1.7277 -0.2434  1.5802
13737TIP3   OH262625   5.005   3.770  14.051  0.2961  0.0042  0.0821
13737TIP3    H162626   4.982   3.683  14.084  0.8388 -0.8564 -1.7036
13737TIP3    H262627   4.922   3.807  14.019  0.3987 -0.7286 -1.0642
13738TIP3   OH262628   0.262   5.615   0.436 -0.3110 -0.2094  0.7381
13738TIP3    H162629   0.321   5.660   0.495 -0.3160 -1.3317  1.6273
13738TIP3    H262630   0.266   5.665   0.354  2.5241 -0.7330  0.4824
13739TIP3   OH262631   6.428   1.032  13.049 -0.7556  0.1224 -0.0345
13739TIP3    H162632   6.369   1.107  13.058 -0.7705 -0.0418  1.6604
13739TIP3    H262633   6.427   1.011  12.956 -0.2591  2.6038 -0.6818
13740TIP3   OH262634   6.386   0.359  14.003  0.2995 -0.4248 -0.0521
13740TIP3    H162635   6.292   0.350  13.988 -0.1324  0.4389  1.7946
13740TIP3    H262636   6.411   0.280  14.050  0.3904 -0.4260 -0.1027
13741TIP3   OH262637   0.848   3.131  11.238  0.2674 -0.3386 -0.1559
13741TIP3    H162638   0.900   3.177  11.172  2.7931 -3.1584 -0.3299
13741TIP3    H262639   0.837   3.043  11.203 -0.6729 -1.1504  2.0190
13742TIP3   OH262640   5.843   1.440   3.744  0.3858 -0.3454 -0.2827
13742TIP3    H162641   5.857   1.533   3.763  0.5340 -0.5245  0.5413
13742TIP3    H262642   5.885   1.426   3.660 -1.2236  0.7467 -1.3318
13743TIP3   OH262643   2.250   3.265   6.048  0.1146 -0.3378  0.2390
13743TIP3    H162644   2.267   3.355   6.076 -1.2892  0.4657 -1.3043
13743TIP3    H262645   2.202   3.226   6.121  1.7606 -0.2690  1.4241
13744TIP3   OH262646   4.539   3.895  15.440  0.2871 -0.0982  0.7168
13744TIP3    H162647   4.621   3.893  15.490 -0.3692 -0.6183  1.8049
13744TIP3    H262648   4.482   3.833  15.484  0.7565 -3.2742 -2.6322
13745TIP3   OH262649   4.695   5.262   0.487 -0.0963  0.3266  0.8351
13745TIP3    H162650   4.724   5.188   0.540 -0.1571  0.0012  0.4159
13745TIP3    H262651   4.754   5.263   0.412 -1.4031 -0.6136 -0.2517
13746TIP3   OH262652   1.046   6.220  12.724 -0.4422 -0.3244  0.0152
13746TIP3    H162653   1.090   6.204  12.640 -0.4951  1.3966 -0.3676
13746TIP3    H262654   1.117   6.229  12.787  0.0175  3.8378 -0.8315
13747TIP3   OH262655   4.785   4.714  14.776 -0.2061 -0.8289 -0.3901
13747TIP3    H162656   4.722   4.777  14.741  0.3623  0.0216  0.1000
13747TIP3    H262657   4.794   4.648  14.706 -0.5264 -0.1727 -1.0633
13748TIP3   OH262658   2.343   0.337  15.782  0.4884  0.0024 -0.9046
13748TIP3    H162659   2.399   0.282  15.727  0.2582 -1.7487  0.5133
13748TIP3    H262660   2.257   0.333  15.740  0.6089 -0.2211 -1.1305
13749TIP3   OH262661   5.170   4.668  12.219  0.2001 -0.3289  0.5130
13749TIP3    H162662   5.164   4.584  12.173 -2.8582 -0.9159  1.7551
13749TIP3    H262663   5.232   4.651  12.290  0.6556 -1.1067 -0.0508
13750TIP3   OH262664   0.769   4.436   4.329 -0.3293  0.0452 -0.2236
13750TIP3    H162665   0.679   4.418   4.302 -0.1594  1.2279 -1.6780
13750TIP3    H262666   0.800   4.502   4.267  0.6491  1.7092  1.9134
13751TIP3   OH262667   5.969   0.238   3.142  0.0215 -0.4598  0.1932
13751TIP3    H162668   5.931   0.151   3.134  0.3225 -0.5305 -0.5923
13751TIP3    H262669   5.937   0.271   3.226  0.1309 -1.4304  0.6272
13752TIP3   OH262670   0.530   2.982  10.603 -0.0235 -0.4618 -0.1882
13752TIP3    H162671   0.614   2.980  10.557 -0.4899  0.7268 -1.1461
13752TIP3    H262672   0.472   2.929  10.547 -0.5404  0.8209 -0.9151
13753TIP3   OH262673   5.830   3.973  14.747 -0.3520 -0.5498  0.7075
13753TIP3    H162674   5.788   4.004  14.827  0.2397 -0.0249  0.8221
13753TIP3    H262675   5.921   4.002  14.755  0.0785 -1.8020  0.5379
13754TIP3   OH262676   5.276   5.432   4.413  0.0875 -0.3804  0.5645
13754TIP3    H162677   5.272   5.353   4.467 -0.8051 -0.4107  0.4834
13754TIP3    H262678   5.311   5.401   4.329 -0.9240 -0.8580  0.2933
13755TIP3   OH262679   6.472   0.166   1.414 -0.4221 -0.4620 -0.3213
13755TIP3    H162680   6.411   0.094   1.431 -1.0410 -0.2627 -1.5820
13755TIP3    H262681   6.430   0.243   1.452 -0.1579 -0.5999  0.2725
13756TIP3   OH262682   3.871   6.091   3.358  0.6654 -0.2847 -0.1524
13756TIP3    H162683   3.921   6.044   3.424 -1.3495 -1.6611  0.4687
13756TIP3    H262684   3.927   6.164   3.333  2.4274 -1.0407  1.3982
13757TIP3   OH262685   6.546   2.180  10.867  0.3286  0.2569  0.1594
13757TIP3    H162686   6.495   2.243  10.816 -1.3502  0.6836  2.2165
13757TIP3    H262687   6.503   2.096  10.851  1.2697 -0.0441 -0.9268
13758TIP3   OH262688   2.951   0.870  14.345 -0.3040 -0.5669  0.4084
13758TIP3    H162689   2.991   0.954  14.322  0.0749 -0.2244  2.1898
13758TIP3    H262690   2.897   0.889  14.422  1.5905 -2.3564  2.3143
13759TIP3   OH262691   6.570   4.811   3.129 -0.3624  0.4959  0.3690
13759TIP3    H162692   6.497   4.755   3.101  0.2600 -0.0213 -0.2519
13759TIP3    H262693   6.624   4.821   3.051  0.8326 -0.0570  1.0921
13760TIP3   OH262694   6.521   1.514  12.484 -0.5852  0.7495 -0.0291
13760TIP3    H162695   6.509   1.598  12.527 -1.6131  0.1826  0.8138
13760TIP3    H262696   6.485   1.526  12.396  0.8628  1.6889 -0.5255
13761TIP3   OH262697   0.073   4.829   3.189  0.6547 -0.0372  0.0318
13761TIP3    H162698   0.109   4.882   3.260 -0.9755  1.3719 -0.1297
13761TIP3    H262699  -0.019   4.817   3.212 -0.0975  1.0237 -2.1223
13762TIP3   OH262700   1.632   4.870   5.151  0.3076 -0.1687  0.2705
13762TIP3    H162701   1.591   4.953   5.129  1.3295  0.4457  0.6193
13762TIP3    H262702   1.696   4.892   5.219  2.1124 -0.8642 -1.1437
13763TIP3   OH262703   2.867   6.190  16.599 -0.2931 -0.1205  0.2969
13763TIP3    H162704   2.812   6.175  16.675  0.0511 -0.8444  0.4125
13763TIP3    H262705   2.951   6.148  16.621 -0.4254 -1.0058 -0.7722
13764TIP3   OH262706   2.492   5.133  14.708 -0.7767 -0.2399 -0.2768
13764TIP3    H162707   2.537   5.124  14.793 -1.9631 -1.4543  0.2614
13764TIP3    H262708   2.428   5.062  14.708 -1.1361  0.0542 -2.0000
13765TIP3   OH262709   6.374   6.100   1.218 -0.4051  0.4256  0.3298
13765TIP3    H162710   6.448   6.040   1.213 -0.3830  0.5290 -0.7111
13765TIP3    H262711   6.370   6.126   1.311 -0.8258 -1.6609  0.9335
13766TIP3   OH262712   6.614   2.143   3.694  0.3670  0.4209  0.3019
13766TIP3    H162713   6.536   2.101   3.658  0.6701  0.4486 -0.3950
13766TIP3    H262714   6.684   2.078   3.683  1.1137  1.5003 -1.8944
13767TIP3   OH262715   5.539   2.613  13.841  0.0253 -0.4825  0.1759
13767TIP3    H162716   5.548   2.647  13.752  1.1130  0.1605  0.5120
13767TIP3    H262717   5.538   2.518  13.830  1.6178 -0.4666 -0.4302
13768TIP3   OH262718   6.278   6.224  14.880 -0.6126 -0.5853 -0.0699
13768TIP3    H162719   6.195   6.196  14.843 -0.3483  0.4830 -1.6124
13768TIP3    H262720   6.272   6.320  14.882  0.5107 -0.4959 -0.0865
13769TIP3   OH262721   0.992   1.586   3.255  0.0886 -0.3245 -0.7555
13769TIP3    H162722   0.948   1.612   3.174 -1.4082  1.0685  0.4304
13769TIP3    H262723   0.921   1.557   3.312  0.3769  3.0456  1.6190
13770TIP3   OH262724   2.572   2.301  13.468 -0.1354 -0.3629  0.0719
13770TIP3    H162725   2.534   2.388  13.481 -0.9070 -0.7771  0.5953
13770TIP3    H262726   2.649   2.300  13.525  0.2755  0.2189 -0.4583
13771TIP3   OH262727   3.761   6.525  17.314 -0.0841  0.5356 -0.3857
13771TIP3    H162728   3.687   6.585  17.311  0.7790  1.7749  1.3961
13771TIP3    H262729   3.816   6.558  17.385  0.2766 -2.5424  0.9190
13772TIP3   OH262730   6.227   3.335  15.136  0.9647  0.2269 -0.1778
13772TIP3    H162731   6.263   3.249  15.113  1.3890 -0.0199  1.3288
13772TIP3    H262732   6.142   3.337  15.092  2.1135  0.2228 -2.5825
13773TIP3   OH262733   1.410   0.307  14.805 -0.4302  0.3908 -0.2431
13773TIP3    H162734   1.454   0.383  14.765  0.0963 -0.0422 -0.4994
13773TIP3    H262735   1.430   0.315  14.898  3.5621 -1.8551 -0.6858
13774TIP3   OH262736   3.931   0.632   1.374 -0.1017 -0.5923 -0.3859
13774TIP3    H162737   4.002   0.676   1.329 -0.8717 -0.3614 -1.4052
13774TIP3    H262738   3.915   0.685   1.452  0.0410  0.0289 -0.7741
13775TIP3   OH262739   4.935   2.512   6.785 -0.3260  0.1935  0.0090
13775TIP3    H162740   4.930   2.573   6.858 -1.2685 -0.3266  0.4066
13775TIP3    H262741   4.865   2.448   6.802  0.4839 -0.8705 -0.4959
13776TIP3   OH262742   0.541   4.071   1.676 -0.5100 -0.1264  0.7397
13776TIP3    H162743   0.526   4.023   1.758 -0.0901  0.3662  1.1119
13776TIP3    H262744   0.636   4.081   1.672 -0.5615  0.2546  0.4205
13777TIP3   OH262745   6.237   5.210  14.986  0.5840  0.3663  0.5343
13777TIP3    H162746   6.148   5.208  14.952 -0.6101 -0.2727  3.3804
13777TIP3    H262747   6.288   5.160  14.924 -1.0395  0.7002 -1.1586
13778TIP3   OH262748   6.600   6.106   1.789 -0.1871  0.7566  0.2102
13778TIP3    H162749   6.674   6.119   1.850 -0.7128  1.1181  0.7814
13778TIP3    H262750   6.544   6.042   1.833  0.0420  0.0719 -0.4663
13779TIP3   OH262751   3.725   5.754   1.720 -0.0907  0.4648 -0.0572
13779TIP3    H162752   3.695   5.807   1.794 -1.6668  0.4800 -0.6682
13779TIP3    H262753   3.645   5.718   1.682  0.8342 -1.2149 -0.5306
13780TIP3   OH262754   3.612   3.046  12.350 -0.0960  0.0861 -0.1951
13780TIP3    H162755   3.540   2.996  12.309 -0.9332 -1.2014  2.6229
13780TIP3    H262756   3.575   3.133  12.365  0.7152  1.1054 -3.3080
13781TIP3   OH262757   4.674   5.648  14.436  0.0571 -0.0856  0.2920
13781TIP3    H162758   4.703   5.557  14.439  0.1281 -0.0457  1.2773
13781TIP3    H262759   4.726   5.687  14.366  0.7688 -0.5643  0.5367
13782TIP3   OH262760   5.144   1.788   2.659 -0.0790  0.4601 -0.0892
13782TIP3    H162761   5.066   1.761   2.707  1.3103  0.4108  2.3804
13782TIP3    H262762   5.112   1.829   2.580 -2.5501 -0.3280  0.4313
13783TIP3   OH262763   5.819   2.174  11.573  0.1374  0.4607  0.4598
13783TIP3    H162764   5.816   2.142  11.663 -1.0533  0.9462  0.6147
13783TIP3    H262765   5.736   2.221  11.561  0.1595  0.2027 -0.9647
13784TIP3   OH262766   4.164   5.496  13.129  0.3240 -0.3283  0.0977
13784TIP3    H162767   4.191   5.566  13.188 -0.8506 -1.6061  2.2930
13784TIP3    H262768   4.076   5.472  13.158  1.0754 -3.4055  0.1895
13785TIP3   OH262769   6.654   3.740   3.395 -0.0882 -0.1497 -1.0723
13785TIP3    H162770   6.573   3.789   3.404  0.5988  0.6797  1.7608
13785TIP3    H262771   6.663   3.694   3.479  3.7434  2.1443  0.0303
13786TIP3   OH262772   6.405   0.537   3.990  0.2619 -0.2364 -0.2305
13786TIP3    H162773   6.453   0.468   3.943  3.0872  0.7466  0.9760
13786TIP3    H262774   6.450   0.544   4.074 -0.9587  1.9974  0.3068
13787TIP3   OH262775   4.348   0.363   1.541  0.5670 -0.4185 -0.0286
13787TIP3    H162776   4.263   0.319   1.540  0.9611 -1.2819  1.6211
13787TIP3    H262777   4.341   0.428   1.470 -1.0741 -1.1544 -0.6120
13788TIP3   OH262778   5.215   4.070   1.250 -0.2481 -0.5548  0.0681
13788TIP3    H162779   5.204   4.092   1.158  1.3734 -0.6666 -0.1777
13788TIP3    H262780   5.233   4.153   1.293  0.1534 -0.6412  0.0771
13789TIP3   OH262781   2.760   1.840  16.996 -0.2223  0.6443  0.5561
13789TIP3    H162782   2.760   1.917  17.054  0.9850  1.3083 -0.2803
13789TIP3    H262783   2.698   1.862  16.926 -1.2230  0.0918  1.2405
13790TIP3   OH262784   0.099   4.918   4.054 -0.3557 -0.1251  0.6114
13790TIP3    H162785   0.065   4.947   3.970  0.0445  1.0095  0.8111
13790TIP3    H262786   0.174   4.862   4.032  1.4372  2.2870  0.1602
13791TIP3   OH262787   4.007   0.082  12.432  0.2849  0.0413 -0.5970
13791TIP3    H162788   4.073   0.037  12.485  1.8329  0.4830 -2.0491
13791TIP3    H262789   3.982   0.017  12.366  2.3439  1.0636 -2.5462
13792TIP3   OH262790   6.425   3.850  15.675  0.0430  0.1362  0.1505
13792TIP3    H162791   6.392   3.937  15.698 -0.0142  0.5187 -1.2850
13792TIP3    H262792   6.456   3.859  15.585  2.1853 -0.7423  0.7296
13793TIP3   OH262793   3.982   0.619  12.551  0.2612 -0.0411 -0.3456
13793TIP3    H162794   4.021   0.696  12.508 -1.2664  1.1231  0.2540
13793TIP3    H262795   3.913   0.591  12.492  0.1693 -0.3334 -0.0995
13794TIP3   OH262796   5.584   5.882   1.960 -0.0252 -0.2418  1.1744
13794TIP3    H162797   5.645   5.955   1.951 -0.2506 -0.1346  0.4810
13794TIP3    H262798   5.611   5.820   1.892 -0.8516 -0.0715  0.6744
13795TIP3   OH262799   4.298   1.188  12.364 -0.2748 -0.3868 -0.3435
13795TIP3    H162800   4.324   1.112  12.312  0.4449  0.0242 -0.5985
13795TIP3    H262801   4.380   1.236  12.379 -0.7618  0.5027 -0.4590
13796TIP3   OH262802   5.467   0.340  14.687  0.0040 -0.2793  0.3534
13796TIP3    H162803   5.528   0.347  14.759 -0.1171 -0.3769  0.4668
13796TIP3    H262804   5.499   0.401  14.621 -0.6898  0.8951  1.0639
13797TIP3   OH262805   0.272   5.921  13.211  0.0472 -0.4171 -0.1618
13797TIP3    H162806   0.233   6.005  13.236 -0.2280 -0.8167  0.7876
13797TIP3    H262807   0.364   5.930  13.238  0.3656  0.0980 -1.3596
13798TIP3   OH262808   2.500   3.468  15.525 -1.2387  0.8479  0.2174
13798TIP3    H162809   2.532   3.551  15.562 -2.7097  1.3343  0.4467
13798TIP3    H262810   2.508   3.480  15.430 -1.5814  1.3174  0.2439
13799TIP3   OH262811   4.146   6.356   4.664  0.0065 -0.2117 -0.4119
13799TIP3    H162812   4.135   6.374   4.757  1.1643  0.0215 -0.3047
13799TIP3    H262813   4.214   6.416   4.636 -0.9344  0.3393 -1.6216
13800TIP3   OH262814   5.954   3.575   4.565  0.1863  0.5844 -0.4588
13800TIP3    H162815   5.873   3.564   4.514 -1.0332  0.9918  1.3214
13800TIP3    H262816   5.969   3.490   4.606  1.5331  0.0584 -1.9198
13801TIP3   OH262817   3.148   2.300  12.266 -0.5036 -0.4399 -0.5823
13801TIP3    H162818   3.133   2.271  12.176  0.5771 -0.6292 -0.7185
13801TIP3    H262819   3.081   2.256  12.318  1.0016 -3.1851 -0.7960
13802TIP3   OH262820   1.444   6.559  15.576 -0.2761  0.1928 -0.0956
13802TIP3    H162821   1.489   6.636  15.611 -1.7191  0.7826  0.5251
13802TIP3    H262822   1.352   6.586  15.570 -0.6234 -1.1133 -0.9453
13803TIP3   OH262823   0.452   0.377  12.072  0.5696  0.0235 -0.3716
13803TIP3    H162824   0.388   0.397  12.003  1.6873  0.1858 -1.3916
13803TIP3    H262825   0.510   0.454  12.074  0.3373  0.2031  1.0401
13804TIP3   OH262826   4.640   4.571  12.290 -0.0712  0.5363  0.6944
13804TIP3    H162827   4.609   4.643  12.236 -0.8195 -0.7656 -0.7015
13804TIP3    H262828   4.580   4.567  12.364 -0.7442  0.5930  0.1510
13805TIP3   OH262829   2.642   4.376  12.836  0.4567  0.4468  0.0273
13805TIP3    H162830   2.607   4.334  12.758  2.9231 -1.7083 -0.0726
13805TIP3    H262831   2.658   4.466  12.810 -1.6300  0.5996 -0.9260
13806TIP3   OH262832   2.941   0.645   4.268  0.1312  0.1237 -0.0682
13806TIP3    H162833   2.909   0.626   4.180 -2.1421  0.4645  0.6111
13806TIP3    H262834   3.024   0.690   4.254 -0.4330  0.6629 -2.0696
13807TIP3   OH262835   3.447   4.725  14.064  0.2098  0.0579 -0.2556
13807TIP3    H162836   3.428   4.702  13.973 -1.0133 -0.0283 -0.0019
13807TIP3    H262837   3.496   4.651  14.098  1.0012  0.2532 -0.9381
13808TIP3   OH262838   3.076   5.617   1.250 -0.3213  0.1080 -0.5342
13808TIP3    H162839   3.105   5.682   1.314  1.6841 -0.3961 -0.8591
13808TIP3    H262840   3.009   5.566   1.296  1.6708 -0.8133  1.5598
13809TIP3   OH262841   2.352   4.376  14.310  1.0920  0.2975  0.3299
13809TIP3    H162842   2.264   4.340  14.298  0.6762  0.4589  2.4120
13809TIP3    H262843   2.356   4.450  14.250  0.5494 -0.8859 -1.2263
13810TIP3   OH262844   4.278   0.041   2.877  0.0414  0.0064  0.2649
13810TIP3    H162845   4.355   0.095   2.896  1.5546 -0.4726 -3.5368
13810TIP3    H262846   4.290  -0.037   2.931  0.5212  1.2614  2.0415
13811TIP3   OH262847   6.176   4.999  14.576  0.0089  0.0519  0.3100
13811TIP3    H162848   6.260   5.038  14.554 -0.5840  0.3807 -1.5324
13811TIP3    H262849   6.138   5.058  14.641 -0.2480  1.8141 -1.3591
13812TIP3   OH262850   4.171   5.600   1.368 -0.1393  0.1323 -0.5720
13812TIP3    H162851   4.153   5.640   1.282 -1.0151  2.5522  0.6399
13812TIP3    H262852   4.096   5.624   1.421  0.6562 -0.8316  1.0558
13813TIP3   OH262853   4.363   4.453   1.386  0.3363 -0.4454  0.0731
13813TIP3    H162854   4.306   4.376   1.381  0.2219 -0.2931 -1.5079
13813TIP3    H262855   4.303   4.527   1.395  0.4197 -0.4713  0.9520
13814TIP3   OH262856   6.139   1.959  10.563  0.3463  0.1172  0.5861
13814TIP3    H162857   6.191   2.036  10.541  0.6545 -0.2127  0.1243
13814TIP3    H262858   6.203   1.897  10.600  0.3340 -0.3671 -0.1709
13815TIP3   OH262859   1.029   4.690   5.942  0.9413 -0.0951 -0.5714
13815TIP3    H162860   1.120   4.666   5.925  0.8405 -0.4176 -0.6770
13815TIP3    H262861   1.030   4.786   5.948  1.3758 -0.1258 -0.0156
13816TIP3   OH262862   1.112   1.771  16.547 -0.5837  0.7110 -0.6587
13816TIP3    H162863   1.105   1.770  16.642 -0.9730  1.9657 -0.6582
13816TIP3    H262864   1.186   1.829  16.528  0.0405 -0.2051 -1.1123
13817TIP3   OH262865   2.307   1.962   4.784 -0.4150 -0.4717 -0.2060
13817TIP3    H162866   2.228   1.965   4.838  0.9481 -2.1723  2.0470
13817TIP3    H262867   2.329   2.054   4.769 -1.1190  0.0721  1.7854
13818TIP3   OH262868   5.266   2.802   0.512 -0.5019  0.5250  0.3509
13818TIP3    H162869   5.244   2.878   0.565 -1.1162  1.2055 -0.8419
13818TIP3    H262870   5.227   2.728   0.558  2.0229  0.5402  2.7493
13819TIP3   OH262871   2.257   1.936  13.240 -0.4779  0.0545  0.3035
13819TIP3    H162872   2.251   2.030  13.251  0.9793 -0.0469  2.5171
13819TIP3    H262873   2.351   1.918  13.234 -0.7375 -1.2446 -0.2830
13820TIP3   OH262874   4.864   2.334  12.910 -0.6020  0.1892 -0.7023
13820TIP3    H162875   4.912   2.353  12.829 -0.3571  1.2913 -0.3237
13820TIP3    H262876   4.928   2.352  12.980 -1.0646  0.0731 -0.2456
13821TIP3   OH262877   5.691   0.396  14.255 -0.2430 -0.9125 -0.1037
13821TIP3    H162878   5.605   0.401  14.213 -0.4931  0.2325  0.5218
13821TIP3    H262879   5.672   0.366  14.344 -0.2655  1.3626  0.7235
13822TIP3   OH262880   1.105   1.794  11.052 -0.1225  0.0344  0.4689
13822TIP3    H162881   1.136   1.818  10.965  0.9178 -0.6643  0.6353
13822TIP3    H262882   1.179   1.813  11.110 -0.9800  0.9909  1.2990
13823TIP3   OH262883   5.221   0.476   0.300 -0.2215  0.6138 -0.3651
13823TIP3    H162884   5.230   0.443   0.389  0.1555  0.2265 -0.5441
13823TIP3    H262885   5.132   0.511   0.296  0.5716  2.9530  0.9234
13824TIP3   OH262886   6.039   0.942   4.860 -0.5526 -0.1977 -0.2883
13824TIP3    H162887   6.096   0.890   4.917 -0.6352 -0.3705 -0.3644
13824TIP3    H262888   6.007   1.013   4.916  1.0676  0.8863 -0.6732
13825TIP3   OH262889   1.903   0.156  13.026  0.2319 -0.1048  0.1038
13825TIP3    H162890   1.932   0.075  12.983 -0.5961 -0.3027 -0.0977
13825TIP3    H262891   1.834   0.190  12.968  0.9631  1.0571 -0.1228
13826TIP3   OH262892   4.100   1.420   1.338  0.1644 -0.1322  0.0409
13826TIP3    H162893   4.173   1.479   1.356 -1.2123  1.8162 -0.4135
13826TIP3    H262894   4.121   1.382   1.252  0.9051 -0.0597  0.1842
13827TIP3   OH262895   0.293   1.495  14.552  0.3237 -0.0976  0.2916
13827TIP3    H162896   0.340   1.485  14.468  1.1810  1.4723  0.5339
13827TIP3    H262897   0.201   1.501  14.527  0.6449  1.4267 -0.6900
13828TIP3   OH262898   3.215   1.052   1.324  0.1685  0.5018  0.1666
13828TIP3    H162899   3.167   1.064   1.242  1.2389 -0.1514 -0.5836
13828TIP3    H262900   3.177   1.116   1.384  0.0301  1.6914 -1.1406
13829TIP3   OH262901   5.492   2.938  14.472 -0.4478  0.2186  0.2801
13829TIP3    H162902   5.398   2.956  14.477 -0.4556  0.4165 -0.4197
13829TIP3    H262903   5.497   2.842  14.466 -0.5336  0.1186  1.5185
13830TIP3   OH262904   5.955   3.522   1.086 -0.3986  0.4806  0.2194
13830TIP3    H162905   6.025   3.587   1.076  1.4234 -1.2636  0.7746
13830TIP3    H262906   5.961   3.469   1.006 -0.5964 -0.1091  0.5879
13831TIP3   OH262907   4.758   5.032   5.286 -0.2992 -0.0809 -0.2275
13831TIP3    H162908   4.721   5.008   5.371 -1.6842 -1.1442 -1.0893
13831TIP3    H262909   4.735   5.124   5.273  0.9536  0.4375  1.0474
13832TIP3   OH262910   4.642   4.555   3.140  0.4157  0.7091 -0.3005
13832TIP3    H162911   4.685   4.595   3.215  0.5626 -0.4436  0.2546
13832TIP3    H262912   4.650   4.461   3.155 -0.4177  0.4634 -1.2689
13833TIP3   OH262913   2.360   2.516   3.895  0.4877 -0.5261  0.6326
13833TIP3    H162914   2.400   2.434   3.924 -1.9298 -2.7359 -1.7218
13833TIP3    H262915   2.336   2.561   3.975  0.8873 -2.6485  2.0126
13834TIP3   OH262916   0.065   3.636   3.787 -0.5927 -0.0165 -0.0463
13834TIP3    H162917   0.028   3.687   3.859 -0.2407 -1.3178  1.0790
13834TIP3    H262918   0.088   3.552   3.826  0.8993 -0.2546 -1.3680
13835TIP3   OH262919   5.306   5.389   6.457  0.2304 -0.0740  0.6219
13835TIP3    H162920   5.303   5.459   6.392 -1.2096  1.2995  2.0682
13835TIP3    H262921   5.383   5.408   6.510  0.5030 -0.2603  0.2890
13836TIP3   OH262922   0.452   0.885   0.176  0.7629  1.0266  0.2525
13836TIP3    H162923   0.434   0.978   0.192  1.6431  1.0408  1.2937
13836TIP3    H262924   0.368   0.841   0.190  0.2705  1.6864 -0.5374
13837TIP3   OH262925   0.596   6.366  16.954  0.3810 -0.0768  0.2913
13837TIP3    H162926   0.512   6.401  16.985 -0.3375 -0.7660 -0.8300
13837TIP3    H262927   0.599   6.277  16.988  0.5726 -0.1271  0.1380
13838TIP3   OH262928   3.192   6.701  15.436  0.1847 -0.4468 -0.4419
13838TIP3    H162929   3.107   6.713  15.395  0.8884  1.2590 -1.5369
13838TIP3    H262930   3.225   6.618  15.401  0.3133  0.4470 -2.6053
13839TIP3   OH262931   6.248   6.562   6.066 -0.2893  0.7678 -0.3639
13839TIP3    H162932   6.177   6.616   6.030  0.2096  2.7723  1.4442
13839TIP3    H262933   6.204   6.500   6.124 -0.6357  1.4941  0.1614
13840TIP3   OH262934   2.546   2.968   2.954  0.1061 -0.5502 -0.2879
13840TIP3    H162935   2.617   2.952   2.891 -0.7537  0.9275 -1.6937
13840TIP3    H262936   2.469   2.983   2.900 -0.8303  0.0156  1.1573
13841TIP3   OH262937   4.884   1.131   5.087  0.3760 -0.5435  0.0643
13841TIP3    H162938   4.830   1.202   5.121  2.1739  0.5608  0.7102
13841TIP3    H262939   4.930   1.169   5.012 -0.2482 -1.6883 -0.9420
13842TIP3   OH262940   2.085   5.053  14.118 -0.3160 -0.3285 -0.1127
13842TIP3    H162941   2.122   4.965  14.126 -0.7949 -0.9025 -3.0448
13842TIP3    H262942   2.012   5.053  14.180 -0.2549 -1.9977  0.0180
13843TIP3   OH262943   4.246   1.800  11.686  0.4362  0.4413 -0.3795
13843TIP3    H162944   4.237   1.834  11.775 -2.9321  1.2801 -0.9034
13843TIP3    H262945   4.167   1.830  11.641  0.3973 -2.7025 -2.7422
13844TIP3   OH262946   6.257   3.401   1.685 -0.3559  0.1264 -0.1989
13844TIP3    H162947   6.202   3.323   1.698  0.0321 -0.2642 -0.8274
13844TIP3    H262948   6.267   3.407   1.590  1.0331 -0.0445 -0.0797
13845TIP3   OH262949   0.354   3.378   4.417  0.3341 -0.0152  0.2353
13845TIP3    H162950   0.263   3.359   4.441  0.1836  1.3597  0.8878
13845TIP3    H262951   0.360   3.353   4.325 -0.9106  0.4596 -0.0060
13846TIP3   OH262952   4.482   0.900  16.293  0.3156 -0.3659  0.2793
13846TIP3    H162953   4.495   0.867  16.382  1.1028 -0.9777 -0.0453
13846TIP3    H262954   4.505   0.993  16.299  1.5543 -0.6576  0.4810
13847TIP3   OH262955   6.609   2.376  13.925 -0.2453 -0.1868  0.5616
13847TIP3    H162956   6.588   2.386  13.832 -2.8167 -2.5207  0.7735
13847TIP3    H262957   6.599   2.464  13.962 -2.2592  0.2269 -0.8403
13848TIP3   OH262958   2.086   2.544   4.661 -0.0900  0.2549  0.1060
13848TIP3    H162959   2.014   2.601   4.688 -1.1941 -0.2361 -1.6216
13848TIP3    H262960   2.160   2.570   4.716 -1.0125  2.1951  0.4964
13849TIP3   OH262961   6.637   6.589   5.120 -0.7809  0.6596  0.6133
13849TIP3    H162962   6.637   6.593   5.024 -0.1731  0.3976  0.5968
13849TIP3    H262963   6.663   6.677   5.147 -2.0698  1.0667  0.5667
13850TIP3   OH262964   2.859   3.376   3.439 -0.2931  0.0334  0.4422
13850TIP3    H162965   2.849   3.444   3.372  1.5251 -0.4833 -0.4042
13850TIP3    H262966   2.901   3.303   3.394  1.8688  0.0107  2.3032
13851TIP3   OH262967   0.415   4.083   1.017  0.1560 -0.6004 -0.0081
13851TIP3    H162968   0.378   4.158   1.063 -1.4255 -0.8950 -0.7529
13851TIP3    H262969   0.379   4.088   0.929  4.7492  1.1844 -2.1416
13852TIP3   OH262970   2.192   2.418  16.956 -0.4329 -0.5752 -0.0618
13852TIP3    H162971   2.115   2.369  16.986 -0.4016 -1.8782 -1.8908
13852TIP3    H262972   2.266   2.361  16.976  0.2880  1.1740  2.7502
13853TIP3   OH262973   5.427   4.231   1.538  0.2433  1.0263  0.1035
13853TIP3    H162974   5.508   4.209   1.585  1.1553  3.7249 -0.0310
13853TIP3    H262975   5.369   4.267   1.606  0.2220  1.6466 -0.2367
13854TIP3   OH262976   3.805   2.796   3.404 -1.1420 -0.2194 -0.2698
13854TIP3    H162977   3.801   2.704   3.375  1.1807 -0.4711  0.0767
13854TIP3    H262978   3.814   2.790   3.499 -0.4598  0.3630 -0.3003
13855TIP3   OH262979   2.594   2.894  15.530  0.3010  0.2885 -0.0877
13855TIP3    H162980   2.517   2.872  15.582 -0.3300  0.0413 -1.0894
13855TIP3    H262981   2.589   2.835  15.454  0.4210  1.5680 -1.1292
13856TIP3   OH262982   6.224   2.591  11.658  0.0193  0.2152  0.3759
13856TIP3    H162983   6.215   2.584  11.753 -2.5179 -0.0728  0.1778
13856TIP3    H262984   6.288   2.523  11.635 -1.5431 -1.8138  1.6167
13857TIP3   OH262985   2.843   6.680  16.825  0.2465 -0.3203 -0.1775
13857TIP3    H162986   2.915   6.677  16.888 -0.2403 -1.4061  0.3474
13857TIP3    H262987   2.886   6.691  16.740  0.9408  0.4898  0.2633
13858TIP3   OH262988   4.101   1.402  13.829  0.1621 -0.3883 -0.2580
13858TIP3    H162989   4.162   1.333  13.800 -0.4084 -0.8659 -0.3430
13858TIP3    H262990   4.099   1.463  13.756  0.7395 -0.2314 -0.1498
13859TIP3   OH262991   5.540   3.669   3.718  0.4461  0.2587  0.1967
13859TIP3    H162992   5.458   3.712   3.741  0.1513 -0.8843  1.3988
13859TIP3    H262993   5.542   3.670   3.622 -0.7321  0.7377  0.1663
13860TIP3   OH262994   2.843   6.683  13.276  0.3410  0.6952 -0.0198
13860TIP3    H162995   2.773   6.628  13.239  0.9202  0.4147 -0.7232
13860TIP3    H262996   2.797   6.755  13.318 -0.5157 -0.8192  1.8438
13861TIP3   OH262997   2.405   2.698   0.013 -0.5345 -0.4648 -0.0148
13861TIP3    H162998   2.312   2.674   0.013 -0.4078 -1.0140  1.1678
13861TIP3    H262999   2.412   2.768  -0.053 -1.9952  0.3731  0.6694
13862TIP3   OH263000   5.084   2.310   4.889 -0.0313  0.1787  0.5256
13862TIP3    H163001   5.045   2.232   4.849  1.1102 -0.2425  0.1919
13862TIP3    H263002   5.132   2.352   4.818 -1.2130  1.6047  0.5325
13863TIP3   OH263003   1.576   3.295   1.122  0.0888  0.0539 -0.1381
13863TIP3    H163004   1.659   3.331   1.091  0.0382 -1.1892 -1.8717
13863TIP3    H263005   1.543   3.244   1.048 -1.6375 -0.4634  0.9314
13864TIP3   OH263006   4.337   4.645   0.671 -0.2000  0.0494  0.2214
13864TIP3    H163007   4.297   4.697   0.601  2.1833  0.6468 -0.8121
13864TIP3    H263008   4.380   4.573   0.624 -0.1140 -0.5925  1.2695
13865TIP3   OH263009   4.967   0.447  15.811 -0.1842 -0.3908 -0.5857
13865TIP3    H163010   4.884   0.472  15.850 -1.5761 -2.5568 -1.9365
13865TIP3    H263011   4.981   0.357  15.839  1.3366 -0.3121 -0.9969
13866TIP3   OH263012   5.616   1.902  11.588  0.0288  0.3083  0.2490
13866TIP3    H163013   5.539   1.910  11.531 -0.0461  0.7721  0.4081
13866TIP3    H263014   5.616   1.811  11.616  0.4404 -0.0973 -1.0175
13867TIP3   OH263015   0.391   5.675  10.652 -0.2291  0.2378  0.1113
13867TIP3    H163016   0.416   5.587  10.625 -0.3075  0.8647 -2.2191
13867TIP3    H263017   0.300   5.668  10.678 -0.7802 -0.1006 -1.7516
13868TIP3   OH263018   3.364   2.569   6.213 -0.0491 -0.1185 -0.1026
13868TIP3    H163019   3.342   2.477   6.198  0.3942 -0.4334  1.0415
13868TIP3    H263020   3.433   2.588   6.150  0.1487 -0.7031 -0.0690
13869TIP3   OH263021   0.330   1.815   3.251  0.5137 -0.1979 -0.2530
13869TIP3    H163022   0.291   1.731   3.274  2.3205 -1.0992 -0.2910
13869TIP3    H263023   0.301   1.875   3.321 -2.5197 -0.2413 -1.3392
13870TIP3   OH263024   3.974   5.490   1.153 -0.0676  0.4639 -0.9448
13870TIP3    H163025   3.935   5.436   1.084 -1.5744 -0.9953  0.9418
13870TIP3    H263026   3.928   5.574   1.147  0.5445  0.7226 -2.3275
13871TIP3   OH263027   3.650   1.557  12.251  0.0065 -0.0310 -0.1874
13871TIP3    H163028   3.656   1.516  12.337 -0.9281 -0.6904 -0.4220
13871TIP3    H263029   3.704   1.502  12.194 -0.2363 -0.2109 -0.2433
13872TIP3   OH263030   5.447   1.771  10.707  0.7874  0.4679 -0.2100
13872TIP3    H163031   5.518   1.834  10.695  2.9308 -1.3673  1.8959
13872TIP3    H263032   5.484   1.688  10.679 -1.1855 -0.2945 -0.7177
13873TIP3   OH263033   0.677   2.066  15.889 -0.2074  0.3156  0.1896
13873TIP3    H163034   0.726   1.985  15.873  0.2836  0.5968  0.2406
13873TIP3    H263035   0.729   2.112  15.955  0.6662  1.6645 -1.3776
13874TIP3   OH263036   0.472   3.446   4.631  0.0530  0.3654 -0.5453
13874TIP3    H163037   0.536   3.507   4.593  2.0694 -2.5239 -2.1317
13874TIP3    H263038   0.413   3.424   4.559 -0.7355  0.5047  0.0438
13875TIP3   OH263039   5.098   5.634   2.911  0.5164 -0.2222  0.5623
13875TIP3    H163040   5.088   5.540   2.926 -0.8338  0.0938  1.8208
13875TIP3    H263041   5.073   5.675   2.994 -1.7501  1.3648 -0.7829
13876TIP3   OH263042   1.948   5.934  16.257  0.2501 -0.0662 -0.4516
13876TIP3    H163043   2.038   5.960  16.277 -0.0539  0.2484  0.5864
13876TIP3    H263044   1.903   6.016  16.236 -0.3842  0.1426  1.5025
13877TIP3   OH263045   1.466   6.036   2.850  0.5594 -1.0792 -0.3937
13877TIP3    H163046   1.553   6.057   2.884 -0.2320 -0.4665  1.3639
13877TIP3    H263047   1.414   6.014   2.927 -1.7203  1.7312 -0.9324
13878TIP3   OH263048   2.794   2.079   3.428 -0.0841  0.6576  0.6379
13878TIP3    H163049   2.755   2.166   3.416  0.4668  0.7479 -0.6812
13878TIP3    H263050   2.889   2.095   3.430 -0.0017  0.1508  1.0201
13879TIP3   OH263051   2.037   3.336   2.688  0.3635 -0.6609 -0.7849
13879TIP3    H163052   2.085   3.303   2.611 -0.1592  1.6422 -2.1924
13879TIP3    H263053   1.964   3.386   2.651  0.8612  1.6682  1.1765
13880TIP3   OH263054   6.431   5.555  15.036  0.4533 -0.5920  0.0794
13880TIP3    H163055   6.483   5.630  15.065 -2.1435  0.8656  1.3384
13880TIP3    H263056   6.341   5.578  15.059 -0.6316 -3.5356 -0.7619
13881TIP3   OH263057   2.367   6.435  14.948 -0.0566  0.0065  0.2858
13881TIP3    H163058   2.462   6.422  14.950 -0.1599 -0.9872 -0.3694
13881TIP3    H263059   2.355   6.529  14.963  1.1051  0.4012 -1.0357
13882TIP3   OH263060   3.653   4.044  10.968 -0.1521  0.1753  0.1363
13882TIP3    H163061   3.688   4.132  10.956  0.2262 -0.0426 -0.3849
13882TIP3    H263062   3.558   4.054  10.955 -0.1874  0.6053  0.6811
13883TIP3   OH263063   5.511   6.694  11.987  0.5855  0.3359  0.3143
13883TIP3    H163064   5.597   6.654  11.977  0.0681 -0.6796 -0.3500
13883TIP3    H263065   5.479   6.661  12.071  0.3153 -0.3660 -0.0554
13884TIP3   OH263066   0.002   1.577  12.705 -0.1154 -0.6148 -0.3771
13884TIP3    H163067  -0.044   1.648  12.662  1.1746 -0.1552 -1.0439
13884TIP3    H263068   0.034   1.522  12.634  0.1171 -1.0805  0.0785
13885TIP3   OH263069   6.542   2.089   1.844 -0.0942 -0.0900 -0.1527
13885TIP3    H163070   6.531   2.175   1.804 -1.3896  0.1209  0.5865
13885TIP3    H263071   6.583   2.108   1.929 -1.6353 -0.0364  0.6030
13886TIP3   OH263072   0.030   1.527  14.485  0.4482  0.5899 -0.0342
13886TIP3    H163073   0.029   1.559  14.395 -0.4985 -0.8949 -0.5732
13886TIP3    H263074  -0.024   1.448  14.484  1.6721 -0.3417  1.4990
13887TIP3   OH263075   1.527   6.330   2.818  0.4369  0.4835 -0.0474
13887TIP3    H163076   1.553   6.246   2.781  0.4894  0.2997  0.4072
13887TIP3    H263077   1.593   6.349   2.884  1.3843  1.6824 -1.2660
13888TIP3   OH263078   3.743   6.524  14.675 -0.7682  0.3889  0.2502
13888TIP3    H163079   3.835   6.498  14.665 -0.1361  1.8236  1.8292
13888TIP3    H263080   3.706   6.457  14.732 -0.9673 -0.6684 -1.0730
13889TIP3   OH263081   3.285   1.856   5.568  0.3896  0.5633 -0.5325
13889TIP3    H163082   3.223   1.877   5.638 -2.1910  1.1232 -2.8285
13889TIP3    H263083   3.370   1.853   5.611 -1.1097  0.4416  2.6819
13890TIP3   OH263084   5.148   0.733  14.969  0.4354 -0.4615  0.5612
13890TIP3    H163085   5.218   0.796  14.985  0.1711  0.3208 -1.1397
13890TIP3    H263086   5.073   0.787  14.944 -0.0160 -1.4113 -0.2009
13891TIP3   OH263087   5.199   6.066  14.947  1.0194  0.3045  0.2334
13891TIP3    H163088   5.157   6.057  15.033  0.2709 -0.2821 -0.1850
13891TIP3    H263089   5.292   6.055  14.965  1.1795  2.6720  1.3476
13892TIP3   OH263090   4.046   2.952   1.477  0.8953 -0.2322 -0.2940
13892TIP3    H163091   4.046   2.959   1.572 -1.9983 -1.7209 -0.0812
13892TIP3    H263092   3.966   2.996   1.449  2.4897  1.6531 -2.2772
13893TIP3   OH263093   5.994   6.435   2.984 -0.1078  0.1777 -0.0423
13893TIP3    H163094   5.943   6.364   2.947  1.0489 -1.2522  0.9719
13893TIP3    H263095   5.968   6.438   3.076  1.6334 -0.6695  0.5325
13894TIP3   OH263096   3.825   5.653   0.867 -0.5934 -0.3384 -0.0669
13894TIP3    H163097   3.782   5.687   0.945  0.7988  0.0805  0.5492
13894TIP3    H263098   3.915   5.685   0.873 -0.5848  0.2198 -2.1434
13895TIP3   OH263099   0.599   0.568   0.323  0.4459  0.3193 -0.7358
13895TIP3    H163100   0.674   0.510   0.310  1.0973  1.0586 -0.3968
13895TIP3    H263101   0.613   0.639   0.260  0.5210  0.9237 -0.0520
13896TIP3   OH263102   1.903   5.778  16.772  0.1221 -1.7395  0.1113
13896TIP3    H163103   1.861   5.696  16.798 -2.0785 -0.4093  1.1283
13896TIP3    H263104   1.836   5.823  16.720  0.4856  0.2006  1.2198
13897TIP3   OH263105   5.982   1.413   5.817 -0.1445 -0.1390  0.3565
13897TIP3    H163106   6.036   1.432   5.894 -1.3542 -2.0051  1.7771
13897TIP3    H263107   5.991   1.490   5.761  2.4717  0.3920  1.3639
13898TIP3   OH263108   6.121   1.071   0.978 -0.1036  0.3383  0.5245
13898TIP3    H163109   6.200   1.088   1.029  0.1746  3.5548 -0.7685
13898TIP3    H263110   6.053   1.055   1.044  1.4113 -2.0473  1.6615
13899TIP3   OH263111   3.574   4.305   3.213  0.0854  0.7452 -0.0165
13899TIP3    H163112   3.654   4.329   3.167 -0.3674  1.0745 -0.6467
13899TIP3    H263113   3.520   4.384   3.211 -0.3778  0.4398  0.1280
13900TIP3   OH263114   0.305   2.296  11.266 -0.1615  0.3666  1.0393
13900TIP3    H163115   0.302   2.208  11.303 -1.3901  0.3150  0.8519
13900TIP3    H263116   0.356   2.287  11.186  0.2452 -0.0475  1.3406
13901TIP3   OH263117   3.358   0.978  16.454  0.2201  0.0458  0.0127
13901TIP3    H163118   3.270   1.006  16.427  0.9558  0.6959 -1.9440
13901TIP3    H263119   3.346   0.889  16.488 -1.6487  1.2950  3.0075
13902TIP3   OH263120   0.614   2.595   3.402 -0.6174 -0.2797 -0.3985
13902TIP3    H163121   0.671   2.616   3.476 -1.5444  0.6705  0.0858
13902TIP3    H263122   0.547   2.538   3.440 -0.4291 -0.7599 -0.7836
13903TIP3   OH263123   0.611   6.167  16.604 -0.2653 -0.4444 -0.3003
13903TIP3    H163124   0.548   6.100  16.580  0.1786 -0.9555 -0.0430
13903TIP3    H263125   0.603   6.175  16.699 -1.8555  1.4068 -0.5223
13904TIP3   OH263126   2.265   0.059  12.022  0.3300 -0.1084 -0.1213
13904TIP3    H163127   2.284  -0.016  11.966 -2.5923 -0.7537 -0.3701
13904TIP3    H263128   2.298   0.134  11.972  1.3047 -1.0067 -0.8765
13905TIP3   OH263129   3.118   3.152  12.341  0.5204 -0.1918  0.4422
13905TIP3    H163130   3.037   3.102  12.347  0.9248 -0.7134  2.1066
13905TIP3    H263131   3.120   3.205  12.420  2.3904 -1.1563  1.1274
13906TIP3   OH263132   3.604   2.520  14.939  0.6237 -0.1252  0.0507
13906TIP3    H163133   3.618   2.613  14.924  0.2598  0.1773  1.4432
13906TIP3    H263134   3.513   2.513  14.966  0.8355 -0.7832  0.6329
13907TIP3   OH263135   4.558   1.053  17.245  0.0710  0.4155  0.3934
13907TIP3    H163136   4.468   1.022  17.258 -0.1347  0.5066 -0.7255
13907TIP3    H263137   4.560   1.084  17.155  0.8321  1.7961  0.8611
13908TIP3   OH263138   6.241   2.997   3.647  0.0729  0.0180  0.4580
13908TIP3    H163139   6.312   2.943   3.611 -0.1733 -0.1105  0.1639
13908TIP3    H263140   6.162   2.962   3.607 -0.1002  0.5435  0.3380
13909TIP3   OH263141   5.740   1.660  10.401 -0.0998 -0.0274 -0.3227
13909TIP3    H163142   5.792   1.664  10.320 -0.5067  1.2019 -0.5525
13909TIP3    H263143   5.658   1.618  10.374 -0.4136  0.7872 -0.6666
13910TIP3   OH263144   6.171   4.704   4.351 -0.5146  0.5111  0.3191
13910TIP3    H163145   6.241   4.693   4.286 -1.6086  0.5335 -0.9042
13910TIP3    H263146   6.122   4.622   4.346 -0.8012  0.6487  0.8968
13911TIP3   OH263147   0.317   3.007  15.411 -0.2778  0.0495 -0.2029
13911TIP3    H163148   0.257   2.958  15.354 -2.2793  1.4080  0.5829
13911TIP3    H263149   0.263   3.030  15.487  2.2245 -1.4843  2.1829
13912TIP3   OH263150   1.093   2.921   4.431  0.0598 -0.6162 -0.1866
13912TIP3    H163151   1.046   2.875   4.362  0.6968  0.4788 -1.3758
13912TIP3    H263152   1.152   2.980   4.386  0.1557  0.4849  1.2937
13913TIP3   OH263153   3.094   3.469  17.050 -0.4261  0.1083  0.0369
13913TIP3    H163154   3.109   3.413  17.126  0.7986  0.2354 -0.0935
13913TIP3    H263155   3.031   3.534  17.080 -0.3498 -0.1530  0.7783
13914TIP3   OH263156   2.066   3.803   0.260  0.0984  0.2285  0.3340
13914TIP3    H163157   1.994   3.769   0.208  0.9045  0.7013 -1.1484
13914TIP3    H263158   2.033   3.884   0.298 -0.5081 -0.1307  0.5751
13915TIP3   OH263159   0.579   5.698  13.227  0.0621 -0.2777 -0.3998
13915TIP3    H163160   0.503   5.647  13.253 -0.1405 -0.8729 -2.0294
13915TIP3    H263161   0.551   5.789  13.236 -0.5592 -0.4810 -0.2270
13916TIP3   OH263162   5.147   6.432  15.672  0.5311 -0.3665  0.2024
13916TIP3    H163163   5.118   6.342  15.683 -0.0338 -0.2380 -0.1581
13916TIP3    H263164   5.110   6.479  15.746  1.0509 -0.4780  0.5369
13917TIP3   OH263165   2.805   6.185  12.797  0.0162  0.0945  0.2816
13917TIP3    H163166   2.852   6.113  12.838  0.0134  0.3352  0.7066
13917TIP3    H263167   2.797   6.252  12.865 -0.3525  0.3289  0.0169
13918TIP3   OH263168   6.739   3.723  14.767 -0.2747  0.4041  0.1305
13918TIP3    H163169   6.785   3.744  14.686  0.6311 -0.9961  0.2555
13918TIP3    H263170   6.675   3.656  14.742  0.6451 -0.7242  0.7095
13919TIP3   OH263171   3.779   2.772   5.558 -0.2792  0.0367 -0.3174
13919TIP3    H163172   3.772   2.714   5.633 -1.1702  1.5360  0.8194
13919TIP3    H263173   3.749   2.857   5.590  1.2919  1.2383 -1.8052
13920TIP3   OH263174   2.665   2.324  13.046 -0.2996 -0.5431  0.1771
13920TIP3    H163175   2.576   2.308  13.016 -1.1425  0.0005  2.1633
13920TIP3    H263176   2.712   2.354  12.969 -2.3625  1.0873 -0.5307
13921TIP3   OH263177   3.556   6.081   0.946  0.2747  0.3048 -0.6918
13921TIP3    H163178   3.507   6.006   0.978 -1.5328  1.0812 -1.5275
13921TIP3    H263179   3.520   6.098   0.859  1.2289  1.6257 -0.8588
13922TIP3   OH263180   5.921   1.352   2.928 -0.1560 -0.2582  0.0285
13922TIP3    H163181   5.997   1.360   2.870 -0.5676 -1.8601 -0.8196
13922TIP3    H263182   5.857   1.304   2.875 -1.3993  0.2128  1.0632
13923TIP3   OH263183   4.449   6.406  12.728  0.5308 -0.3573  0.4483
13923TIP3    H163184   4.423   6.376  12.641  0.2493  0.3284  0.2833
13923TIP3    H263185   4.543   6.390  12.732  1.1253  2.1608 -1.0968
13924TIP3   OH263186   3.821   0.746  16.192  0.3868  0.2429  0.2801
13924TIP3    H163187   3.907   0.731  16.153  1.4468  1.2315  2.0941
13924TIP3    H263188   3.765   0.772  16.118  1.4298 -1.1169 -1.0393
13925TIP3   OH263189   6.159   2.088   2.509 -0.0866 -0.2895 -0.5641
13925TIP3    H163190   6.150   2.053   2.598  0.1378  1.8097  0.3264
13925TIP3    H263191   6.069   2.100   2.478 -0.2687  2.1496  0.7321
13926TIP3   OH263192   2.827   6.737   0.172 -0.5219  0.1784  0.7354
13926TIP3    H163193   2.914   6.775   0.165 -0.1205 -0.2995  2.6373
13926TIP3    H263194   2.779   6.771   0.096  1.3738  0.2441 -0.4747
13927TIP3   OH263195   0.278   3.140  11.398 -0.3334  0.5771 -0.0171
13927TIP3    H163196   0.279   3.045  11.411 -1.4047  0.5655  0.0436
13927TIP3    H263197   0.212   3.155  11.330 -1.1705  1.3737  0.9277
13928TIP3   OH263198   1.975   1.644   0.379 -0.3946 -0.1439  0.6835
13928TIP3    H163199   1.959   1.679   0.292  0.5919  1.7165  1.1797
13928TIP3    H263200   1.909   1.576   0.391  0.9143 -2.1568 -2.3886
13929TIP3   OH263201   0.894   1.199  15.714 -0.3984  0.9751  0.0340
13929TIP3    H163202   0.946   1.150  15.651 -0.6584  2.5375 -1.4574
13929TIP3    H263203   0.837   1.134  15.754  1.8935 -0.6041  0.9615
13930TIP3   OH263204   1.186   0.001   5.161  0.0011 -0.4300 -0.0382
13930TIP3    H163205   1.211  -0.044   5.241 -1.1481  0.2866  0.7563
13930TIP3    H263206   1.178  -0.068   5.096 -0.5077 -1.2267  0.8446
13931TIP3   OH263207   1.550   0.965   6.037 -0.1409 -0.1986 -0.1755
13931TIP3    H163208   1.480   0.961   5.972 -1.1871 -3.0540  0.9482
13931TIP3    H263209   1.627   0.929   5.992  0.6085  2.5708 -1.2881
13932TIP3   OH263210   0.617   4.912   4.903 -0.1464 -0.6745 -0.2913
13932TIP3    H163211   0.537   4.915   4.850 -0.4194  0.8980  0.1450
13932TIP3    H263212   0.653   5.001   4.896  0.9303 -1.0368  0.4652
13933TIP3   OH263213   1.473   4.303  14.263  0.0846  0.2686 -0.0961
13933TIP3    H163214   1.430   4.386  14.286  0.5775  0.9639 -1.5481
13933TIP3    H263215   1.500   4.315  14.172  2.8716 -0.3256  0.5475
13934TIP3   OH263216   3.305   2.723  12.386 -0.4715 -0.1905  0.0361
13934TIP3    H163217   3.328   2.776  12.462  0.2125 -1.5447  0.8080
13934TIP3    H263218   3.367   2.750  12.318 -0.4774  0.3659  0.2455
13935TIP3   OH263219   1.387   1.344  16.262 -0.1303 -0.2436  0.3557
13935TIP3    H163220   1.357   1.308  16.179 -2.6460 -1.1549  1.5669
13935TIP3    H263221   1.309   1.345  16.317  1.4508  0.3429  2.7201
13936TIP3   OH263222   4.320   6.643   1.563  0.1822 -0.1221  0.1802
13936TIP3    H163223   4.302   6.579   1.633  1.5054 -0.3140  0.3748
13936TIP3    H263224   4.249   6.631   1.500 -0.1953 -1.0133  0.7610
13937TIP3   OH263225   4.994   0.440   3.120 -1.1717  0.1366  0.0740
13937TIP3    H163226   5.068   0.483   3.163 -1.4881  0.2053  0.5531
13937TIP3    H263227   4.941   0.406   3.191 -0.9583 -1.0209 -0.2983
13938TIP3   OH263228   2.616   2.434   5.037  0.5431 -0.0364 -0.6783
13938TIP3    H163229   2.683   2.437   4.969 -1.3009 -0.7277 -2.6461
13938TIP3    H263230   2.610   2.525   5.068  2.5502 -0.0158 -0.2055
13939TIP3   OH263231   2.129   5.492   6.410  0.1920  0.1082 -0.3644
13939TIP3    H163232   2.077   5.557   6.458 -0.0233 -0.0943 -0.3218
13939TIP3    H263233   2.217   5.499   6.448  0.5052  1.2848 -1.2496
13940TIP3   OH263234   3.899   4.115  13.071  0.1391 -0.0814  0.5406
13940TIP3    H163235   3.890   4.020  13.074  1.7807 -0.2473  2.3466
13940TIP3    H263236   3.985   4.129  13.030 -0.5192  0.6830 -0.6212
13941TIP3   OH263237   4.607   5.661   0.651  0.0494  0.3137 -0.0715
13941TIP3    H163238   4.583   5.589   0.593 -0.3276  0.5287 -0.1916
13941TIP3    H263239   4.541   5.659   0.720 -0.9906  1.5638 -0.9719
13942TIP3   OH263240   3.793   5.907  15.351  0.1980 -0.7131 -0.4823
13942TIP3    H163241   3.809   5.836  15.289 -1.4170 -0.8767 -0.7757
13942TIP3    H263242   3.816   5.987  15.303  0.0200 -0.9104 -0.8982
13943TIP3   OH263243   0.864   6.636   2.452  0.5703 -0.3870 -0.0861
13943TIP3    H163244   0.947   6.663   2.413  0.2641  1.1688  0.2765
13943TIP3    H263245   0.882   6.629   2.546  0.2579  0.0997  0.0123
13944TIP3   OH263246   6.277   6.193  16.352  0.3528  0.4047  0.3579
13944TIP3    H163247   6.365   6.176  16.318  0.3787 -0.9522  1.0367
13944TIP3    H263248   6.218   6.145  16.294  0.2867 -0.7353  1.3128
13945TIP3   OH263249   1.777   1.953  10.579  0.0957 -0.3782 -0.1633
13945TIP3    H163250   1.686   1.982  10.574  0.5451  1.2012  0.0547
13945TIP3    H263251   1.827   2.028  10.545  1.2528 -1.6387 -1.3370
13946TIP3   OH263252   0.458   6.654  17.221  0.3359 -0.7126  0.0310
13946TIP3    H163253   0.512   6.728  17.191 -0.6345 -0.8067 -2.1269
13946TIP3    H263254   0.389   6.695  17.272 -0.9312  0.1118 -2.1999
13947TIP3   OH263255   1.172   3.937  13.272 -0.0142 -0.3477 -0.0313
13947TIP3    H163256   1.159   3.956  13.365  1.1519 -2.5198  0.6401
13947TIP3    H263257   1.236   4.001  13.242 -0.7360  0.6499  0.5182
13948TIP3   OH263258   4.462   5.397  13.100 -0.2493  0.1023  0.5670
13948TIP3    H163259   4.447   5.482  13.141  2.2528  1.1950 -0.5706
13948TIP3    H263260   4.509   5.417  13.019 -0.1740 -2.3374 -0.0791
13949TIP3   OH263261   2.574   0.054  15.211 -0.0496  0.6748  0.2325
13949TIP3    H163262   2.629   0.100  15.147 -1.1694  0.5139 -0.8761
13949TIP3    H263263   2.519   0.122  15.249  0.2400  0.6798  0.6597
13950TIP3   OH263264   0.748   6.430  14.426  0.0057 -0.7024  0.3223
13950TIP3    H163265   0.791   6.346  14.444  1.4017 -0.0252  0.3289
13950TIP3    H263266   0.812   6.478  14.373 -0.6621  0.4476  0.5261
13951TIP3   OH263267   0.682   3.892  16.186  0.0195 -0.2751 -0.2857
13951TIP3    H163268   0.709   3.805  16.158  1.1200  0.4839 -1.7707
13951TIP3    H263269   0.745   3.916  16.254  1.0193  0.1440 -1.3321
13952TIP3   OH263270   1.272   3.782   4.858  0.2754 -0.1198  0.1837
13952TIP3    H163271   1.287   3.843   4.931 -0.2910 -0.6371  0.7401
13952TIP3    H263272   1.238   3.838   4.787  2.9307  0.7652 -0.4906
13953TIP3   OH263273   0.507   0.317   3.407  0.1288  0.1713  0.5994
13953TIP3    H163274   0.528   0.225   3.419 -1.1313 -0.3300 -0.7317
13953TIP3    H263275   0.424   0.329   3.454 -0.4853  0.2362 -0.4720
13954TIP3   OH263276   6.723   4.456  14.807 -0.2711 -0.1304 -0.2349
13954TIP3    H163277   6.730   4.415  14.893  0.7238 -0.7646 -0.6108
13954TIP3    H263278   6.645   4.417  14.768  0.3016 -1.2010 -0.3345
13955TIP3   OH263279   5.618   4.716  15.562  0.0204  0.6714 -0.1476
13955TIP3    H163280   5.645   4.795  15.514 -2.2900  1.7101  0.0986
13955TIP3    H263281   5.542   4.745  15.614 -0.7483 -1.6615  0.1395
13956TIP3   OH263282   1.335   1.637  16.223 -0.3295  0.0809  0.5797
13956TIP3    H163283   1.331   1.633  16.319 -0.2716  1.4300  0.6573
13956TIP3    H263284   1.408   1.580  16.200 -0.2888 -0.1949  1.3489
13957TIP3   OH263285   6.009   4.460  12.899 -0.8084  0.3070 -0.3809
13957TIP3    H163286   6.094   4.435  12.862  0.0403  1.1898  0.8765
13957TIP3    H263287   5.951   4.466  12.824  0.0954 -0.8518 -1.2199
13958TIP3   OH263288   5.055   1.399  11.315 -0.6526  0.2336  0.5409
13958TIP3    H163289   5.099   1.464  11.259  0.4030  0.0629  1.1400
13958TIP3    H263290   5.123   1.372  11.377 -1.6831  0.1182  1.6491
13959TIP3   OH263291   1.645   4.239   0.321 -0.0915 -0.0597  0.3998
13959TIP3    H163292   1.617   4.323   0.284  1.2690 -0.0080 -0.6178
13959TIP3    H263293   1.634   4.177   0.249  1.1343 -0.2711  0.3738
13960TIP3   OH263294   3.784   6.555   4.468  0.0935  0.3764 -0.5624
13960TIP3    H163295   3.721   6.627   4.469  2.6483  2.7983  0.5407
13960TIP3    H263296   3.835   6.568   4.388  1.5519  0.8147  0.3850
13961TIP3   OH263297   5.373   5.325  12.046 -0.6153  0.0464  0.1781
13961TIP3    H163298   5.324   5.369  11.976 -0.8669 -1.6059 -0.7491
13961TIP3    H263299   5.397   5.240  12.007 -0.0959 -0.5959  1.8460
13962TIP3   OH263300   4.399   1.645  14.397  0.5316  0.2826 -0.3278
13962TIP3    H163301   4.407   1.560  14.354  1.0737 -1.2746  2.5863
13962TIP3    H263302   4.476   1.694  14.369  1.0070 -0.7638 -0.8840
13963TIP3   OH263303   0.257   3.965  16.850  0.0288  0.1987 -0.1017
13963TIP3    H163304   0.283   3.893  16.792 -1.9456  0.8955 -2.0018
13963TIP3    H263305   0.196   3.924  16.912  0.7596 -0.2062  0.3592
13964TIP3   OH263306   6.212   5.764   3.308  0.3376  0.4336 -0.0557
13964TIP3    H163307   6.290   5.806   3.344  0.7054  0.4470 -0.8366
13964TIP3    H263308   6.163   5.734   3.384  0.6495  1.2451  0.4736
13965TIP3   OH263309   0.930   6.138   4.502  0.5585 -0.0439  0.0542
13965TIP3    H163310   0.978   6.088   4.437 -1.4579 -1.8276 -0.1720
13965TIP3    H263311   0.961   6.228   4.491  0.7724 -0.3883 -2.9341
13966TIP3   OH263312   2.622   0.760   2.845 -0.2369  0.5120 -0.0817
13966TIP3    H163313   2.653   0.738   2.934 -3.1661 -2.9289  0.3062
13966TIP3    H263314   2.557   0.828   2.859 -1.1726 -0.4832  0.5445
13967TIP3   OH263315   4.385   3.184   4.648 -0.2377 -0.0327 -0.2265
13967TIP3    H163316   4.429   3.134   4.716  1.2501 -0.1784 -1.2536
13967TIP3    H263317   4.292   3.172   4.666  0.0999  0.3953  2.0911
13968TIP3   OH263318   5.278   3.215   2.852  0.1357  0.7001 -0.2946
13968TIP3    H163319   5.314   3.259   2.929 -0.3516  2.8605 -1.2346
13968TIP3    H263320   5.354   3.175   2.810  0.9172  2.1358 -0.3196
13969TIP3   OH263321   3.595   3.530  13.836  0.2440 -0.3475 -0.3191
13969TIP3    H163322   3.644   3.598  13.882 -2.4987  0.6704  1.3401
13969TIP3    H263323   3.571   3.468  13.905 -1.6124 -0.2724 -0.8566
13970TIP3   OH263324   2.904   6.591  12.014  0.0261  0.0981 -0.2262
13970TIP3    H163325   2.969   6.606  12.083 -0.2950 -0.0591  0.1152
13970TIP3    H263326   2.956   6.576  11.935  0.4175 -0.3955  0.1191
13971TIP3   OH263327   5.721   4.005   4.425 -0.5884 -0.6557  0.2251
13971TIP3    H163328   5.640   4.020   4.474  0.2603  0.5470  1.3417
13971TIP3    H263329   5.785   3.979   4.491  0.0934 -0.9744 -0.5449
13972TIP3   OH263330   3.810   4.311   1.977  0.6449 -0.1885  0.5765
13972TIP3    H163331   3.871   4.246   2.012 -0.5370 -1.0875  1.0537
13972TIP3    H263332   3.726   4.265   1.974  0.1575  0.7150 -0.9159
13973TIP3   OH263333   6.279   0.353  12.260  0.5457 -0.0131  0.0408
13973TIP3    H163334   6.358   0.394  12.225  1.4383 -1.5013  0.2122
13973TIP3    H263335   6.224   0.337  12.184  0.3620  1.0874 -0.0719
13974TIP3   OH263336   4.782   6.752   1.316 -0.8015 -0.5184 -0.6393
13974TIP3    H163337   4.720   6.811   1.273 -2.0297 -1.4449 -0.2027
13974TIP3    H263338   4.747   6.742   1.404  1.3287  0.8615  0.4504
13975TIP3   OH263339   3.433   1.367  16.308  0.7142  0.4393  0.4139
13975TIP3    H163340   3.465   1.278  16.296  0.0380 -0.0846  2.1477
13975TIP3    H263341   3.341   1.356  16.331  0.5526  1.6174  0.4002
13976TIP3   OH263342   0.728   0.476   0.687 -0.4554 -0.1240  0.2950
13976TIP3    H163343   0.753   0.567   0.707 -1.0513  0.2964 -0.8109
13976TIP3    H263344   0.637   0.482   0.658 -0.5438 -1.1062  0.3512
13977TIP3   OH263345   0.056   5.296   2.783  1.0514  0.3910 -0.1331
13977TIP3    H163346   0.093   5.379   2.755 -0.0971  1.5029  1.4278
13977TIP3    H263347   0.102   5.275   2.865  0.1818  0.3993  0.3822
13978TIP3   OH263348   2.642   2.293  15.416  0.1580 -0.4448 -0.2404
13978TIP3    H163349   2.548   2.312  15.426 -0.0081 -1.5658  0.5603
13978TIP3    H263350   2.645   2.214  15.363  0.6838 -0.0658 -0.7769
13979TIP3   OH263351   4.853   5.743  11.356  0.1621  0.4820  0.7041
13979TIP3    H163352   4.811   5.827  11.337  2.3435  0.9742 -2.9126
13979TIP3    H263353   4.827   5.686  11.283  1.6420 -0.7816  1.0997
13980TIP3   OH263354   2.791   2.457  15.950  0.2892  0.1741  0.5260
13980TIP3    H163355   2.796   2.377  16.002  0.6471 -0.4192 -0.3867
13980TIP3    H263356   2.740   2.433  15.873  1.2761  0.5274 -0.2587
13981TIP3   OH263357   2.702   4.787   3.874 -0.0794 -0.0973  0.1513
13981TIP3    H163358   2.638   4.725   3.910 -0.6122 -0.6713 -1.6562
13981TIP3    H263359   2.782   4.735   3.864 -0.3696 -0.3905 -0.8454
13982TIP3   OH263360   4.724   4.171   2.862 -0.2483  0.0672  0.1057
13982TIP3    H163361   4.688   4.106   2.923  0.5178 -0.7782 -0.3137
13982TIP3    H263362   4.795   4.212   2.912  0.9157 -1.1867 -0.4318
13983TIP3   OH263363   1.223   5.541  15.773  0.0788  0.1961  0.0441
13983TIP3    H163364   1.175   5.578  15.698  1.5979  0.1709 -0.9778
13983TIP3    H263365   1.315   5.550  15.750  0.6043  0.4131  2.0502
13984TIP3   OH263366   1.891   4.898  16.102  0.2850 -0.2462  0.8056
13984TIP3    H163367   1.928   4.873  16.018  0.8359  1.0437  0.6516
13984TIP3    H263368   1.890   4.816  16.153  4.4940 -0.2290  1.2615
13985TIP3   OH263369   3.521   0.794  12.412  0.3365  0.3648  0.3061
13985TIP3    H163370   3.584   0.799  12.484 -1.1209  0.7387  1.6046
13985TIP3    H263371   3.448   0.743  12.447  0.3230 -0.9331 -1.5086
13986TIP3   OH263372   1.282   2.034   2.010 -0.1535  0.6545 -0.3796
13986TIP3    H163373   1.327   2.032   2.094 -0.1439 -2.3918 -0.3480
13986TIP3    H263374   1.189   2.027   2.032 -0.1300 -0.5819 -0.5562
13987TIP3   OH263375   6.126   0.249  14.385  0.2400  0.1070 -0.2606
13987TIP3    H163376   6.151   0.162  14.351  0.5965  0.9584 -2.3442
13987TIP3    H263377   6.210   0.290  14.407 -0.0070 -0.9034  3.2417
13988TIP3   OH263378   5.129   2.108   6.258  0.4536  0.3069 -0.0321
13988TIP3    H163379   5.197   2.094   6.192 -1.7335  2.2518 -2.9675
13988TIP3    H263380   5.090   2.022   6.270  0.8213 -0.0943 -1.4542
13989TIP3   OH263381   2.216   6.177  13.582  0.0956  0.5315  0.1902
13989TIP3    H163382   2.183   6.267  13.579  0.7540  0.8566  1.5588
13989TIP3    H263383   2.191   6.139  13.498 -2.3060  1.2244  0.5304
13990TIP3   OH263384   5.537   5.621   3.960  0.8034  0.2765 -0.2462
13990TIP3    H163385   5.555   5.697   4.016  1.0679 -0.0033  0.0544
13990TIP3    H263386   5.561   5.650   3.872 -0.9938  1.2081 -0.4661
13991TIP3   OH263387   1.836   1.865  12.733 -0.5012 -0.4963  0.2837
13991TIP3    H163388   1.887   1.847  12.654  2.0687 -1.7353  2.0932
13991TIP3    H263389   1.795   1.782  12.756 -1.6379 -0.0281  0.0600
13992TIP3   OH263390   2.086   6.419  13.699 -0.0301 -0.2816 -0.2934
13992TIP3    H163391   2.089   6.356  13.771 -0.2029 -0.4106 -0.3981
13992TIP3    H263392   1.994   6.418  13.671 -0.1665  0.4603  0.0970
13993TIP3   OH263393   5.288   1.439   4.142  0.3474 -0.6302 -0.2172
13993TIP3    H163394   5.207   1.390   4.156  0.4306 -0.7776 -0.2484
13993TIP3    H263395   5.355   1.390   4.189  0.2620 -0.0263  0.5522
13994TIP3   OH263396   6.499   2.530  17.332  0.3491 -0.4387 -0.6059
13994TIP3    H163397   6.411   2.551  17.365  0.9493  0.7132  0.3394
13994TIP3    H263398   6.512   2.439  17.356 -0.1632 -0.3000  0.2453
13995TIP3   OH263399   4.356   6.607  15.117  0.2977  0.1119  0.3220
13995TIP3    H163400   4.312   6.691  15.108 -0.4494 -0.2879  0.1201
13995TIP3    H263401   4.358   6.591  15.211  2.4892  1.3841  0.5730
13996TIP3   OH263402   1.843   0.157   5.559 -0.0478  0.1962  0.5912
13996TIP3    H163403   1.925   0.199   5.587  0.6143  0.1863 -1.2168
13996TIP3    H263404   1.860   0.063   5.568  0.7673  0.1283 -1.3245
13997TIP3   OH263405   0.022   5.535  13.127 -0.3861 -0.5170 -0.2205
13997TIP3    H163406  -0.028   5.464  13.167 -0.1960 -0.5544 -0.0490
13997TIP3    H263407   0.058   5.497  13.047  1.2294 -1.1799  0.7736
13998TIP3   OH263408   1.286   4.819  12.441  0.0502  0.6797 -0.1354
13998TIP3    H163409   1.310   4.808  12.532  2.2762  1.0551 -0.6354
13998TIP3    H263410   1.224   4.893  12.441  0.8778  1.3947  0.9443
13999TIP3   OH263411   6.219   2.596  15.150 -0.0074  0.6462  0.0017
13999TIP3    H163412   6.176   2.681  15.145  0.0220  0.5989 -1.4327
13999TIP3    H263413   6.308   2.616  15.179 -0.8685  0.7627  2.8177
14000TIP3   OH263414   2.512   4.914  13.057  1.0138 -0.1249  0.1463
14000TIP3    H163415   2.484   4.977  12.991 -0.1811 -0.7491  0.0309
14000TIP3    H263416   2.562   4.849  13.008  0.5368 -0.3325 -0.0709
14001TIP3   OH263417   5.041   0.249  16.902 -0.6540 -0.4270 -0.0943
14001TIP3    H163418   5.133   0.225  16.909 -0.7918 -0.7813  0.5873
14001TIP3    H263419   5.000   0.208  16.978 -1.2029  0.5103  0.1358
14002TIP3   OH263420   3.233   3.734  11.406  0.4531  0.7332  0.2055
14002TIP3    H163421   3.140   3.712  11.398  0.3609  1.3529 -0.5457
14002TIP3    H263422   3.263   3.687  11.484  0.1821 -1.7274 -1.0942
14003TIP3   OH263423   5.191   4.164   3.454 -0.0002  0.0685  0.1942
14003TIP3    H163424   5.177   4.243   3.401 -2.2615 -0.2048  0.2925
14003TIP3    H263425   5.235   4.103   3.395  1.6376  1.2832  0.0596
14004TIP3   OH263426   0.764   3.364  13.188  0.3008  0.0449  0.8208
14004TIP3    H163427   0.793   3.449  13.153 -1.1311  0.7018  1.1732
14004TIP3    H263428   0.839   3.307  13.174  0.6948  0.9100 -1.0383
14005TIP3   OH263429   6.670   1.042   3.424  0.4863 -0.0672 -0.3851
14005TIP3    H163430   6.731   1.040   3.351 -0.8030  2.6253 -1.7226
14005TIP3    H263431   6.586   1.065   3.384 -0.5543  0.2371  1.8048
14006TIP3   OH263432   1.160   6.603   4.922  0.0034  0.5733  0.4634
14006TIP3    H163433   1.224   6.666   4.890  0.6778  0.4653  1.5362
14006TIP3    H263434   1.138   6.550   4.846  2.7669 -0.7518  0.4662
14007TIP3   OH263435   2.680   3.505  14.483 -0.3256 -0.0673 -0.3759
14007TIP3    H163436   2.690   3.415  14.514  0.2131  0.7187  1.9415
14007TIP3    H263437   2.587   3.525  14.497 -0.3680 -0.1421 -0.5472
14008TIP3   OH263438   1.477   5.570  17.306 -0.0650 -0.6370  0.1908
14008TIP3    H163439   1.454   5.662  17.318  0.0575 -0.6943  0.9410
14008TIP3    H263440   1.437   5.525  17.381 -0.5415 -1.2730 -0.4290
14009TIP3   OH263441   4.041   0.989  11.911 -0.0127  0.1193 -0.0581
14009TIP3    H163442   4.045   1.064  11.970 -2.3779 -0.8978  1.5702
14009TIP3    H263443   4.115   0.934  11.937  0.0767  0.5733  0.6855
14010TIP3   OH263444   1.949   3.114  13.256  0.3843 -0.1777 -0.1535
14010TIP3    H163445   1.962   3.208  13.261 -0.6982 -0.0435  0.3433
14010TIP3    H263446   1.905   3.091  13.338 -1.2110 -0.7813 -1.1254
14011TIP3   OH263447   6.516   6.539  17.280 -0.4648 -0.3783  0.2265
14011TIP3    H163448   6.590   6.556  17.338  0.5418 -1.1419 -0.7942
14011TIP3    H263449   6.441   6.530  17.339  0.2857  0.1458  1.2964
14012TIP3   OH263450   3.679   6.144   4.627 -0.3688  0.0649  0.3425
14012TIP3    H163451   3.723   6.060   4.626 -0.0368  0.1466 -2.9159
14012TIP3    H263452   3.748   6.208   4.607 -0.9258  0.9551  1.1173
14013TIP3   OH263453   5.610   1.143  13.511  0.0866  0.8337 -0.0866
14013TIP3    H163454   5.593   1.050  13.523  0.0719  0.7955 -0.3874
14013TIP3    H263455   5.653   1.148  13.425  0.0486  1.1075 -0.0896
14014TIP3   OH263456   2.334   4.854  12.064  0.2388  0.3505  0.0699
14014TIP3    H163457   2.240   4.872  12.058  0.2296 -0.1336 -2.7744
14014TIP3    H263458   2.340   4.759  12.071  0.5225  0.3781  0.2238
14015TIP3   OH263459   0.269   2.545  10.552  0.4731 -0.2418  0.1717
14015TIP3    H163460   0.187   2.509  10.585  0.4120  0.2319  0.5501
14015TIP3    H263461   0.320   2.469  10.527 -0.9009 -0.4919 -2.1210
14016TIP3   OH263462   0.240   1.354  15.407  0.2708  0.4468  0.0451
14016TIP3    H163463   0.265   1.264  15.430 -2.6934 -1.0760 -2.0275
14016TIP3    H263464   0.297   1.376  15.334  2.1903  1.0224  1.6315
14017TIP3   OH263465   2.608   0.252  14.810 -0.7005  0.5958 -0.1920
14017TIP3    H163466   2.655   0.311  14.751  0.4186 -1.0097 -0.9797
14017TIP3    H263467   2.648   0.265  14.895 -0.1051  0.5989 -0.4727
14018TIP3   OH263468   3.073   2.465  14.651 -0.0332  0.3447 -0.1791
14018TIP3    H163469   3.008   2.398  14.629  0.3906 -0.5621  1.2190
14018TIP3    H263470   3.036   2.512  14.725 -0.3942  1.8148 -1.2419
14019TIP3   OH263471   2.056   0.389   2.043 -0.0438 -0.2004 -0.1053
14019TIP3    H163472   2.103   0.467   2.013  0.7644 -1.0088 -0.9596
14019TIP3    H263473   2.096   0.316   1.996 -0.8362 -1.1396  0.6314
14020TIP3   OH263474   5.897   0.379  16.359  0.1147 -0.5396  0.3711
14020TIP3    H163475   5.977   0.327  16.364 -0.4209 -1.4108  0.0808
14020TIP3    H263476   5.925   0.461  16.317  1.0686 -0.3652  1.3030
14021TIP3   OH263477   1.502   6.465  14.670 -0.0121  0.4398  0.5512
14021TIP3    H163478   1.540   6.378  14.681  0.9977  0.9394  1.0872
14021TIP3    H263479   1.423   6.463  14.725 -0.1649 -0.2293  0.3224
14022TIP3   OH263480   2.020   5.287  13.804  0.2825  0.0766  0.7300
14022TIP3    H163481   1.961   5.253  13.736 -0.5638 -1.5478  2.1944
14022TIP3    H263482   2.106   5.286  13.764 -0.1925 -0.8742 -0.3263
14023TIP3   OH263483   5.083   1.333  16.131 -0.2370 -0.2766  0.0376
14023TIP3    H163484   5.047   1.422  16.138 -0.5836 -0.3126 -1.2263
14023TIP3    H263485   5.029   1.281  16.190 -1.4344 -0.0686 -0.8402
14024TIP3   OH263486   0.456   1.197   2.412 -0.0908  0.1817 -0.4413
14024TIP3    H163487   0.497   1.111   2.400  1.7938  0.7610  1.4122
14024TIP3    H263488   0.514   1.258   2.365  0.8144  0.9092  1.5324
14025TIP3   OH263489   0.435   0.522   1.010  0.2641  0.0549 -0.1695
14025TIP3    H163490   0.410   0.604   1.051  0.3720 -0.2678  0.5496
14025TIP3    H263491   0.439   0.459   1.082 -2.1234 -1.1516 -0.9925
14026TIP3   OH263492   2.951   3.151   1.435  0.4829  0.4441 -0.0212
14026TIP3    H163493   2.856   3.155   1.445  0.3513  1.7051 -1.3220
14026TIP3    H263494   2.968   3.063   1.400 -0.2643  0.3621 -0.1970
14027TIP3   OH263495   1.238   5.865  13.218 -0.0349 -0.5407  0.2283
14027TIP3    H163496   1.180   5.802  13.176 -0.3804  1.4784 -2.5768
14027TIP3    H263497   1.184   5.908  13.284 -0.4383 -1.5985  0.5986
14028TIP3   OH263498   4.121   4.704   2.871 -0.0558  0.1649  0.2469
14028TIP3    H163499   4.142   4.793   2.900 -0.5432 -0.3288  2.2558
14028TIP3    H263500   4.152   4.648   2.942 -0.3481 -1.2377 -0.6925
14029TIP3   OH263501   1.453   1.109   3.179 -0.0229  0.1208  0.2094
14029TIP3    H163502   1.512   1.184   3.167 -1.0826  0.8692 -0.5673
14029TIP3    H263503   1.388   1.140   3.242  1.1056 -1.1552  2.1201
14030TIP3   OH263504   2.709   2.265  11.603  0.0931 -0.5324 -0.4656
14030TIP3    H163505   2.715   2.231  11.514 -0.3062 -0.6339 -0.4607
14030TIP3    H263506   2.776   2.217  11.652 -0.6469 -1.5523 -0.3982
14031TIP3   OH263507   4.096   3.228   2.501  0.3908 -0.3263  0.2358
14031TIP3    H163508   4.122   3.276   2.423 -0.0599 -0.9157 -0.2883
14031TIP3    H263509   4.123   3.284   2.574 -1.9608  1.7867 -0.3426
14032TIP3   OH263510   5.388   5.635   5.096 -0.9526  0.4685  0.0332
14032TIP3    H163511   5.421   5.646   5.185 -0.3544  1.6040 -0.3136
14032TIP3    H263512   5.414   5.546   5.072  1.8681  1.2692 -0.1970
14033TIP3   OH263513   5.381   0.342  16.291  0.3775 -0.0323  0.4341
14033TIP3    H163514   5.286   0.353  16.300 -0.0850 -1.7601 -1.5957
14033TIP3    H263515   5.414   0.431  16.282 -1.0081  0.6194  1.3968
14034TIP3   OH263516   3.895   4.411   1.002 -0.4394  0.1331 -0.3651
14034TIP3    H163517   3.938   4.442   0.923 -0.7658 -0.0653 -0.6262
14034TIP3    H263518   3.874   4.320   0.984  2.0524 -0.8100  1.0463
14035TIP3   OH263519   6.381   3.365  16.979 -0.2726 -0.3554  0.3726
14035TIP3    H163520   6.427   3.424  16.919  0.5679  0.2763  1.5824
14035TIP3    H263521   6.351   3.293  16.924  1.5129 -0.3980 -0.6158
14036TIP3   OH263522   3.038   0.187  16.009  0.3431  0.3212 -0.1224
14036TIP3    H163523   3.129   0.217  16.015  0.2144  0.5217  0.9273
14036TIP3    H263524   2.996   0.253  15.954  0.7064  0.5454 -0.1434
14037TIP3   OH263525   0.996   5.064  13.414  0.1949  0.3977  0.3322
14037TIP3    H163526   0.991   5.004  13.487 -0.4207  1.0438  0.8389
14037TIP3    H263527   0.905   5.076  13.387  0.4311 -0.0216 -0.7018
14038TIP3   OH263528   1.236   1.826  15.707  0.0798 -0.1515  0.0511
14038TIP3    H163529   1.243   1.920  15.726 -0.2406 -0.4522  1.9496
14038TIP3    H263530   1.232   1.821  15.612 -0.7276  1.8337 -0.0846
14039TIP3   OH263531   2.844   1.841   5.360  0.1744  0.3155  0.0232
14039TIP3    H163532   2.939   1.849   5.361  0.1396  0.6338  0.5210
14039TIP3    H263533   2.824   1.814   5.270  0.8771 -1.5121  0.3773
14040TIP3   OH263534   4.159   2.858  12.127 -0.5269 -0.3557 -0.0810
14040TIP3    H163535   4.228   2.924  12.127 -0.3778 -0.4381 -1.9508
14040TIP3    H263536   4.134   2.848  12.219  0.0310  1.6650  0.3281
14041TIP3   OH263537   1.212   1.586  13.317 -0.4649 -0.1701  0.3101
14041TIP3    H163538   1.216   1.595  13.222 -0.9204 -0.0660  0.3020
14041TIP3    H263539   1.220   1.492  13.333  0.8720 -0.0984  0.2368
14042TIP3   OH263540   2.832   2.079   5.061 -0.2394 -0.1026 -0.5783
14042TIP3    H163541   2.905   2.125   5.020  0.6153 -1.4175 -0.5723
14042TIP3    H263542   2.771   2.061   4.990  0.1441 -0.3078 -0.8555
14043TIP3   OH263543   5.694   4.444  16.378  0.1335 -0.1345 -0.4824
14043TIP3    H163544   5.770   4.449  16.436 -0.1504  1.8808 -0.2171
14043TIP3    H263545   5.721   4.383  16.309  1.8973  0.3045 -0.2296
14044TIP3   OH263546   6.600   2.587   0.771  0.8344 -0.0606 -0.1077
14044TIP3    H163547   6.604   2.497   0.802  2.2342  0.2631  0.7109
14044TIP3    H263548   6.552   2.635   0.839 -0.4941 -0.2742 -0.8482
14045TIP3   OH263549   6.306   0.385   1.105  0.0342 -0.4837  0.6367
14045TIP3    H163550   6.399   0.406   1.107 -0.0215 -0.2997  1.3458
14045TIP3    H263551   6.271   0.421   1.186 -1.0020  1.0401 -0.4421
14046TIP3   OH263552   3.948   1.362   0.609  0.5184  0.1766 -0.1210
14046TIP3    H163553   3.945   1.304   0.686 -0.9118  1.2137  0.6581
14046TIP3    H263554   3.954   1.450   0.645  0.5784  0.6452 -1.2273
14047TIP3   OH263555   0.194   6.291   4.596  0.0729 -0.2000  0.5473
14047TIP3    H163556   0.191   6.197   4.578  0.4634 -0.5428  2.1110
14047TIP3    H263557   0.103   6.316   4.610  0.1507 -0.9480  2.7652
14048TIP3   OH263558   4.790   5.386   2.902 -0.7854 -0.1412  0.0670
14048TIP3    H163559   4.707   5.346   2.929 -0.8968 -1.2067 -1.6840
14048TIP3    H263560   4.774   5.417   2.813  0.2956  0.9498  0.2130
14049TIP3   OH263561   1.968   3.499  14.341  0.2737 -0.1462 -0.0743
14049TIP3    H163562   1.926   3.413  14.345 -0.2357  0.0165 -1.4614
14049TIP3    H263563   1.919   3.553  14.403 -0.4021 -0.4472 -0.3397
14050TIP3   OH263564   3.055   5.015   0.029  0.0256  0.2200  0.5623
14050TIP3    H163565   3.151   5.006   0.025  0.1043  1.1835 -0.2476
14050TIP3    H263566   3.022   4.930   0.001  0.6709  0.2874 -0.5039
14051TIP3   OH263567   2.505   5.697   5.096 -0.1130 -0.3627  0.0276
14051TIP3    H163568   2.436   5.678   5.161 -0.2038 -0.0878  0.0139
14051TIP3    H263569   2.461   5.749   5.029 -0.3503 -1.7476 -0.9465
14052TIP3   OH263570   3.266   1.751   0.186 -0.6297  0.1790  0.4230
14052TIP3    H163571   3.253   1.824   0.126 -1.2109 -0.8774 -0.7876
14052TIP3    H263572   3.355   1.720   0.167 -1.5513 -1.5179 -1.5387
14053TIP3   OH263573   1.616   4.697  12.194 -0.1751  0.3547  0.0444
14053TIP3    H163574   1.560   4.657  12.261  0.7355 -1.2202 -0.0823
14053TIP3    H263575   1.692   4.639  12.189  0.1239  0.8407 -1.8410
14054TIP3   OH263576   5.641   5.617  14.826  0.2735 -0.0076 -0.1365
14054TIP3    H163577   5.614   5.699  14.868 -1.0933 -0.8962  0.7818
14054TIP3    H263578   5.657   5.557  14.898  0.1752 -0.8926 -0.8386
14055TIP3   OH263579   4.448   2.954   6.664 -0.0997  0.1653 -0.2305
14055TIP3    H163580   4.452   3.049   6.647  0.8434  0.2824  0.5648
14055TIP3    H263581   4.356   2.931   6.650 -0.3055  1.1616 -0.6121
14056TIP3   OH263582   1.842   3.348  12.078 -0.4071  0.3484 -0.8174
14056TIP3    H163583   1.802   3.326  11.994  1.2457  0.1725 -1.6137
14056TIP3    H263584   1.933   3.318  12.069  0.2686  1.8930  0.3841
14057TIP3   OH263585   5.247   0.784  16.225 -0.4730  0.5477  0.5290
14057TIP3    H163586   5.183   0.723  16.189 -0.8455  2.5773 -2.7455
14057TIP3    H263587   5.329   0.734  16.228 -0.3467  0.0995 -3.7374
14058TIP3   OH263588   2.154   6.482   5.044  0.1864 -0.1714 -0.3413
14058TIP3    H163589   2.175   6.533   4.966 -0.7158  1.8635  0.6640
14058TIP3    H263590   2.095   6.413   5.013  1.6636 -0.8531 -1.7847
14059TIP3   OH263591   2.362   0.292  11.911  0.2623 -0.5144 -0.0635
14059TIP3    H163592   2.317   0.362  11.959  1.8882 -0.2842  1.2266
14059TIP3    H263593   2.435   0.337  11.866  0.2907 -1.1248 -0.6405
14060TIP3   OH263594   3.102   3.928  16.775  0.9041  0.3367  0.1447
14060TIP3    H163595   3.121   3.981  16.697  0.2842 -0.0237 -0.2622
14060TIP3    H263596   3.034   3.978  16.821  0.2908 -0.1079 -0.2599
14061TIP3   OH263597   3.200   5.061  14.239 -0.3044  0.0327  0.4504
14061TIP3    H163598   3.293   5.051  14.262  0.1179  1.4759 -0.4808
14061TIP3    H263599   3.157   5.082  14.321  0.2270 -0.3970  0.8465
14062TIP3   OH263600   4.897   4.821  11.581  0.4531 -0.3490 -0.1407
14062TIP3    H163601   4.837   4.862  11.519 -0.4392  1.1383  1.5891
14062TIP3    H263602   4.959   4.773  11.527 -1.7963 -1.2770 -2.0518
14063TIP3   OH263603   0.711   1.433   3.859 -0.0229  0.4760 -0.1091
14063TIP3    H163604   0.747   1.451   3.772 -0.1264 -0.0137 -0.2516
14063TIP3    H263605   0.789   1.420   3.914  0.0348  0.4341 -0.2006
14064TIP3   OH263606   4.078   0.238   4.658 -0.3850  0.5030  0.2293
14064TIP3    H163607   4.052   0.315   4.709 -1.2915  0.5658 -0.3132
14064TIP3    H263608   4.169   0.256   4.634 -0.8546  1.8702 -0.6862
14065TIP3   OH263609   0.084   0.574  11.764  0.5870 -0.9697 -0.5051
14065TIP3    H163610   0.025   0.580  11.689  0.4933 -0.9780 -0.4327
14065TIP3    H263611   0.030   0.597  11.840  0.8727 -0.1881 -0.5273
14066TIP3   OH263612   3.164   1.804   6.616 -0.2605  0.2469 -0.4376
14066TIP3    H163613   3.073   1.824   6.638 -0.1538  0.3248 -0.0485
14066TIP3    H263614   3.169   1.708   6.621 -0.0698  0.2956  0.6113
14067TIP3   OH263615   6.084   1.374   3.569  0.0371  0.3510  0.2345
14067TIP3    H163616   6.139   1.342   3.640  1.4561 -1.4212 -1.5468
14067TIP3    H263617   6.029   1.300   3.545  0.5194  0.4509 -1.3267
14068TIP3   OH263618   3.828   0.601  11.453 -0.0795  0.0731  0.3482
14068TIP3    H163619   3.821   0.691  11.421  1.0138  0.7902  1.9584
14068TIP3    H263620   3.772   0.550  11.394 -1.0245  1.8510 -0.3902
14069TIP3   OH263621   0.447   1.013   1.529 -0.1630 -0.0151  0.2777
14069TIP3    H163622   0.516   0.948   1.517  0.3660  0.8173 -1.5538
14069TIP3    H263623   0.492   1.090   1.564 -0.5604 -0.1825  1.1835
14070TIP3   OH263624   3.887   6.001   0.329  1.0140 -0.3932  0.6855
14070TIP3    H163625   3.963   5.979   0.275 -0.1560 -4.4807  0.3412
14070TIP3    H263626   3.893   5.942   0.404 -0.2557  1.3789  2.2808
14071TIP3   OH263627   1.478   4.425  15.718 -0.1072  0.4818 -0.1255
14071TIP3    H163628   1.563   4.444  15.758 -1.2201  2.1833  1.5967
14071TIP3    H263629   1.422   4.498  15.744 -2.8102 -1.7673  0.9079
14072TIP3   OH263630   3.560   0.571   0.807  0.3453 -0.3036 -0.1536
14072TIP3    H163631   3.592   0.612   0.727  2.2730  0.2334  0.8379
14072TIP3    H263632   3.504   0.637   0.847  0.3201 -0.1344 -0.4664
14073TIP3   OH263633   3.398   2.501  16.153 -0.0447 -0.0261  0.1599
14073TIP3    H163634   3.335   2.432  16.133  0.6925 -0.4554 -0.7600
14073TIP3    H263635   3.414   2.494  16.247 -1.6010  0.3088  0.4699
14074TIP3   OH263636   0.088   5.651  16.011 -0.1230  0.0795 -0.0753
14074TIP3    H163637   0.011   5.707  16.026  0.5105  1.1334 -0.6758
14074TIP3    H263638   0.060   5.590  15.943 -0.0954  1.1735 -1.0948
14075TIP3   OH263639   6.602   1.837   1.766 -0.4817 -0.4208 -0.5087
14075TIP3    H163640   6.573   1.925   1.792  0.2304  0.2954 -2.0080
14075TIP3    H263641   6.670   1.814   1.829 -0.4314  0.2485 -0.3127
14076TIP3   OH263642   3.508   6.154  16.707  0.5675 -0.6942  0.8738
14076TIP3    H163643   3.434   6.208  16.735 -1.0368 -0.2223 -3.3837
14076TIP3    H263644   3.574   6.217  16.677  0.8704 -1.0940  0.6903
14077TIP3   OH263645   0.587   4.430  17.288  0.7872  0.2203 -0.2290
14077TIP3    H163646   0.592   4.391  17.376  0.3245  1.9991  0.6354
14077TIP3    H263647   0.498   4.409  17.258  0.8640 -0.1912 -0.1674
14078TIP3   OH263648   0.040   3.213  12.909 -0.1650 -0.0290 -0.0493
14078TIP3    H163649  -0.055   3.207  12.911 -0.2475  1.1147  0.0060
14078TIP3    H263650   0.064   3.172  12.825 -0.7356  0.0142 -0.2397
14079TIP3   OH263651   2.677   4.020  16.085  0.3094  0.3139  0.2276
14079TIP3    H163652   2.747   4.070  16.127  1.5806  0.5430 -2.0097
14079TIP3    H263653   2.686   4.040  15.992 -2.8295  0.4066 -0.1422
14080TIP3   OH263654   3.333   4.246  16.216 -0.4293 -0.3637  0.7068
14080TIP3    H163655   3.267   4.216  16.153  0.4130 -0.8190  0.0135
14080TIP3    H263656   3.299   4.329  16.249  0.3836  1.4504 -2.5346
14081TIP3   OH263657   3.450   1.289  12.958  0.0350  0.0989  0.1692
14081TIP3    H163658   3.508   1.230  13.007  0.6252 -0.2815 -0.9639
14081TIP3    H263659   3.428   1.358  13.022  1.2358 -0.0759  0.8193
14082TIP3   OH263660   1.730   0.006   3.407 -0.4041  0.2524  0.0368
14082TIP3    H163661   1.694  -0.082   3.413 -3.0276  1.2904  1.1443
14082TIP3    H263662   1.728   0.027   3.314  0.4009 -0.8569 -0.2548
14083TIP3   OH263663   2.751   5.946  11.660  0.6288  0.5722  0.0206
14083TIP3    H163664   2.675   6.003  11.663  0.3752  0.2210  0.3251
14083TIP3    H263665   2.803   5.970  11.737 -0.1628 -0.5390  0.9378
14084TIP3   OH263666   2.172   0.714  17.155  0.0406  0.4184  0.0750
14084TIP3    H163667   2.173   0.637  17.213 -1.1252  1.2866  1.3222
14084TIP3    H263668   2.082   0.747  17.162  0.4218  1.6737 -0.7310
14085TIP3   OH263669   4.775   5.082  16.863 -0.5368  0.1153  0.2731
14085TIP3    H163670   4.750   4.995  16.831  0.9824 -1.0046  1.9301
14085TIP3    H263671   4.741   5.085  16.952  3.3418 -0.7877  1.9929
14086TIP3   OH263672   4.387   4.475  13.088  0.0367  0.3038  0.8829
14086TIP3    H163673   4.445   4.431  13.150  0.8253 -0.2354 -0.2007
14086TIP3    H263674   4.393   4.567  13.112  3.8748  0.7665 -1.0675
14087TIP3   OH263675   4.900   2.784  11.781 -0.0668 -0.4175  0.3187
14087TIP3    H163676   4.929   2.695  11.800 -2.7151 -1.0045  2.2261
14087TIP3    H263677   4.942   2.838  11.848  0.1177 -0.5341  0.2967
14088TIP3   OH263678   0.526   6.411  12.343  0.0875  0.1400 -0.1635
14088TIP3    H163679   0.442   6.455  12.352 -0.8952 -1.4105 -1.3575
14088TIP3    H263680   0.567   6.454  12.267 -0.2736 -0.0915 -0.4903
14089TIP3   OH263681   0.864   0.723   1.391  0.0703  0.4477 -0.0968
14089TIP3    H163682   0.882   0.650   1.332  0.3564  1.1104 -0.8436
14089TIP3    H263683   0.882   0.689   1.479  1.9911  0.1559 -0.5728
14090TIP3   OH263684   0.207   2.361  11.693  0.2514  0.7826  0.3724
14090TIP3    H163685   0.226   2.276  11.654  0.6591  0.2574  1.6726
14090TIP3    H263686   0.112   2.363  11.702  0.1765  0.7992 -0.3759
14091TIP3   OH263687   0.368   4.891   1.331 -0.6051 -0.4664 -0.8195
14091TIP3    H163688   0.377   4.983   1.355 -1.4039 -0.5524 -0.1141
14091TIP3    H263689   0.316   4.893   1.251 -1.1001 -0.3123 -0.5038
14092TIP3   OH263690   1.140   3.053   2.199 -0.4905 -0.4779  0.6942
14092TIP3    H163691   1.087   3.089   2.128 -0.5552 -1.4639  0.2172
14092TIP3    H263692   1.195   2.987   2.156  2.6670  1.8493  0.7634
14093TIP3   OH263693   5.542   2.588   3.129 -0.1654  0.6689  0.1474
14093TIP3    H163694   5.526   2.588   3.034  1.0777  0.0086 -0.0742
14093TIP3    H263695   5.542   2.495   3.153 -1.9319  0.8542  1.0861
14094TIP3   OH263696   6.052   3.665  11.457 -0.2451 -0.0996  0.2176
14094TIP3    H163697   6.077   3.747  11.499 -0.9678  0.1667  0.1483
14094TIP3    H263698   5.962   3.679  11.429  0.0037 -0.5096 -0.8368
14095TIP3   OH263699   4.136   5.067   0.812  0.2213 -0.4457 -0.1425
14095TIP3    H163700   4.055   5.024   0.785 -0.4944  0.6626  0.1897
14095TIP3    H263701   4.193   4.995   0.841 -0.4953 -1.2683 -0.7149
14096TIP3   OH263702   3.493   0.246   4.799 -0.4175  0.1402 -0.7111
14096TIP3    H163703   3.409   0.214   4.831  1.4817 -1.8422  3.0537
14096TIP3    H263704   3.497   0.337   4.828 -1.5512  0.5519 -1.7605
14097TIP3   OH263705   3.150   5.188  12.055 -0.0120  0.1303  0.0073
14097TIP3    H163706   3.154   5.119  11.989  1.8479 -0.6712  0.8868
14097TIP3    H263707   3.213   5.254  12.026  0.6089 -0.0943  0.8186
14098TIP3   OH263708   1.745   4.575   1.760 -0.8547 -0.8024 -0.0265
14098TIP3    H163709   1.744   4.592   1.665 -0.6915 -0.0855  0.0956
14098TIP3    H263710   1.684   4.639   1.796  0.8677  0.5712  0.5987
14099TIP3   OH263711   4.585   0.296  15.990  0.0273 -0.8622  0.1742
14099TIP3    H163712   4.503   0.251  16.007 -0.4661 -1.5010 -3.1236
14099TIP3    H263713   4.561   0.388  15.979 -0.4286 -1.1240 -1.3234
14100TIP3   OH263714   4.191   5.309   3.994 -0.1127 -0.0808  0.5551
14100TIP3    H163715   4.211   5.381   4.054 -0.9159 -0.4735  1.3261
14100TIP3    H263716   4.276   5.278   3.963  0.3283  0.0103  1.6468
14101TIP3   OH263717   5.079   1.838  15.852  0.3331  0.6393  0.2067
14101TIP3    H163718   4.995   1.880  15.870 -0.6522  0.0727 -2.5408
14101TIP3    H263719   5.130   1.905  15.806  0.3701  0.1894 -0.4276
14102TIP3   OH263720   0.347   3.228   0.333 -0.2349 -0.8388 -0.9534
14102TIP3    H163721   0.407   3.195   0.400  1.0636 -0.5997 -1.9404
14102TIP3    H263722   0.337   3.154   0.273 -1.8164 -1.2294 -0.2426
14103TIP3   OH263723   4.971   0.413  11.544 -0.0596  0.3096 -0.2211
14103TIP3    H163724   5.007   0.501  11.536 -1.1005  0.6064 -2.1198
14103TIP3    H263725   4.877   0.425  11.537 -0.1783 -1.0025 -1.2775
14104TIP3   OH263726   3.164   3.730  15.399 -0.0427  0.3344 -0.4277
14104TIP3    H163727   3.086   3.758  15.352  0.2190 -0.1134 -1.1362
14104TIP3    H263728   3.170   3.636  15.382  1.1591  0.5194 -1.1437
14105TIP3   OH263729   1.562   2.811   1.857  0.3455  0.0972  0.2662
14105TIP3    H163730   1.645   2.812   1.903  0.0612 -0.7341  0.8119
14105TIP3    H263731   1.496   2.799   1.925 -0.1214 -0.5615 -0.2795
14106TIP3   OH263732   1.659   0.624   6.292 -0.1585  0.1706 -0.4080
14106TIP3    H163733   1.677   0.584   6.377 -1.9139 -1.0707 -0.5676
14106TIP3    H263734   1.617   0.707   6.313  0.6873  0.5190 -0.0732
14107TIP3   OH263735   1.050   2.371   5.218  0.7633 -0.6017 -0.0986
14107TIP3    H163736   1.039   2.466   5.220 -0.2023 -0.6919 -0.6708
14107TIP3    H263737   1.029   2.346   5.128  1.4490 -1.3194 -0.0741
14108TIP3   OH263738   3.436   2.496   1.997 -0.0016 -0.0556  0.0043
14108TIP3    H163739   3.460   2.522   1.908 -0.7660  0.6332 -0.0148
14108TIP3    H263740   3.417   2.579   2.041 -1.1731 -0.4924  0.3457
14109TIP3   OH263741   6.074   5.716   2.869  0.2426 -0.4681  0.5024
14109TIP3    H163742   6.123   5.795   2.842 -1.7710  0.9247  0.7182
14109TIP3    H263743   5.992   5.722   2.821 -0.2992 -2.0161  1.1931
14110TIP3   OH263744   4.662   1.474   0.444  0.5663  0.0406 -0.0776
14110TIP3    H163745   4.745   1.518   0.427  0.4565 -0.3578 -1.7678
14110TIP3    H263746   4.596   1.538   0.419  0.3061  0.6420  1.9737
14111TIP3   OH263747   2.082   3.815   6.664 -0.3450  0.3033  0.3387
14111TIP3    H163748   2.113   3.855   6.583 -2.0600 -2.5565 -1.9167
14111TIP3    H263749   1.991   3.841   6.670 -0.4615 -0.2165  0.8638
14112TIP3   OH263750   2.981   3.331  14.808  0.5707  0.5695 -0.0535
14112TIP3    H163751   2.967   3.393  14.737 -1.5839 -1.5909 -1.6580
14112TIP3    H263752   3.066   3.291  14.789  1.6307  2.3798  0.5931
14113TIP3   OH263753   2.155   0.313   1.358  0.2806  0.1499  0.4020
14113TIP3    H163754   2.097   0.356   1.420  1.2957  0.3419  1.2538
14113TIP3    H263755   2.213   0.260   1.413 -0.3344 -1.5951 -0.5518
14114TIP3   OH263756   0.929   4.099  16.556  0.0193  0.5025  0.0712
14114TIP3    H163757   1.001   4.156  16.529  0.4722 -0.0340  0.1325
14114TIP3    H263758   0.851   4.153  16.546  0.2036  0.5048 -1.8414
14115TIP3   OH263759   5.118   1.711   3.471  0.1268 -0.1740  0.0569
14115TIP3    H163760   5.122   1.801   3.504  0.7707 -0.5978  1.2238
14115TIP3    H263761   5.035   1.677   3.503  0.0993 -0.1406  0.0204
14116TIP3   OH263762   5.928   0.080   5.742  1.1862  0.1527 -0.2766
14116TIP3    H163763   5.855   0.137   5.717  0.7067 -0.4230 -0.2088
14116TIP3    H263764   5.908  -0.004   5.701  2.2882  0.2407 -1.0454
14117TIP3   OH263765   4.483   3.562   5.871  0.5391  0.4909  0.1476
14117TIP3    H163766   4.527   3.567   5.956  0.4442 -1.3296  0.3394
14117TIP3    H263767   4.390   3.562   5.893  0.4981  0.8140 -0.0215
14118TIP3   OH263768   3.199   3.667  17.329  0.0779  0.0905 -0.4972
14118TIP3    H163769   3.135   3.635  17.266 -1.2780  1.0191  0.3608
14118TIP3    H263770   3.151   3.730  17.383  2.1989  2.3815 -1.0849
14119TIP3   OH263771   4.851   5.624   1.088  0.0719  0.0251  0.7085
14119TIP3    H163772   4.861   5.694   1.024 -0.6969  0.0948  0.6597
14119TIP3    H263773   4.830   5.669   1.170 -2.1164 -0.1986  0.3217
14120TIP3   OH263774   0.864   0.958   5.756 -0.0208 -0.1094 -0.6113
14120TIP3    H163775   0.958   0.949   5.774 -0.3171 -0.8451  0.7046
14120TIP3    H263776   0.843   0.881   5.702 -0.0726 -0.5601  0.0378
14121TIP3   OH263777   6.024   4.314   5.027 -0.1053  0.5546 -0.1757
14121TIP3    H163778   5.947   4.306   4.970 -0.2738  0.5124  0.0564
14121TIP3    H263779   6.035   4.227   5.065  1.1365  0.0474 -1.5751
14122TIP3   OH263780   2.340   3.389  15.976 -0.5633  0.1704  0.0935
14122TIP3    H163781   2.363   3.446  15.902 -0.5305  0.1161  0.0610
14122TIP3    H263782   2.244   3.391  15.979 -0.5318  2.1405  1.5975
14123TIP3   OH263783   2.858   3.044  13.102 -0.1751 -0.2253 -0.2616
14123TIP3    H163784   2.900   3.082  13.025 -1.1612  0.0730 -0.6627
14123TIP3    H263785   2.765   3.039  13.079 -0.2331 -1.7851  0.2335
14124TIP3   OH263786   2.077   0.690   1.600  0.1895  0.5215 -0.2774
14124TIP3    H163787   2.041   0.720   1.517 -1.8808 -0.6616  0.1379
14124TIP3    H263788   2.048   0.755   1.664 -0.4140  0.0716 -0.0892
14125TIP3   OH263789   4.088   3.274  12.000 -0.4167  0.3052 -0.6866
14125TIP3    H163790   3.995   3.272  11.979 -0.5173 -1.8296 -0.2739
14125TIP3    H263791   4.091   3.299  12.093 -0.5583  0.6658 -0.7790
14126TIP3   OH263792   5.753   6.153   0.405 -0.4106 -0.0348  0.6531
14126TIP3    H163793   5.779   6.237   0.366  0.8623 -0.2969  0.8784
14126TIP3    H263794   5.825   6.094   0.383 -0.0104 -0.3926  2.7220
14127TIP3   OH263795   0.892   4.170   0.445  0.2020 -0.4709 -0.3308
14127TIP3    H163796   0.979   4.199   0.474 -0.7005  1.4407  0.6489
14127TIP3    H263797   0.867   4.234   0.378 -0.4947 -0.9276 -0.5137
14128TIP3   OH263798   1.323   0.953   0.320  0.3268 -0.0738 -0.4263
14128TIP3    H163799   1.298   0.862   0.302  0.7916 -0.3494  0.2538
14128TIP3    H263800   1.305   1.000   0.239 -1.4211 -0.4470 -0.2881
14129TIP3   OH263801   0.843   0.243  11.587  0.1308 -0.0398  0.1091
14129TIP3    H163802   0.878   0.316  11.638 -1.2557  0.6346  0.1615
14129TIP3    H263803   0.856   0.268  11.496 -0.2681  0.2520  0.1276
14130TIP3   OH263804   6.065   4.561  13.604  0.2853  0.2618 -0.1525
14130TIP3    H163805   6.011   4.597  13.535  0.1495  2.7564  1.1318
14130TIP3    H263806   6.147   4.538  13.561 -0.0441  1.1087 -1.2757
14131TIP3   OH263807   4.141   6.134   5.094  0.1573  0.4190  0.2643
14131TIP3    H163808   4.235   6.134   5.074 -0.1535 -1.1990 -1.4586
14131TIP3    H263809   4.105   6.202   5.037  0.1379  0.2018  0.0130
14132TIP3   OH263810   5.328   6.053  12.359  0.3144  0.2098  0.2227
14132TIP3    H163811   5.380   6.050  12.278 -1.1572 -0.2620 -0.7383
14132TIP3    H263812   5.256   6.113  12.339  0.3007  0.6313  1.4425
14133TIP3   OH263813   0.562   1.529   1.904 -0.2220  0.5196  0.3114
14133TIP3    H163814   0.534   1.556   1.991 -1.9691 -0.2175  0.0216
14133TIP3    H263815   0.654   1.506   1.914  0.2417  2.5888  1.4465
14134TIP3   OH263816   2.152   1.346   5.636 -0.3165  0.3299  0.3067
14134TIP3    H163817   2.146   1.434   5.599  3.3041  0.9743  0.8225
14134TIP3    H263818   2.119   1.288   5.568 -1.6531  1.9890 -0.5206
14135TIP3   OH263819   2.467   3.706  14.353 -0.0971  0.2175 -0.0590
14135TIP3    H163820   2.385   3.752  14.337 -0.7087 -1.1692 -1.1349
14135TIP3    H263821   2.450   3.653  14.431 -0.5114 -0.6577 -0.7270
14136TIP3   OH263822   4.958   1.240   0.408  0.1562 -0.1397  0.2137
14136TIP3    H163823   5.005   1.276   0.483 -0.1381  0.9235 -0.0830
14136TIP3    H263824   5.020   1.247   0.335 -0.8897  2.8076 -0.5522
14137TIP3   OH263825   1.384   3.490   1.742  0.0739 -0.3970 -0.0368
14137TIP3    H163826   1.427   3.406   1.723 -1.1068 -0.7123 -1.5060
14137TIP3    H263827   1.377   3.533   1.657 -0.1563  0.8088  0.5700
14138TIP3   OH263828   0.596   2.610  16.337 -0.1084  0.2780  0.3967
14138TIP3    H163829   0.647   2.540  16.296  0.3717  0.9105 -0.1047
14138TIP3    H263830   0.632   2.690  16.300 -1.2219  0.7562  0.3102
14139TIP3   OH263831   5.145   1.424   2.275 -0.6972  0.8224  0.2249
14139TIP3    H163832   5.063   1.462   2.307 -1.1322  0.6071 -0.6082
14139TIP3    H263833   5.147   1.336   2.313 -0.7212  0.9132  0.4439
14140TIP3   OH263834   2.444   5.582  14.626 -0.0762 -0.1809  0.6696
14140TIP3    H163835   2.499   5.504  14.614  0.8213  0.1391  2.4198
14140TIP3    H263836   2.482   5.647  14.567  0.2116 -0.5461  0.4449
14141TIP3   OH263837   0.335   1.659   3.845  0.0818  0.1377 -0.1421
14141TIP3    H163838   0.277   1.736   3.845  2.8538  2.4115 -0.2134
14141TIP3    H263839   0.388   1.670   3.765  0.5516 -1.8828 -0.1519
14142TIP3   OH263840   6.238   3.669  13.379 -0.5877  0.3305 -0.2410
14142TIP3    H163841   6.274   3.585  13.351 -0.6136 -0.5336  2.1117
14142TIP3    H263842   6.149   3.671  13.342  0.1334  0.3211 -2.0680
14143TIP3   OH263843   5.478   5.210  14.848 -0.3684  0.1100  0.0840
14143TIP3    H163844   5.558   5.162  14.870 -0.0790  0.9807  0.9996
14143TIP3    H263845   5.480   5.218  14.753  1.5176  1.5739  0.1895
14144TIP3   OH263846   4.641   0.058  13.457  0.0803  0.6248 -0.1303
14144TIP3    H163847   4.591   0.118  13.513  1.2266  1.5022 -0.0071
14144TIP3    H263848   4.586  -0.020  13.451 -0.4805  0.8547  1.4804
14145TIP3   OH263849   5.917   5.414   2.850  0.0467  0.4531 -0.2028
14145TIP3    H163850   5.962   5.374   2.924  2.9359 -0.3690 -2.2046
14145TIP3    H263851   5.829   5.433   2.882  1.4199  1.0506  3.6638
14146TIP3   OH263852   5.697   0.112  12.662 -0.2035  0.3193 -0.0849
14146TIP3    H163853   5.771   0.071  12.618 -1.1888 -0.5194 -1.0059
14146TIP3    H263854   5.736   0.185  12.711  1.5651 -1.5609  1.4619
14147TIP3   OH263855   6.362   3.409  12.612  0.0574 -0.1618  0.2622
14147TIP3    H163856   6.361   3.397  12.517 -2.3262 -2.4778  0.4523
14147TIP3    H263857   6.442   3.366  12.641  0.5491  0.1147 -0.6332
14148TIP3   OH263858   1.557   5.744   4.452 -0.7152 -0.5644 -0.0924
14148TIP3    H163859   1.475   5.793   4.455 -0.6133 -0.3531 -0.6835
14148TIP3    H263860   1.625   5.810   4.444 -0.4009 -0.6802  1.2591
14149TIP3   OH263861   1.799   0.919   0.496  0.2179 -0.2957 -0.5991
14149TIP3    H163862   1.767   0.903   0.585  0.5164 -0.8594 -0.5886
14149TIP3    H263863   1.794   1.014   0.486  2.3817  0.0564  0.8881
14150TIP3   OH263864   6.481   0.528  16.428  0.3233  0.5206 -0.1253
14150TIP3    H163865   6.450   0.535  16.518 -0.5389  0.4050 -0.4001
14150TIP3    H263866   6.572   0.500  16.435  0.1719  0.2213  0.7031
14151TIP3   OH263867   2.597   1.993  16.779 -0.1026  0.5808  0.3360
14151TIP3    H163868   2.618   2.075  16.824  0.2037  0.9296 -0.4260
14151TIP3    H263869   2.509   1.971  16.810 -0.1901  1.2028  0.5443
14152TIP3   OH263870   1.305   4.373  13.109 -0.6843  0.1873 -0.6209
14152TIP3    H163871   1.237   4.441  13.111 -1.2067 -0.3043 -1.2181
14152TIP3    H263872   1.381   4.417  13.072 -0.1886  1.1440  1.3921
14153TIP3   OH263873   5.122   5.463  15.151 -0.6328 -0.3906 -0.6788
14153TIP3    H163874   5.118   5.542  15.205 -2.5404  0.0847 -1.4502
14153TIP3    H263875   5.208   5.467  15.109  0.2648  0.0155  1.1202
14154TIP3   OH263876   5.798   4.380  14.710 -0.5068 -0.0242  0.1954
14154TIP3    H163877   5.879   4.335  14.687  0.0962  0.6891  0.8374
14154TIP3    H263878   5.736   4.355  14.642  0.5168  0.1249 -0.8219
14155TIP3   OH263879   4.096   5.236  12.013 -0.2137  0.0248  0.0627
14155TIP3    H163880   4.140   5.151  12.013 -1.2269 -0.5599  1.9442
14155TIP3    H263881   4.038   5.233  11.937  1.2227 -0.1296 -1.0646
14156TIP3   OH263882   1.280   3.294   0.142 -0.3433 -0.6791 -0.4389
14156TIP3    H163883   1.297   3.207   0.179 -2.1887 -1.1362 -0.5444
14156TIP3    H263884   1.233   3.276   0.061 -0.1401  0.4134 -0.8114
14157TIP3   OH263885   3.157   6.483   3.166 -0.2490  0.4294  0.4121
14157TIP3    H163886   3.223   6.495   3.234  0.5099 -0.7480 -0.0736
14157TIP3    H263887   3.078   6.457   3.214  0.7729 -2.3019  0.8028
14158TIP3   OH263888   0.300   6.299  13.857  0.3426  0.4990  0.0397
14158TIP3    H163889   0.351   6.269  13.933 -0.5044 -0.5636  0.2163
14158TIP3    H263890   0.289   6.221  13.803 -0.2411  0.9360 -0.4910
14159TIP3   OH263891   5.940   4.065   3.072 -0.7093  0.0727  0.4255
14159TIP3    H163892   5.899   4.092   3.154 -0.9497  1.1361 -0.0206
14159TIP3    H263893   6.004   4.134   3.053 -0.4366 -0.3204 -0.1191
14160TIP3   OH263894   3.006   0.407   6.130  0.0384  0.3727 -0.1654
14160TIP3    H163895   2.960   0.342   6.077 -0.4468  0.2935  0.3395
14160TIP3    H263896   3.095   0.374   6.137 -0.6343 -1.2706  1.6654
14161TIP3   OH263897   0.190   5.722  15.498 -0.3646  0.1140  0.1579
14161TIP3    H163898   0.203   5.797  15.557 -1.4750 -0.8143  1.6672
14161TIP3    H263899   0.261   5.729  15.435 -0.3036  2.2998  0.3893
14162TIP3   OH263900   5.530   1.438  14.924  1.0269  0.2423 -0.5383
14162TIP3    H163901   5.499   1.528  14.918  0.2593  0.1551  1.3088
14162TIP3    H263902   5.623   1.443  14.901  1.0687  1.5630 -0.1659
14163TIP3   OH263903   3.980   1.986   3.112  0.3055  0.2701  0.3731
14163TIP3    H163904   3.981   1.946   3.026  2.1535 -0.6500  0.7778
14163TIP3    H263905   4.072   1.993   3.137 -0.1821 -0.0384  2.5025
14164TIP3   OH263906   2.077   6.573  14.029  0.1708  0.0484  0.5947
14164TIP3    H163907   2.116   6.605  13.947  1.2309  2.5715  1.9485
14164TIP3    H263908   1.984   6.565  14.010  0.3504  0.8545 -0.7861
14165TIP3   OH263909   5.918   1.080   5.423  0.5297 -0.0260 -0.4367
14165TIP3    H163910   5.993   1.054   5.369  0.3104 -1.9200  0.1072
14165TIP3    H263911   5.934   1.172   5.443  2.6115 -0.3289 -0.5147
14166TIP3   OH263912   1.511   4.052  15.333  0.5109 -0.6214 -0.4092
14166TIP3    H163913   1.423   4.087  15.320  1.0534  2.1219  2.1112
14166TIP3    H263914   1.563   4.090  15.262  0.9537  3.7295  1.9088
14167TIP3   OH263915   2.074   5.560   1.013  0.2844  0.2376  0.1604
14167TIP3    H163916   2.140   5.627   1.029  1.2209 -0.0097 -2.2346
14167TIP3    H263917   2.104   5.515   0.934 -1.9064 -0.9865 -0.0589
14168TIP3   OH263918   6.288   5.811   5.245  0.2593 -0.2601  0.2710
14168TIP3    H163919   6.356   5.792   5.181 -0.0952  2.4880 -1.0585
14168TIP3    H263920   6.207   5.781   5.203  0.0906  1.0588 -0.3833
14169TIP3   OH263921   0.769   2.609  17.222  0.4158 -0.0465  0.5967
14169TIP3    H163922   0.778   2.575  17.133  3.5695  0.2874  0.6854
14169TIP3    H263923   0.799   2.699  17.217 -1.3249  0.6516  1.6812
14170TIP3   OH263924   1.898   0.287  16.477 -0.2724  0.1550  0.0305
14170TIP3    H163925   1.815   0.315  16.517  0.0117  1.2510 -0.1294
14170TIP3    H263926   1.944   0.242  16.548 -0.5070  0.5877  0.4646
14171TIP3   OH263927   1.755   4.463  16.055 -0.1631 -0.4905  0.0926
14171TIP3    H163928   1.765   4.492  15.964  0.2789 -0.0226  0.2906
14171TIP3    H263929   1.662   4.476  16.073 -0.2536 -0.5736 -0.2886
14172TIP3   OH263930   0.386   1.529  14.263 -0.2097 -0.4254  0.7131
14172TIP3    H163931   0.398   1.600  14.200 -0.2362 -1.6045 -0.6818
14172TIP3    H263932   0.458   1.468  14.244 -2.1808 -2.5229 -0.6462
14173TIP3   OH263933   1.304   0.920  16.930 -0.1344  0.1805  0.1458
14173TIP3    H163934   1.382   0.868  16.910 -0.5192 -0.5343  0.4529
14173TIP3    H263935   1.283   0.897  17.021 -2.7878 -2.4439 -0.9881
14174TIP3   OH263936   2.314   6.641  15.962 -0.1144 -0.1837 -0.0895
14174TIP3    H163937   2.266   6.684  16.033  2.0964  1.8922  0.2602
14174TIP3    H263938   2.325   6.709  15.896 -0.2815 -1.4981 -1.5447
14175TIP3   OH263939   3.986   4.320  13.257  0.1354 -0.6428 -0.3491
14175TIP3    H163940   3.948   4.247  13.207 -1.4081 -0.7743  0.9104
14175TIP3    H263941   4.047   4.278  13.318  0.3593 -0.7210 -0.6283
14176TIP3   OH263942   5.366   0.557   1.948  0.1991  0.6881 -0.1273
14176TIP3    H163943   5.298   0.520   2.005  1.0640  0.3246  0.7064
14176TIP3    H263944   5.320   0.621   1.894 -1.0324 -0.4427 -0.4630
14177TIP3   OH263945   6.683   2.813   6.113  0.7377 -0.0868 -0.5730
14177TIP3    H163946   6.777   2.806   6.093  0.5149 -1.4004 -1.3005
14177TIP3    H263947   6.642   2.747   6.057 -0.6526  0.5892 -0.3938
14178TIP3   OH263948   1.666   1.648   1.500  0.6005  0.4184  0.3159
14178TIP3    H163949   1.668   1.739   1.471 -0.6130  0.4288  0.1954
14178TIP3    H263950   1.708   1.599   1.430 -1.0869  0.6037 -0.8928
14179TIP3   OH263951   6.397   1.772  16.589  0.1141  0.5415 -0.3378
14179TIP3    H163952   6.463   1.805  16.650  0.1301 -0.4132  0.1929
14179TIP3    H263953   6.349   1.849  16.561 -0.0778  0.9700  1.1118
14180TIP3   OH263954   1.828   4.784   0.334  0.6463 -0.0426 -0.4441
14180TIP3    H163955   1.859   4.872   0.356  1.3328 -0.6251  1.0225
14180TIP3    H263956   1.733   4.790   0.341  0.7856  0.0634  1.8247
14181TIP3   OH263957   2.594   2.931  14.047 -0.5994  0.6110  0.2060
14181TIP3    H163958   2.505   2.967  14.057 -0.8541  0.2190 -0.5620
14181TIP3    H263959   2.638   2.954  14.128 -1.0336  1.8648  0.1071
14182TIP3   OH263960   3.072   1.032   5.531  0.2013  0.2066 -0.1334
14182TIP3    H163961   3.077   1.046   5.626 -0.8979  1.6156 -0.2385
14182TIP3    H263962   3.020   0.952   5.521  0.9380 -0.3567  0.4527
14183TIP3   OH263963   0.141   2.847  17.113  0.1644  0.3648 -0.1501
14183TIP3    H163964   0.156   2.756  17.087  0.4230  0.5375 -0.6169
14183TIP3    H263965   0.116   2.891  17.032 -0.1861  0.6630  0.1174
14184TIP3   OH263966   1.879   5.640   4.676  0.8258 -0.3734 -0.1234
14184TIP3    H163967   1.929   5.577   4.726  1.7496 -0.7042 -1.4204
14184TIP3    H263968   1.936   5.717   4.669  0.1226  0.2247  0.5630
14185TIP3   OH263969   4.803   0.480   3.877  0.4442  0.6737 -0.3138
14185TIP3    H163970   4.771   0.423   3.807 -3.9748  1.3055  0.8913
14185TIP3    H263971   4.823   0.563   3.833  2.4976 -0.2831 -1.3730
14186TIP3   OH263972   1.725   3.867  11.432 -0.3593  0.6638  0.2857
14186TIP3    H163973   1.693   3.873  11.342 -0.7740  0.8040  0.4384
14186TIP3    H263974   1.717   3.774  11.454  0.8680  0.4244 -0.2200
14187TIP3   OH263975   2.307   1.934   3.267 -0.4389 -0.2610  0.5299
14187TIP3    H163976   2.243   2.004   3.250 -1.4023 -0.9386  1.3227
14187TIP3    H263977   2.266   1.855   3.232  1.1675 -0.2937 -1.5077
14188TIP3   OH263978   1.402   2.007   4.285 -0.6255  0.0764 -0.3921
14188TIP3    H163979   1.350   2.008   4.366  0.4449  1.0346  0.3267
14188TIP3    H263980   1.391   1.918   4.250 -0.7991 -0.4936  1.0339
14189TIP3   OH263981   6.653   4.589  12.438 -0.5963 -0.1414  0.4382
14189TIP3    H163982   6.634   4.552  12.352  0.2259  3.1065 -1.3075
14189TIP3    H263983   6.746   4.571  12.453  0.1518  2.0964 -1.0246
14190TIP3   OH263984   1.072   4.531  16.584 -0.2772 -0.0457  0.5351
14190TIP3    H163985   1.121   4.449  16.594 -1.0298 -0.4019  1.4748
14190TIP3    H263986   1.009   4.514  16.514 -0.3655 -0.2486  0.6622
14191TIP3   OH263987   3.244   2.096   3.675  0.1175 -0.2399  0.3581
14191TIP3    H163988   3.323   2.130   3.632 -0.1036  0.6761  0.6589
14191TIP3    H263989   3.258   2.112   3.768  0.0890 -1.1625  0.5268
14192TIP3   OH263990   0.361   2.454   1.322  0.7233 -0.1786  0.0479
14192TIP3    H163991   0.343   2.535   1.274 -0.7543 -0.1771  0.5559
14192TIP3    H263992   0.446   2.425   1.289 -0.0717 -0.0041 -2.3620
14193TIP3   OH263993   0.380   3.273  12.858  0.4047 -0.1222 -0.3937
14193TIP3    H163994   0.399   3.241  12.770 -1.1254 -1.3719 -0.3091
14193TIP3    H263995   0.333   3.355  12.844  1.1667  0.2682 -0.7032
14194TIP3   OH263996   6.457   0.634   2.831 -0.0239 -0.1405 -0.5850
14194TIP3    H163997   6.374   0.682   2.825  0.9945  1.9817  0.8254
14194TIP3    H263998   6.443   0.571   2.902 -1.2965 -1.8859 -2.2770
14195TIP3   OH263999   5.852   1.204   3.944 -0.3430  0.5621  0.6586
14195TIP3    H164000   5.766   1.184   3.907 -0.0690 -0.7578  0.7038
14195TIP3    H264001   5.876   1.288   3.905 -0.6728 -0.1282 -1.1062
14196TIP3   OH264002   2.275   2.584  15.208  0.2530 -0.1994 -0.3626
14196TIP3    H164003   2.265   2.537  15.126  1.0522  1.1836 -1.2961
14196TIP3    H264004   2.222   2.663  15.197 -0.1630 -0.3050  0.7234
14197TIP3   OH264005   4.112   4.818   5.330  0.4106  0.6961  0.0441
14197TIP3    H164006   4.151   4.843   5.414 -0.9415  1.2641  0.5274
14197TIP3    H264007   4.044   4.883   5.315 -0.9557 -0.7549 -0.3057
14198TIP3   OH264008   0.098   5.599   1.891  0.6705 -0.5284 -0.0731
14198TIP3    H164009   0.075   5.619   1.981  0.7778 -0.3669 -0.0816
14198TIP3    H264010   0.183   5.640   1.878  0.0573  0.5935 -0.6561
14199TIP3   OH264011   5.249   3.408   4.565  0.5709  0.3708  0.0168
14199TIP3    H164012   5.166   3.456   4.573 -0.0030 -0.4364 -0.8732
14199TIP3    H264013   5.235   3.328   4.615  0.5372 -0.1121 -0.7553
14200TIP3   OH264014   6.385   1.085  16.086 -0.1386  0.4315  0.1248
14200TIP3    H164015   6.413   1.091  15.994 -2.3283  0.5965 -0.5938
14200TIP3    H264016   6.452   1.031  16.128  0.8156  0.1833 -1.6140
14201TIP3   OH264017   6.478   0.817  15.828  0.2456 -0.2573  0.3087
14201TIP3    H164018   6.492   0.803  15.921  0.2504  0.4336  0.4139
14201TIP3    H264019   6.542   0.760  15.785 -0.0596 -0.9211  0.7123
14202TIP3   OH264020   0.554   1.628   4.425 -0.0836  0.3723 -0.0348
14202TIP3    H164021   0.567   1.546   4.377  0.1790  0.0213  0.6123
14202TIP3    H264022   0.642   1.661   4.442 -0.0020 -0.7666  2.2647
14203TIP3   OH264023   6.285   1.411   1.838 -0.0284  0.4785  0.2490
14203TIP3    H164024   6.289   1.495   1.883 -1.8491  0.9130 -0.3211
14203TIP3    H264025   6.236   1.429   1.758  2.7693 -0.3539 -1.7924
14204TIP3   OH264026   2.459   3.236  10.423  0.2157  0.4356  0.1163
14204TIP3    H164027   2.397   3.259  10.492 -0.0875 -3.5323  1.4140
14204TIP3    H264028   2.409   3.247  10.341 -1.2005  0.1324  0.9119
14205TIP3   OH264029   4.201   5.600  14.392 -0.3385 -0.1407  0.5435
14205TIP3    H164030   4.219   5.516  14.350 -0.0163  0.0340  0.3263
14205TIP3    H264031   4.210   5.583  14.485 -0.0993 -0.3076  0.4919
14206TIP3   OH264032   0.958   6.321  10.318  0.3414  0.0253  0.1908
14206TIP3    H164033   0.870   6.283  10.317  0.2037  0.3640 -0.8811
14206TIP3    H264034   0.960   6.373  10.399 -0.2564 -0.3989  0.4867
14207TIP3   OH264035   2.447   4.593   2.165  0.0706 -0.5037 -0.5768
14207TIP3    H164036   2.491   4.658   2.220  0.7185 -0.5616 -1.0132
14207TIP3    H264037   2.408   4.645   2.095 -0.9742 -0.4035  0.0698
14208TIP3   OH264038   5.693   5.579  16.310 -0.4348  0.3909  0.0658
14208TIP3    H164039   5.787   5.577  16.329 -0.3003 -1.0067 -0.5903
14208TIP3    H264040   5.653   5.525  16.379 -0.4800 -0.7854 -0.8363
14209TIP3   OH264041   4.276   0.885  10.486 -0.7688  0.0742  0.0729
14209TIP3    H164042   4.297   0.792  10.495 -1.6893 -0.2142 -0.5933
14209TIP3    H264043   4.348   0.922  10.434 -0.7335 -0.4047 -0.2197
14210TIP3   OH264044   4.500   1.778  10.593  0.6877  0.2056  0.3163
14210TIP3    H164045   4.582   1.799  10.549  0.1089 -1.0059 -1.4431
14210TIP3    H264046   4.525   1.718  10.663  1.2659 -0.5005 -0.4774
14211TIP3   OH264047   1.214   1.577   0.176  0.6813  0.3070  0.3846
14211TIP3    H164048   1.229   1.504   0.237 -1.1398  0.2001  0.7655
14211TIP3    H264049   1.289   1.635   0.189  1.6691 -1.0032  0.7930
14212TIP3   OH264050   1.624   6.368  16.104 -0.3414  0.2461  0.0402
14212TIP3    H164051   1.553   6.390  16.165  0.4276  2.8287  0.1057
14212TIP3    H264052   1.582   6.369  16.018 -0.6003  0.7676  0.1671
14213TIP3   OH264053   0.500   3.577   4.147 -0.0273 -0.3609  0.3340
14213TIP3    H164054   0.541   3.498   4.181  1.7529  0.2523 -0.2808
14213TIP3    H264055   0.571   3.624   4.102 -1.6419  0.1966 -1.8045
14214TIP3   OH264056   6.343   3.347   0.556  0.1766  0.0829  0.6519
14214TIP3    H164057   6.254   3.337   0.524  0.4809  0.7622 -0.4548
14214TIP3    H264058   6.370   3.435   0.529  1.8603 -0.8235 -0.8460
14215TIP3   OH264059   2.403   5.510   6.487  0.4206 -0.0284 -0.7454
14215TIP3    H164060   2.383   5.484   6.577 -2.6326 -1.0753 -1.6070
14215TIP3    H264061   2.487   5.556   6.493  1.0052 -1.2898  2.3923
14216TIP3   OH264062   5.026   4.132   2.163  0.2942 -0.1416  0.3980
14216TIP3    H164063   4.936   4.109   2.183  0.0504  1.2222  0.9673
14216TIP3    H264064   5.027   4.144   2.068 -0.2822  0.4411  0.4575
14217TIP3   OH264065   5.140   2.472  14.202 -0.6086  0.6573  0.2929
14217TIP3    H164066   5.162   2.496  14.292  1.7191  1.4344 -0.4182
14217TIP3    H264067   5.122   2.378  14.207 -1.8080  0.9226  1.7555
14218TIP3   OH264068   2.094   3.340   2.961  0.3006  0.1511 -0.5726
14218TIP3    H164069   2.124   3.251   2.977  0.7541 -0.0303 -2.2641
14218TIP3    H264070   2.070   3.341   2.868  0.8666  1.9306 -0.7404
14219TIP3   OH264071   2.127   1.698  16.385 -0.6019  0.3807  0.0662
14219TIP3    H164072   2.122   1.649  16.467  2.9173 -1.1646 -0.4789
14219TIP3    H264073   2.076   1.645  16.322  2.2347 -2.2507 -0.2446
14220TIP3   OH264074   3.320   6.072   0.612  0.3262  0.5345 -0.5797
14220TIP3    H164075   3.297   6.012   0.682 -0.7345 -0.6187 -1.8674
14220TIP3    H264076   3.416   6.069   0.608  0.2886 -1.0466 -0.5961
14221TIP3   OH264077   0.991   4.400   3.836  0.1804  0.4270  0.8400
14221TIP3    H164078   0.944   4.481   3.853 -1.3949 -0.4478  0.8610
14221TIP3    H264079   0.977   4.384   3.742 -1.3136 -0.8612  1.2475
14222TIP3   OH264080   6.011   4.340  14.396  0.2288  0.0446  0.3956
14222TIP3    H164081   6.006   4.245  14.384  1.6975 -0.0009  0.0284
14222TIP3    H264082   6.016   4.351  14.491 -1.4079 -0.1316  0.5410
14223TIP3   OH264083   4.722   4.164  15.532 -0.4339 -0.3091 -0.2105
14223TIP3    H164084   4.636   4.176  15.493 -0.5851  2.2107  0.7130
14223TIP3    H264085   4.784   4.195  15.465 -0.3888 -0.1265 -0.0844
14224TIP3   OH264086   6.160   2.523  15.577 -0.2772 -0.2339 -0.2803
14224TIP3    H164087   6.125   2.444  15.618  0.7976 -0.5046  0.1556
14224TIP3    H264088   6.174   2.499  15.485  0.3336 -0.6587 -0.0821
14225TIP3   OH264089   3.527   5.949  12.735 -0.3104 -0.2116 -0.4732
14225TIP3    H164090   3.495   5.944  12.825 -1.8484  0.4564 -0.9511
14225TIP3    H264091   3.617   5.980  12.744 -0.6611  0.5445  0.8103
14226TIP3   OH264092   4.655   5.444   5.981  0.0213  0.8065  0.7065
14226TIP3    H164093   4.656   5.387   6.057 -1.8626  1.0259  0.9424
14226TIP3    H264094   4.742   5.484   5.979  0.8067 -0.7827  1.4915
14227TIP3   OH264095   5.067   1.843   2.991 -0.2426  0.1282 -0.1870
14227TIP3    H164096   5.033   1.757   3.016 -1.3992  0.5727 -0.2151
14227TIP3    H264097   5.141   1.858   3.052 -1.3173  0.0099  1.1989
14228TIP3   OH264098   1.685   2.768   2.796  0.2782  0.5416  0.0149
14228TIP3    H164099   1.770   2.726   2.786 -0.1289 -0.4267  0.4956
14228TIP3    H264100   1.669   2.769   2.890 -0.8444 -0.5627 -0.1323
14229TIP3   OH264101   5.301   6.293   0.598  0.4433 -0.1459  0.4152
14229TIP3    H164102   5.377   6.283   0.656  1.4393 -1.5239 -1.0561
14229TIP3    H264103   5.264   6.205   0.591 -1.2147  0.4618  0.9366
14230TIP3   OH264104   4.026   4.697   3.466  0.1479  0.4023  0.2801
14230TIP3    H164105   4.101   4.756   3.456 -0.0322  0.7245  0.7953
14230TIP3    H264106   4.048   4.644   3.542  0.1260  0.0754  0.0599
14231TIP3   OH264107   2.562   6.260  11.386 -0.4116  0.5059 -0.2177
14231TIP3    H164108   2.598   6.172  11.397 -1.3862  0.0247 -0.7734
14231TIP3    H264109   2.483   6.248  11.332 -0.2360  1.7869 -0.8072
14232TIP3   OH264110   5.319   3.113  12.730 -0.3881  0.3344  0.0775
14232TIP3    H164111   5.272   3.147  12.806 -0.0123  0.0378  0.4407
14232TIP3    H264112   5.356   3.192  12.688 -1.5953  0.6300 -0.4926
14233TIP3   OH264113   5.717   0.803  16.998 -0.1357  0.1997  0.2011
14233TIP3    H164114   5.673   0.759  17.071 -1.3138  1.8160  0.5102
14233TIP3    H264115   5.661   0.785  16.923  1.0332 -1.3919 -0.3626
14234TIP3   OH264116   1.345   1.245  14.031 -0.0832  0.1218 -0.1159
14234TIP3    H164117   1.365   1.152  14.018 -0.9706 -0.1014  0.0285
14234TIP3    H264118   1.405   1.291  13.973  0.1790 -0.5566 -0.3977
14235TIP3   OH264119   0.935   3.566   2.301 -0.2952 -0.6178  0.5727
14235TIP3    H164120   0.982   3.641   2.265 -2.3209  0.2618 -0.4047
14235TIP3    H264121   0.846   3.575   2.268 -1.0346 -2.5363  1.8341
14236TIP3   OH264122   3.189   2.730   1.063  0.3909  0.7821 -0.2819
14236TIP3    H164123   3.206   2.822   1.083  2.4583  0.6773 -1.2310
14236TIP3    H264124   3.276   2.693   1.045 -0.6269 -0.7191 -2.5383
14237TIP3   OH264125   6.319   0.830  13.186  0.1614  0.0707 -0.4918
14237TIP3    H164126   6.298   0.869  13.271 -0.1777  0.0840 -0.5801
14237TIP3    H264127   6.389   0.885  13.152 -1.3813  1.6402 -1.3379
14238TIP3   OH264128   3.702   5.809   2.567  0.2020  0.0426  0.4526
14238TIP3    H164129   3.631   5.858   2.609  0.6175 -0.4442  1.7534
14238TIP3    H264130   3.782   5.845   2.604  0.5113 -2.0146  1.9479
14239TIP3   OH264131   5.901   3.992   2.282 -0.3438  0.2223 -0.0662
14239TIP3    H164132   5.914   3.902   2.312 -0.3159 -0.0732 -0.9412
14239TIP3    H264133   5.880   4.041   2.361 -2.0164 -0.8603  0.2115
14240TIP3   OH264134   1.531   2.920  15.904  0.1811  0.3906 -0.4705
14240TIP3    H164135   1.447   2.916  15.859  0.3620 -0.5838 -0.7528
14240TIP3    H264136   1.588   2.970  15.846 -0.3344  1.4763 -0.0495
14241TIP3   OH264137   0.252   4.100  15.667 -0.3992 -0.4402 -0.0716
14241TIP3    H164138   0.274   4.104  15.574 -0.6224 -2.2949 -0.2405
14241TIP3    H264139   0.320   4.044  15.705 -0.9198 -0.5635  0.6914
14242TIP3   OH264140   5.843   2.569   5.123 -0.0579 -0.3345 -0.7413
14242TIP3    H164141   5.925   2.534   5.088  0.8450  1.0164 -0.0657
14242TIP3    H264142   5.866   2.655   5.156 -1.6020 -0.2292  0.1634
14243TIP3   OH264143   1.681   4.321  13.780 -0.0553  0.0304 -0.2903
14243TIP3    H164144   1.761   4.372  13.795 -1.2287  1.1798  2.6898
14243TIP3    H264145   1.707   4.255  13.715  2.2761  2.6095 -2.2324
14244TIP3   OH264146   5.472   0.296  15.481  0.9082  0.0231 -0.0435
14244TIP3    H164147   5.388   0.295  15.528 -0.1774 -3.8969 -1.7017
14244TIP3    H264148   5.451   0.336  15.397  1.2806  0.9421  0.2802
14245TIP3   OH264149   2.153   0.890  15.449 -0.1828 -0.3242 -0.3114
14245TIP3    H164150   2.074   0.885  15.397 -0.8784 -0.5920  0.7362
14245TIP3    H264151   2.132   0.953  15.518  0.8936  0.4226 -0.6379
14246TIP3   OH264152   4.544   1.557  10.790  0.2594  0.2293  0.2248
14246TIP3    H164153   4.526   1.612  10.866  1.1936  1.1103 -0.1685
14246TIP3    H264154   4.468   1.498  10.784 -0.6037  1.2439  0.8569
14247TIP3   OH264155   1.913   2.721  11.966 -0.0894  0.2795 -0.3364
14247TIP3    H164156   1.856   2.784  11.921  0.4657  1.0895  0.0782
14247TIP3    H264157   1.936   2.764  12.048  0.4149 -0.4091 -0.1124
14248TIP3   OH264158   0.148   5.641  14.222 -0.0265  0.1452 -0.4349
14248TIP3    H164159   0.152   5.733  14.247 -1.3783  0.4982 -1.4043
14248TIP3    H264160   0.061   5.631  14.183  0.4689 -1.3192 -1.2097
14249TIP3   OH264161   1.982   1.805  14.202  0.3305  0.3311 -0.3561
14249TIP3    H164162   1.994   1.860  14.124  0.0438  0.0802 -0.5779
14249TIP3    H264163   1.887   1.795  14.209  0.3857 -0.1520 -0.3271
14250TIP3   OH264164   3.360   0.270   3.409 -0.6177 -0.1804  0.8375
14250TIP3    H164165   3.297   0.253   3.340  0.4386  2.7323 -1.0221
14250TIP3    H264166   3.313   0.323   3.473 -0.4201  1.0140  0.0213
14251TIP3   OH264167   1.330   3.415   4.196  0.0524 -0.2418  0.3267
14251TIP3    H164168   1.309   3.508   4.185 -1.6420 -0.4078  1.7989
14251TIP3    H264169   1.355   3.407   4.288  1.4383 -1.0579 -0.0926
14252TIP3   OH264170   1.655   0.037   4.280 -0.1038 -0.0476  0.1016
14252TIP3    H164171   1.732   0.079   4.318 -1.0847 -0.4513  2.7144
14252TIP3    H264172   1.670  -0.057   4.293  0.0520 -0.3107 -1.6696
14253TIP3   OH264173   6.088   3.483   0.153 -0.1659 -0.3192  0.3907
14253TIP3    H164174   6.102   3.389   0.141  1.5618 -0.0267 -0.0462
14253TIP3    H264175   6.051   3.513   0.069  0.4103 -0.4041  0.1053
14254TIP3   OH264176   5.291   0.899  11.707 -0.2612 -0.3774 -0.3715
14254TIP3    H164177   5.325   0.880  11.795 -2.1076 -0.8491  0.2975
14254TIP3    H264178   5.318   0.824  11.654  1.9158  0.4724 -0.5793
14255TIP3   OH264179   3.914   3.460  17.022  0.0983  0.1137  0.3210
14255TIP3    H164180   3.849   3.530  17.016 -0.3008 -0.2658  0.1969
14255TIP3    H264181   3.864   3.382  17.045  0.6060 -0.0430  0.9114
14256TIP3   OH264182   4.639   6.414   0.782  0.0780 -0.7169  0.4395
14256TIP3    H164183   4.695   6.475   0.734 -1.1577  0.2769  0.2287
14256TIP3    H264184   4.689   6.394   0.862 -0.1843  1.8979  1.3516
14257TIP3   OH264185   0.282   0.076   1.918  0.6940  0.6098  0.1087
14257TIP3    H164186   0.292   0.161   1.875  0.6837  0.0362 -1.0756
14257TIP3    H264187   0.196   0.080   1.960  0.6959  1.1814  0.0561
14258TIP3   OH264188   5.284   3.662  14.881 -0.1642  0.3206  0.2339
14258TIP3    H164189   5.311   3.578  14.920 -0.0400  0.5854  0.7229
14258TIP3    H264190   5.195   3.675  14.913 -1.2653 -0.9713 -2.0550
14259TIP3   OH264191   1.965   4.900   2.931  0.1233 -0.8846 -0.3685
14259TIP3    H164192   1.984   4.863   3.017  2.0181 -1.0668 -0.8017
14259TIP3    H264193   1.888   4.853   2.900 -0.8394 -0.5267  1.3801
14260TIP3   OH264194   1.581   0.060  13.406 -0.6267  0.4725  0.1709
14260TIP3    H164195   1.674   0.045  13.424 -0.2463  1.0467 -1.1746
14260TIP3    H264196   1.576   0.154  13.385 -1.3174  0.2265 -0.8274
14261TIP3   OH264197   6.676   3.376   3.804  0.2404 -0.0949 -0.4733
14261TIP3    H164198   6.770   3.363   3.810  0.4462  1.0591 -0.7915
14261TIP3    H264199   6.654   3.351   3.715  0.3230 -0.0064 -0.5197
14262TIP3   OH264200   5.250   5.849   5.275 -0.0527  0.3515  0.9646
14262TIP3    H164201   5.180   5.851   5.209  0.4837 -0.9275  0.3098
14262TIP3    H264202   5.206   5.829   5.357 -0.6057  0.8497  0.7920
14263TIP3   OH264203   6.269   3.897   5.724  0.1765 -0.4226  0.6971
14263TIP3    H164204   6.236   3.936   5.643 -1.7724 -2.4037  0.4230
14263TIP3    H264205   6.339   3.838   5.696 -0.4220 -1.0232  0.4540
14264TIP3   OH264206   5.169   1.351   3.690  0.6397  0.4242  0.2696
14264TIP3    H164207   5.191   1.410   3.618  1.4018  1.9186  1.6782
14264TIP3    H264208   5.087   1.385   3.725  0.1024 -0.4885 -0.0739
14265TIP3   OH264209   1.209   5.112  13.801  0.3844  0.6303 -0.0919
14265TIP3    H164210   1.182   5.045  13.865 -0.4169 -0.4405 -1.5038
14265TIP3    H264211   1.129   5.161  13.783  0.1118 -0.3402 -1.7125
14266TIP3   OH264212   0.079   5.591  14.582  0.3580  0.3620 -0.0156
14266TIP3    H164213   0.115   5.531  14.517 -2.2615  0.2290 -1.4909
14266TIP3    H264214   0.123   5.675  14.565  0.0829  0.1989 -1.6577
14267TIP3   OH264215   1.583   4.434   1.319  0.1846 -0.3640 -0.3558
14267TIP3    H164216   1.488   4.449   1.318  0.1981 -0.0431  1.3264
14267TIP3    H264217   1.594   4.350   1.362  0.6680 -0.3562 -0.4587
14268TIP3   OH264218   1.853   4.253   1.320 -0.5816 -0.1339 -0.2010
14268TIP3    H164219   1.764   4.241   1.354 -0.4855  0.3678  0.2472
14268TIP3    H264220   1.905   4.278   1.397 -0.4191  1.3310 -0.7433
14269TIP3   OH264221   2.910   1.625  16.985 -0.1926 -0.5587  0.1101
14269TIP3    H164222   2.976   1.604  17.051 -0.1986 -1.5335 -0.1886
14269TIP3    H264223   2.861   1.698  17.024  0.4140 -0.4780  0.7602
14270TIP3   OH264224   2.084   4.882  16.417 -0.0778 -0.2078  0.1560
14270TIP3    H164225   2.159   4.822  16.420  2.7943  2.9467 -1.4260
14270TIP3    H264226   2.032   4.859  16.493  3.2671 -1.7504  2.2230
14271TIP3   OH264227   0.193   0.787   3.803 -0.5146  0.2557  0.3630
14271TIP3    H164228   0.190   0.829   3.717 -3.7321  2.3737  1.3349
14271TIP3    H264229   0.269   0.825   3.847  0.4553  0.0423 -1.0632
14272TIP3   OH264230   5.632   6.543  11.578  0.1453 -0.3367  0.0945
14272TIP3    H164231   5.567   6.612  11.562  2.3394  2.0541  0.7303
14272TIP3    H264232   5.620   6.522  11.671 -0.1168 -0.3546  0.0589
14273TIP3   OH264233   3.966   5.481   4.908  0.6637 -0.9089  0.7189
14273TIP3    H164234   4.010   5.450   4.987  0.5280  1.1335  1.6637
14273TIP3    H264235   4.022   5.450   4.836  1.2883 -2.0233  1.6466
14274TIP3   OH264236   3.902   3.213  14.524  0.1590  0.0056  0.1238
14274TIP3    H164237   3.862   3.167  14.451  0.1059  0.1721  0.0480
14274TIP3    H264238   3.956   3.281  14.484 -0.2095  0.3742  0.2500
14275TIP3   OH264239   4.228   2.184  11.847  0.4714  0.2426  0.0862
14275TIP3    H164240   4.228   2.158  11.939 -0.0354 -1.5954 -0.4012
14275TIP3    H264241   4.262   2.274  11.848  1.5223 -0.1162  1.9484
14276TIP3   OH264242   3.370   1.197   0.025  0.3653 -0.4175  0.8248
14276TIP3    H164243   3.325   1.241   0.097 -0.0338  0.9004 -0.2002
14276TIP3    H264244   3.334   1.237  -0.054  0.3790 -2.2198 -0.1493
14277TIP3   OH264245   6.418   3.298   5.644  0.1385  0.3292 -0.0235
14277TIP3    H164246   6.369   3.276   5.723 -1.9041 -1.9449 -1.7998
14277TIP3    H264247   6.509   3.275   5.666 -0.7287 -2.7409  0.9182
14278TIP3   OH264248   1.030   4.961   2.399  0.0244 -0.0012  0.1445
14278TIP3    H164249   1.020   5.037   2.456 -1.0202 -0.4564  0.5875
14278TIP3    H264250   1.086   4.992   2.327  0.8986  0.7334  1.1200
14279TIP3   OH264251   3.683   4.182  13.914  0.2749  0.1637 -0.1203
14279TIP3    H164252   3.769   4.219  13.930 -0.4729  1.1046  2.1595
14279TIP3    H264253   3.623   4.256  13.916 -0.9900 -0.8020  2.2101
14280TIP3   OH264254   1.163   4.371  13.452 -0.3051  0.2067 -0.1372
14280TIP3    H164255   1.137   4.317  13.526  0.2356  0.4372  0.2304
14280TIP3    H264256   1.257   4.386  13.466 -0.2451  0.4260 -0.7546
14281TIP3   OH264257   0.030   6.056  14.016 -0.0959  0.5282 -0.6153
14281TIP3    H164258   0.082   5.995  13.964 -1.2884 -0.2131 -0.9777
14281TIP3    H264259  -0.004   6.119  13.952  0.5002  1.1381 -0.3496
14282TIP3   OH264260   5.298   1.841   4.032  0.1710 -0.2896  0.4754
14282TIP3    H164261   5.295   1.937   4.037 -1.1387 -0.2682 -0.3798
14282TIP3    H264262   5.338   1.815   4.115  1.2364  1.0196  0.4070
14283TIP3   OH264263   4.771   2.751  12.889  0.2954 -0.0908 -0.0103
14283TIP3    H164264   4.793   2.661  12.865  1.7225  0.3183 -0.3178
14283TIP3    H264265   4.784   2.802  12.809  2.5356  0.8634  0.8988
14284TIP3   OH264266   4.620   0.599   5.854 -0.2293  0.2381 -0.7657
14284TIP3    H164267   4.694   0.644   5.896  0.0410 -1.2807  0.4620
14284TIP3    H264268   4.555   0.590   5.923 -0.9752  0.2276 -1.4561
14285TIP3   OH264269   0.198   1.621  12.465 -0.0913  0.5379  0.0599
14285TIP3    H164270   0.227   1.699  12.417 -0.9760  0.8875  0.0871
14285TIP3    H264271   0.172   1.560  12.397 -1.6388  1.1467  0.0714
14286TIP3   OH264272   5.174   5.324   1.764 -0.3040  0.1545 -0.2728
14286TIP3    H164273   5.156   5.401   1.818  0.7084  1.1937 -1.3474
14286TIP3    H264274   5.220   5.359   1.688 -1.4059 -1.2851 -1.6733
14287TIP3   OH264275   2.768   0.039  12.346  0.0691 -0.3333  0.1766
14287TIP3    H164276   2.702  -0.030  12.353 -1.2614  0.6708 -1.7175
14287TIP3    H264277   2.754   0.077  12.259  2.2596  0.8336  0.2700
14288TIP3   OH264278   2.458   2.319   4.021  0.5713  0.4469  0.3437
14288TIP3    H164279   2.545   2.357   4.034  0.2244  0.9961  1.1833
14288TIP3    H264280   2.411   2.340   4.102 -0.3407  0.1457 -0.0981
14289TIP3   OH264281   4.943   5.633   4.972  0.1518 -1.0117 -0.3816
14289TIP3    H164282   4.977   5.548   4.941  1.3592 -0.6343 -0.1503
14289TIP3    H264283   4.907   5.614   5.059 -0.1777 -1.4066 -0.5986
14290TIP3   OH264284   2.471   6.089  16.504 -0.0320 -0.4406 -0.7427
14290TIP3    H164285   2.456   6.171  16.457  0.9669  0.1295 -0.0772
14290TIP3    H264286   2.382   6.055  16.520 -0.5302  1.2394  0.2624
14291TIP3   OH264287   5.481   0.490  12.839 -0.8271 -0.2194  0.1832
14291TIP3    H164288   5.406   0.521  12.788 -0.5501  1.2205  0.6078
14291TIP3    H264289   5.526   0.569  12.866 -0.8445 -0.9110  2.4953
14292TIP3   OH264290   0.527   4.613  15.091 -0.0093 -0.0531 -0.5594
14292TIP3    H164291   0.471   4.536  15.093 -0.2168  0.0991 -0.4901
14292TIP3    H264292   0.537   4.638  15.183 -0.1230  0.1317 -0.5959
14293TIP3   OH264293   5.647   2.873  11.391  0.1935 -0.7051 -0.7798
14293TIP3    H164294   5.734   2.871  11.352  0.4970 -1.1156 -0.1036
14293TIP3    H264295   5.587   2.885  11.317  0.8364 -0.1349 -1.2168
14294TIP3   OH264296   4.403   2.900   2.511 -0.2418 -0.4824  0.4683
14294TIP3    H164297   4.343   2.917   2.584 -0.2668 -0.4967  0.4513
14294TIP3    H264298   4.418   2.987   2.472 -0.0388 -0.4434  0.6363
14295TIP3   OH264299   6.347   3.452   2.594 -0.7293  0.0691 -0.2144
14295TIP3    H164300   6.371   3.423   2.682  0.2427 -3.4219 -1.4579
14295TIP3    H264301   6.427   3.443   2.543 -1.4923  1.1376 -1.6691
14296TIP3   OH264302   6.603   1.200  14.669 -0.5891  0.4359 -0.7853
14296TIP3    H164303   6.589   1.126  14.610 -0.5109 -0.3004  0.0917
14296TIP3    H264304   6.635   1.270  14.612 -1.9563  0.2423 -1.8531
14297TIP3   OH264305   5.699   2.275   2.890 -0.0220 -0.2541 -0.0065
14297TIP3    H164306   5.689   2.191   2.935 -1.7424 -0.5257 -0.7923
14297TIP3    H264307   5.714   2.251   2.798  3.4901  0.2854  0.3025
14298TIP3   OH264308   1.457   5.495  12.827  0.6458  0.4726  0.2734
14298TIP3    H164309   1.422   5.535  12.907 -0.4069  0.2094 -0.0329
14298TIP3    H264310   1.539   5.454  12.854 -0.0482 -0.2319  1.3808
14299TIP3   OH264311   0.907   5.021  11.523 -0.2524  0.0308 -0.0112
14299TIP3    H164312   0.937   5.108  11.551 -2.1640 -0.2251  3.4914
14299TIP3    H264313   0.986   4.967  11.522  0.5622  1.1557  0.7755
14300TIP3   OH264314   3.925   2.225  17.033  0.2726 -0.3811  0.0544
14300TIP3    H164315   3.928   2.151  16.972 -0.3549 -0.0078 -0.4575
14300TIP3    H264316   3.918   2.185  17.120  2.5335 -0.9453  0.0289
14301TIP3   OH264317   0.599   4.368   3.535 -0.0096 -0.1090  0.7007
14301TIP3    H164318   0.638   4.297   3.484  0.9142  0.1194  1.0714
14301TIP3    H264319   0.507   4.344   3.541  0.1399 -0.8865  0.1687
14302TIP3   OH264320   4.742   1.142  16.083 -0.0054  0.1155  0.4187
14302TIP3    H164321   4.654   1.176  16.099  0.1413  0.0412  1.4967
14302TIP3    H264322   4.790   1.163  16.163  0.5568 -1.1111  0.4230
14303TIP3   OH264323   6.223   1.979   0.288 -0.3281 -0.1298  0.2171
14303TIP3    H164324   6.214   1.998   0.381  1.2255  1.6467  0.0610
14303TIP3    H264325   6.221   2.065   0.246 -1.6652 -0.9222 -1.4906
14304TIP3   OH264326   6.389   6.637  13.234 -0.7643  0.3172  0.2643
14304TIP3    H164327   6.442   6.579  13.288  0.5994  1.1612 -0.1148
14304TIP3    H264328   6.320   6.581  13.198  0.9010 -1.2467 -0.6413
14305TIP3   OH264329   4.614   0.161   2.717  0.0382  0.4458  0.7022
14305TIP3    H164330   4.590   0.069   2.705 -1.8589  1.1691 -1.8837
14305TIP3    H264331   4.551   0.194   2.781  1.0291 -0.0897  2.0115
14306TIP3   OH264332   4.242   3.262   1.623  0.0023  0.6386 -0.3407
14306TIP3    H164333   4.295   3.308   1.558  2.1136  0.8421  1.3615
14306TIP3    H264334   4.265   3.305   1.706  0.6256 -2.2148  1.0780
14307TIP3   OH264335   4.850   0.106  11.946 -0.3078  0.4908  0.3388
14307TIP3    H164336   4.932   0.141  11.981  1.3362 -3.8854  1.5360
14307TIP3    H264337   4.867   0.094  11.853  0.0274  0.4955  0.3986
14308TIP3   OH264338   6.037   2.894   4.747  0.3500 -0.4385  0.8586
14308TIP3    H164339   6.084   2.854   4.673 -1.4288  0.4608 -0.8790
14308TIP3    H264340   6.031   2.987   4.724 -0.4549 -0.1775  2.0262
14309TIP3   OH264341   6.140   2.189   4.268  0.3729 -0.2890 -0.1045
14309TIP3    H164342   6.137   2.149   4.182 -0.4744  1.5143 -0.9645
14309TIP3    H264343   6.066   2.250   4.269  2.2059  2.0807  0.6606
14310TIP3   OH264344   6.663   1.984   4.378  0.3969 -0.1573 -0.1476
14310TIP3    H164345   6.739   2.013   4.428  0.1538  0.8005 -0.3043
14310TIP3    H264346   6.662   1.889   4.387  1.3900 -0.1434  0.1703
14311TIP3   OH264347   3.544   4.146  12.113  0.0616 -0.2955  0.1671
14311TIP3    H164348   3.461   4.107  12.086  0.1572  0.2979 -1.0290
14311TIP3    H264349   3.522   4.195  12.192 -1.3831  2.1404 -1.6244
14312TIP3   OH264350   2.444   3.681  11.411  0.0162  0.3571 -0.3574
14312TIP3    H164351   2.378   3.627  11.370  0.0006 -0.9031  1.1997
14312TIP3    H264352   2.423   3.677  11.505  2.2330 -0.0768  0.1880
14313TIP3   OH264353   3.997   3.000   4.907  0.0326 -0.4464 -0.2380
14313TIP3    H164354   3.987   3.024   5.000  1.1695  1.9807 -0.6693
14313TIP3    H264355   3.934   2.930   4.894  0.1364 -1.1646  2.4782
14314TIP3   OH264356   3.262   0.287   6.149  0.5176 -0.3988  0.0860
14314TIP3    H164357   3.355   0.279   6.170  0.3376 -0.2894  0.9389
14314TIP3    H264358   3.236   0.199   6.122  1.1889 -0.1379 -1.5513
14315TIP3   OH264359   3.200   6.687  14.031 -0.1950  0.2374  0.0524
14315TIP3    H164360   3.268   6.738  14.076  0.9713  1.5821 -2.9490
14315TIP3    H264361   3.141   6.752  13.995  0.1024 -0.5663 -2.0447
14316TIP3   OH264362   5.740   4.454   6.475  0.1391 -0.1257  0.0031
14316TIP3    H164363   5.794   4.431   6.550 -1.4128  0.7924  1.4721
14316TIP3    H264364   5.706   4.371   6.443  0.4461 -0.4903  0.6018
14317TIP3   OH264365   3.647   1.404  12.486  0.1171  0.1945 -0.1831
14317TIP3    H164366   3.586   1.402  12.561 -1.0299 -1.6795 -1.1041
14317TIP3    H264367   3.728   1.438  12.523 -0.3296 -0.8984  1.9943
14318TIP3   OH264368   2.356   0.364  11.130  0.4224 -0.4965  0.0640
14318TIP3    H164369   2.450   0.358  11.120  0.3614 -1.8474  0.1903
14318TIP3    H264370   2.342   0.450  11.171  1.6320 -0.5004  0.5289
14319TIP3   OH264371   3.967   1.097  13.303 -0.3935  0.1469  0.2927
14319TIP3    H164372   3.903   1.088  13.374 -0.8230  0.4925 -0.0436
14319TIP3    H264373   4.051   1.104  13.347 -0.5039 -1.0282  0.7217
14320TIP3   OH264374   0.920   6.622   3.963  0.7630  0.3603 -0.2369
14320TIP3    H164375   0.977   6.578   4.025  0.1682  2.5188  1.9880
14320TIP3    H264376   0.935   6.716   3.978 -1.9408  0.9883 -0.8573
14321TIP3   OH264377   3.319   0.543   2.263 -0.6404  0.6262  0.4455
14321TIP3    H164378   3.340   0.539   2.357  0.8995 -0.5383  0.0870
14321TIP3    H264379   3.228   0.571   2.261 -0.9016  0.1020  2.3190
14322TIP3   OH264380   6.173   5.462   0.142  0.0335 -0.5119  0.1128
14322TIP3    H164381   6.100   5.444   0.082  0.2537 -0.4096 -0.1888
14322TIP3    H264382   6.131   5.495   0.221 -0.2059  0.4829 -0.4051
14323TIP3   OH264383   2.900   5.493   1.425 -0.0525 -0.0900  0.1310
14323TIP3    H164384   2.941   5.488   1.511 -2.0641  1.2583  1.2696
14323TIP3    H264385   2.808   5.513   1.444 -0.7987 -0.8459 -2.3177
14324TIP3   OH264386   6.700   3.733   0.382 -0.1591 -0.6586  0.6525
14324TIP3    H164387   6.619   3.754   0.336 -0.4334 -2.3264  0.2987
14324TIP3    H264388   6.748   3.677   0.321  0.1758 -1.6469  1.7826
14325TIP3   OH264389   0.572   2.766  14.093 -0.5682 -0.2703 -0.3516
14325TIP3    H164390   0.624   2.765  14.174  1.8958  0.5899 -1.8031
14325TIP3    H264391   0.487   2.800  14.120 -0.2071 -1.1103  2.0698
14326TIP3   OH264392   3.335   0.901  16.160 -0.7321 -0.0860  0.0886
14326TIP3    H164393   3.298   0.896  16.072 -0.1136  0.1532 -0.1871
14326TIP3    H264394   3.311   0.818  16.201 -0.8433 -0.2866 -0.3759
14327TIP3   OH264395   6.706   1.206  16.000  0.1137 -0.2235  0.2492
14327TIP3    H164396   6.662   1.129  15.964 -0.4351 -0.5186  1.5205
14327TIP3    H264397   6.697   1.273  15.931  2.0351 -1.7053 -1.6023
14328TIP3   OH264398   1.301   4.004  10.421 -0.1315 -0.4299  0.4127
14328TIP3    H164399   1.241   4.050  10.362 -1.0022 -2.7741 -0.6700
14328TIP3    H264400   1.252   3.994  10.503 -0.2045 -0.0579  0.4150
14329TIP3   OH264401   6.090   2.048  12.426  0.0567 -0.5474 -0.1384
14329TIP3    H164402   6.128   2.136  12.436 -0.5068 -0.1891 -1.0276
14329TIP3    H264403   6.161   1.996  12.388 -0.1903  0.0177 -1.4169
14330TIP3   OH264404   0.702   2.835  17.037  0.3310 -0.5560  0.3361
14330TIP3    H164405   0.775   2.881  16.996  0.6260 -0.0264  1.4092
14330TIP3    H264406   0.655   2.795  16.965  0.3968  0.9606 -0.5764
14331TIP3   OH264407   0.783   1.974   5.215  0.1949  0.4591  0.8322
14331TIP3    H164408   0.793   2.057   5.260  0.9296  1.2682 -0.7524
14331TIP3    H264409   0.692   1.948   5.231 -0.5087  2.3335  0.1099
14332TIP3   OH264410   2.719   5.856   5.548  0.3415  0.3812  0.0397
14332TIP3    H164411   2.806   5.896   5.536  0.3037  0.4201 -0.1053
14332TIP3    H264412   2.663   5.929   5.574  0.4715  0.2554  0.6708
14333TIP3   OH264413   0.207   3.512  15.671  0.5285 -0.2033 -0.3508
14333TIP3    H164414   0.202   3.580  15.604  1.2043 -0.7350 -0.9485
14333TIP3    H264415   0.172   3.554  15.750 -1.4836  0.0262 -1.3132
14334TIP3   OH264416   3.830   3.102  14.278 -0.2474  0.2620 -0.9480
14334TIP3    H164417   3.770   3.028  14.289  2.1375 -1.5899  0.7135
14334TIP3    H264418   3.841   3.109  14.183 -0.9997 -1.1415 -1.1769
14335TIP3   OH264419   6.472   4.314   1.804 -0.0507  0.1718  0.4152
14335TIP3    H164420   6.505   4.382   1.862  0.4704 -0.9421  1.4602
14335TIP3    H264421   6.501   4.232   1.843  3.1982 -0.6321 -3.0784
14336TIP3   OH264422   1.782   0.822  11.256 -0.2260  0.2055 -0.0265
14336TIP3    H164423   1.710   0.810  11.318  0.5728  1.8258  1.2951
14336TIP3    H264424   1.740   0.859  11.178 -1.3146 -2.3312 -0.7263
14337TIP3   OH264425   0.087   0.262   5.425 -0.4648  0.2467 -0.0519
14337TIP3    H164426   0.033   0.185   5.439  2.3496 -2.1337 -1.2761
14337TIP3    H264427   0.147   0.264   5.500  0.4643  0.2929 -0.7742
14338TIP3   OH264428   2.638   6.430  15.773 -0.1164  0.1057  0.3598
14338TIP3    H164429   2.662   6.398  15.860  1.4407  1.3923  0.4433
14338TIP3    H264430   2.551   6.468  15.785  0.1906  0.5224  1.4379
14339TIP3   OH264431   6.610   3.617   3.630  0.3620 -0.4379 -0.8191
14339TIP3    H164432   6.590   3.523   3.626  0.5860 -0.5378  0.0899
14339TIP3    H264433   6.694   3.621   3.676  0.1017  0.2325 -0.3886
14340TIP3   OH264434   5.312   6.085  16.219 -0.2341 -0.3115  0.3684
14340TIP3    H164435   5.403   6.109  16.205 -0.5635  1.7011  1.2941
14340TIP3    H264436   5.308   6.055  16.309 -0.4721 -0.5212  0.2908
14341TIP3   OH264437   0.026   0.620   4.987  0.7897 -0.0282 -0.4785
14341TIP3    H164438  -0.023   0.690   4.943 -0.4342 -0.8940 -0.5423
14341TIP3    H264439   0.030   0.647   5.079 -1.0978 -0.6029 -0.1846
14342TIP3   OH264440   2.760   6.675   1.775 -0.7761 -0.1335  0.6214
14342TIP3    H164441   2.749   6.587   1.810 -2.9652  0.3549  1.3225
14342TIP3    H264442   2.723   6.732   1.842  0.0621  1.2851 -0.0747
14343TIP3   OH264443   4.577   0.241   6.045 -0.2562  0.4392 -0.0106
14343TIP3    H164444   4.579   0.165   6.103  0.8076  0.7757  0.4344
14343TIP3    H264445   4.548   0.207   5.961 -0.3419 -0.3486  0.3261
14344TIP3   OH264446   1.829   5.175  13.636 -0.1909 -0.0438  0.0802
14344TIP3    H164447   1.830   5.079  13.629 -1.6665 -0.2188  1.5200
14344TIP3    H264448   1.736   5.198  13.626  0.3680  1.4662 -2.2699
14345TIP3   OH264449   5.642   1.296   3.636  0.3173 -0.0715 -0.5617
14345TIP3    H164450   5.727   1.278   3.597  0.6817  2.1366 -0.8988
14345TIP3    H264451   5.655   1.375   3.688 -1.2415 -0.4015  0.4082
14346TIP3   OH264452   3.861   5.760   2.331 -0.6281  0.0413 -0.1392
14346TIP3    H164453   3.799   5.795   2.395 -0.3371  2.1264 -0.9380
14346TIP3    H264454   3.815   5.762   2.248 -0.5944 -1.5385 -0.2246
14347TIP3   OH264455   0.704   2.952   0.865 -0.6559 -0.1947 -0.2229
14347TIP3    H164456   0.655   3.020   0.911 -0.4159 -0.6090  0.6611
14347TIP3    H264457   0.683   2.871   0.912  0.3872 -0.4734 -0.2242
14348TIP3   OH264458   3.878   4.915   5.230 -0.1992 -0.0305  0.1494
14348TIP3    H164459   3.853   4.880   5.316 -0.3136  0.2066  0.2125
14348TIP3    H264460   3.831   4.861   5.167 -1.4041  0.8302  0.2795
14349TIP3   OH264461   1.714   6.744  15.551  0.3926  0.3372  0.0615
14349TIP3    H164462   1.713   6.730  15.457 -0.1799  0.8759 -0.0195
14349TIP3    H264463   1.753   6.664  15.587  1.9007  0.6951 -0.7154
14350TIP3   OH264464   1.014   0.505   5.405  0.1927  0.4943 -0.1813
14350TIP3    H164465   0.920   0.515   5.390  0.0257 -0.3589  0.2301
14350TIP3    H264466   1.052   0.496   5.317 -0.0527  1.2068 -0.3686
14351TIP3   OH264467   2.789   4.873  16.912 -0.0821 -0.2315  0.0984
14351TIP3    H164468   2.778   4.925  16.833 -0.0544 -0.5011 -0.0800
14351TIP3    H264469   2.825   4.790  16.882  3.1626  0.7930  0.6574
14352TIP3   OH264470   2.905   1.967  12.358 -0.4190  0.0561 -0.0363
14352TIP3    H164471   2.908   2.057  12.392 -0.4864 -0.7131  2.2087
14352TIP3    H264472   2.976   1.963  12.295 -0.0616  1.5443  0.2194
14353TIP3   OH264473   4.425   2.872  12.552  0.0705 -0.5014  0.0756
14353TIP3    H164474   4.333   2.869  12.524 -0.3394  0.1232  1.2609
14353TIP3    H264475   4.472   2.907  12.477 -0.8845  0.4772 -0.1032
14354TIP3   OH264476   4.191   3.476  15.544 -0.0660 -0.0656 -0.8141
14354TIP3    H164477   4.201   3.382  15.559 -0.9625  0.2934  2.9853
14354TIP3    H264478   4.122   3.482  15.478 -2.3580 -2.1683  1.1798
14355TIP3   OH264479   5.589   0.064   5.417  0.1571  0.0025 -0.2043
14355TIP3    H164480   5.573  -0.031   5.419 -3.8563  0.4327  3.6926
14355TIP3    H264481   5.513   0.099   5.371 -0.3386  1.3959  1.5730
14356TIP3   OH264482   3.122   0.290   0.917  0.2687 -0.5327 -0.0589
14356TIP3    H164483   3.198   0.256   0.963  0.6920 -0.6808 -0.8475
14356TIP3    H264484   3.155   0.363   0.865  0.0916 -1.1991 -1.1595
14357TIP3   OH264485   6.025   4.147   1.003 -0.1746 -0.2539 -0.0869
14357TIP3    H164486   6.018   4.081   1.072 -1.8747 -0.5422 -0.4870
14357TIP3    H264487   6.081   4.215   1.041  1.5468 -1.8504  0.3619
14358TIP3   OH264488   1.625   2.572  13.076 -0.0314 -0.7817 -0.3564
14358TIP3    H164489   1.601   2.510  13.144  0.4384 -0.0311  0.5026
14358TIP3    H264490   1.564   2.645  13.087  1.3816  0.2901  0.6339
14359TIP3   OH264491   5.294   2.085  13.554  0.2916 -0.6662  0.4030
14359TIP3    H164492   5.237   2.048  13.621  0.8488 -1.8185  0.2738
14359TIP3    H264493   5.383   2.070  13.587  0.6870  4.1175  2.2541
14360TIP3   OH264494   0.023   5.277  16.536 -0.3651  0.0092 -0.0060
14360TIP3    H164495  -0.015   5.353  16.491 -0.0510  0.2180  0.0780
14360TIP3    H264496   0.111   5.269  16.500 -0.8082 -1.0733 -0.9180
14361TIP3   OH264497   0.179   5.298   1.998  0.1876  0.2655 -0.2049
14361TIP3    H164498   0.093   5.318   1.961  0.2229 -1.7288 -1.5553
14361TIP3    H264499   0.160   5.259   2.083  0.0163  3.2907  1.2598
14362TIP3   OH264500   0.410   5.816  15.388  0.0200  0.4573 -0.4801
14362TIP3    H164501   0.447   5.887  15.439  1.1258 -0.2751 -0.2109
14362TIP3    H264502   0.464   5.812  15.309  0.0948 -0.1925 -0.4067
14363TIP3   OH264503   3.593   2.805   2.130  0.6263  0.0685  0.1526
14363TIP3    H164504   3.627   2.877   2.076  0.0503  0.4589  0.2942
14363TIP3    H264505   3.610   2.833   2.220 -0.7479  0.6345  0.2543
14364TIP3   OH264506   6.518   4.625   3.931  0.1754 -0.0142 -0.3339
14364TIP3    H164507   6.529   4.645   3.838  3.0576  1.9292  0.2710
14364TIP3    H264508   6.590   4.564   3.950  0.3886  0.5715  0.8167
14365TIP3   OH264509   4.293   3.032  11.160  0.2557 -0.0502  0.3943
14365TIP3    H164510   4.322   2.972  11.229 -0.7300 -1.8321 -0.6725
14365TIP3    H264511   4.359   3.101  11.159  2.2430 -1.8671  0.6957
14366TIP3   OH264512   3.824   5.193   6.369  0.0566  0.7516 -0.5764
14366TIP3    H164513   3.813   5.103   6.399 -1.3982  0.7921 -0.9066
14366TIP3    H264514   3.787   5.247   6.439 -0.9176  0.9735 -1.2353
14367TIP3   OH264515   3.899   1.557  13.170 -0.1983  0.4941 -0.4155
14367TIP3    H164516   3.863   1.645  13.184 -0.5690  0.2423  0.2449
14367TIP3    H264517   3.938   1.533  13.254  0.1362  0.1309 -0.6713
14368TIP3   OH264518   6.237   2.748  14.281  0.3798 -0.7041  0.1569
14368TIP3    H164519   6.294   2.788  14.216  0.1605 -0.4083  0.1432
14368TIP3    H264520   6.260   2.655  14.279  0.6534 -0.6347 -0.0555
14369TIP3   OH264521   1.112   5.690   3.931  0.0073 -0.0184 -0.1820
14369TIP3    H164522   1.148   5.705   4.019  0.0698 -0.3024 -0.1565
14369TIP3    H264523   1.051   5.761   3.917 -0.2248 -0.1400  0.2152
14370TIP3   OH264524   3.364   3.298  16.978 -0.1331  0.2525  0.2749
14370TIP3    H164525   3.343   3.302  16.885  0.0057  0.3625  0.2486
14370TIP3    H264526   3.305   3.232  17.014  0.7933 -0.8497 -0.1620
14371TIP3   OH264527   5.966   5.820  15.969  0.8048 -0.4683  0.2959
14371TIP3    H164528   5.929   5.818  16.057  0.0645  1.0429  0.0538
14371TIP3    H264529   6.053   5.781  15.978  1.6193  1.5651  2.1373
14372TIP3   OH264530   3.569   4.217   2.951  0.1282 -0.5741 -0.0935
14372TIP3    H164531   3.555   4.239   3.043  0.6522  0.6351 -0.2879
14372TIP3    H264532   3.622   4.137   2.954 -0.0357 -0.6604  0.6497
14373TIP3   OH264533   2.963   5.820   1.660 -0.2690  0.1508 -0.3284
14373TIP3    H164534   2.942   5.727   1.664  0.1372  0.0321 -0.8782
14373TIP3    H264535   2.903   5.861   1.723  0.8863 -0.7078  1.3808
14374TIP3   OH264536   4.648   5.764   2.672  0.0180 -0.0809 -0.3543
14374TIP3    H164537   4.637   5.853   2.640 -0.8776  0.0250  0.2431
14374TIP3    H264538   4.743   5.748   2.666  0.0318  0.4356 -1.6890
14375TIP3   OH264539   5.382   5.607   1.811 -0.7906 -0.2634 -0.2508
14375TIP3    H164540   5.469   5.647   1.807 -1.6941  1.9247  0.5905
14375TIP3    H264541   5.382   5.556   1.892 -0.2284 -0.4864 -0.3861
14376TIP3   OH264542   4.900   6.102   2.738 -0.0026 -0.4628  0.1904
14376TIP3    H164543   4.874   6.169   2.801  1.3564 -0.0630  0.3805
14376TIP3    H264544   4.820   6.077   2.693 -0.4327  1.9033 -0.4664
14377TIP3   OH264545   0.280   4.814  11.285 -0.1194  0.3627  0.5809
14377TIP3    H164546   0.221   4.841  11.214 -1.0632  0.6197  1.4325
14377TIP3    H264547   0.222   4.776  11.351  0.8117 -0.4546  0.9439
14378TIP3   OH264548   5.366   4.904   2.883 -0.9411  0.0652  0.5348
14378TIP3    H164549   5.398   4.991   2.908 -0.2157 -0.4867  1.6547
14378TIP3    H264550   5.382   4.899   2.789  1.9555  0.0208  0.9219
14379TIP3   OH264551   4.937   4.156   0.906 -0.0450 -0.2021 -0.6211
14379TIP3    H164552   4.961   4.066   0.882 -1.9555 -0.9272  0.0539
14379TIP3    H264553   4.925   4.153   1.001  0.8111  1.0274 -0.4503
14380TIP3   OH264554   0.742   4.793  12.189 -0.0944 -0.1214  0.6525
14380TIP3    H164555   0.809   4.806  12.256  1.1740 -1.0292 -0.3755
14380TIP3    H264556   0.720   4.881  12.160  1.3736  0.1800  0.3582
14381TIP3   OH264557   1.851   4.357   0.978  0.3504  0.0955  0.3628
14381TIP3    H164558   1.786   4.288   0.991  1.6864 -1.2710 -0.0057
14381TIP3    H264559   1.840   4.415   1.054 -1.7861  0.3476 -0.0691
14382TIP3   OH264560   3.131   6.604  13.300  0.1485 -0.2267 -0.3584
14382TIP3    H164561   3.151   6.597  13.393 -1.2247  0.7038  0.0532
14382TIP3    H264562   3.044   6.644  13.298  0.0935 -0.3615 -2.0456
14383TIP3   OH264563   2.321   6.460   4.110 -0.2154 -0.1145 -0.0590
14383TIP3    H164564   2.327   6.448   4.015 -0.8979 -1.6330  0.0629
14383TIP3    H264565   2.389   6.403   4.145 -0.5932 -0.2760  0.4072
14384TIP3   OH264566   4.335   5.419  15.485  0.2162  0.3678  0.6557
14384TIP3    H164567   4.377   5.351  15.433 -1.0053  1.1381 -1.4290
14384TIP3    H264568   4.241   5.400  15.478  0.0110 -0.0999  3.4856
14385TIP3   OH264569   0.198   4.322   0.479  0.7753 -0.0637 -0.6192
14385TIP3    H164570   0.186   4.238   0.434  1.1349 -0.0600 -0.7291
14385TIP3    H264571   0.116   4.336   0.526  0.8450 -0.6613 -0.3017
14386TIP3   OH264572   3.956   0.503  13.724  0.0246  0.5628  0.1675
14386TIP3    H164573   3.971   0.428  13.666 -3.4967 -0.1465 -0.0272
14386TIP3    H264574   3.956   0.579  13.665  1.0290  0.4486 -0.0066
14387TIP3   OH264575   5.725   5.034   2.191 -0.1202 -0.0421  0.2084
14387TIP3    H164576   5.697   4.950   2.229 -2.4005  0.2390 -0.7116
14387TIP3    H264577   5.665   5.048   2.117  0.0959  2.4857  0.4453
14388TIP3   OH264578   2.213   3.527  15.319 -0.0278 -0.2442 -0.1115
14388TIP3    H164579   2.162   3.450  15.346  1.3725 -1.1143  0.2003
14388TIP3    H264580   2.233   3.572  15.402 -1.5622  0.9857 -0.3544
14389TIP3   OH264581   2.235   1.401  16.010 -0.2568 -1.2651  0.3753
14389TIP3    H164582   2.201   1.342  16.078 -0.5433 -1.2615  0.2333
14389TIP3    H264583   2.306   1.448  16.054 -0.2843 -1.4342  0.6051
14390TIP3   OH264584   1.023   0.050  13.465  0.0564 -0.1340 -0.6326
14390TIP3    H164585   1.088   0.073  13.398 -0.5263 -1.1730 -1.5724
14390TIP3    H264586   0.990  -0.035  13.438 -1.8307  0.4472 -0.2770
14391TIP3   OH264587   2.188   3.595  11.300 -0.2089  0.3442  0.0212
14391TIP3    H164588   2.137   3.526  11.343 -1.4088 -0.9514 -3.1593
14391TIP3    H264589   2.129   3.670  11.296 -0.9171 -0.2444 -1.1763
14392TIP3   OH264590   6.444   1.445  15.882  0.6598 -0.0831  0.7255
14392TIP3    H164591   6.468   1.532  15.913 -1.8646  1.4072 -1.1538
14392TIP3    H264592   6.353   1.434  15.909  0.3473 -1.3258 -0.7082
14393TIP3   OH264593   4.443   6.066   0.497  0.1641 -0.0530 -0.1267
14393TIP3    H164594   4.453   6.030   0.585 -0.1032 -0.4288 -0.2464
14393TIP3    H264595   4.491   6.149   0.499  2.1591 -1.1494 -0.3224
14394TIP3   OH264596   0.376   3.381  11.760 -0.2269 -0.1662  0.2479
14394TIP3    H164597   0.358   3.459  11.707  1.5228 -0.4450 -0.8155
14394TIP3    H264598   0.350   3.406  11.849 -1.8276  0.8231 -0.4519
14395TIP3   OH264599   1.257   2.356  11.913 -1.0405 -0.3877  0.4570
14395TIP3    H164600   1.221   2.344  12.001 -1.3927 -3.1882  0.0224
14395TIP3    H264601   1.180   2.364  11.857 -0.8168  2.0748  0.4014
14396TIP3   OH264602   2.128   6.207  13.272  0.0783  0.0004  0.2891
14396TIP3    H164603   2.222   6.224  13.278  0.1671 -0.4150  0.1219
14396TIP3    H264604   2.111   6.202  13.177 -0.0580 -0.2307  0.3261
14397TIP3   OH264605   3.961   2.532  12.871 -0.8894 -0.3267 -0.1440
14397TIP3    H164606   3.963   2.437  12.870  1.0587 -0.3188 -0.0645
14397TIP3    H264607   3.982   2.557  12.961 -2.9156  0.2094  0.2339
14398TIP3   OH264608   1.533   2.262  15.824 -0.7409 -0.9032 -0.4513
14398TIP3    H164609   1.596   2.207  15.777  0.1049 -0.0573 -0.3427
14398TIP3    H264610   1.586   2.334  15.858 -1.5195 -0.9444  0.8967
14399TIP3   OH264611   3.987   1.881   0.885 -0.3475  1.0940 -0.1747
14399TIP3    H164612   3.969   1.876   0.979 -1.4902  1.0084 -0.3846
14399TIP3    H264613   3.902   1.865   0.844  0.4831 -0.7994 -1.2561
14400TIP3   OH264614   3.213   5.968  14.393 -0.2216  0.3931 -0.3037
14400TIP3    H164615   3.308   5.951  14.392 -0.5449 -1.7453 -0.0724
14400TIP3    H264616   3.205   6.057  14.427  1.7350  0.9605 -1.1467
14401TIP3   OH264617   1.051   5.579  13.554  0.3543 -0.1734  0.3089
14401TIP3    H164618   0.983   5.623  13.503 -0.5473 -0.5049  1.1965
14401TIP3    H264619   1.009   5.500  13.588  0.9175  0.0473  1.5741
14402TIP3   OH264620   2.494   0.146   6.059 -0.4263 -0.7228 -0.1166
14402TIP3    H164621   2.411   0.182   6.091 -0.1062 -0.7228  0.7537
14402TIP3    H264622   2.536   0.109   6.137  1.1973  0.8542 -0.1535
14403TIP3   OH264623   4.724   1.601   4.004  0.1325  0.2998 -0.1242
14403TIP3    H164624   4.720   1.511   3.972  0.2383  0.5830 -0.9592
14403TIP3    H264625   4.695   1.654   3.930  1.9010  1.0956 -0.3021
14404TIP3   OH264626   4.341   4.277  11.299 -0.1861 -0.1474  0.2182
14404TIP3    H164627   4.294   4.352  11.336 -2.5981 -0.4806 -1.8844
14404TIP3    H264628   4.299   4.263  11.214  0.8030 -3.3419  0.1572
14405TIP3   OH264629   1.894   6.243  13.405  0.0327  0.0233 -0.0060
14405TIP3    H164630   1.979   6.254  13.362  0.1603 -0.3159  0.1622
14405TIP3    H264631   1.830   6.241  13.333  0.0602  1.2549 -0.0913
14406TIP3   OH264632   3.033   3.832  14.433 -0.0230  0.3467 -0.4158
14406TIP3    H164633   2.944   3.809  14.404 -0.7026  2.0687  0.1207
14406TIP3    H264634   3.019   3.888  14.510  1.5672  0.0215  0.1478
14407TIP3   OH264635   1.150   3.954  13.533  0.4803 -0.4462 -0.4895
14407TIP3    H164636   1.150   4.036  13.583 -1.4071 -1.5846  1.5459
14407TIP3    H264637   1.217   3.900  13.576  0.6095 -0.5524 -0.8197
14408TIP3   OH264638   3.265   5.376   4.431 -0.1245  0.2585  0.5046
14408TIP3    H164639   3.171   5.388   4.444 -0.2423 -0.0223 -0.0656
14408TIP3    H264640   3.279   5.282   4.444  0.1079  0.3284  0.7639
14409TIP3   OH264641   6.231   2.067   0.542 -0.8981  0.5765 -0.2967
14409TIP3    H164642   6.171   2.130   0.584 -0.9352 -0.0251  0.5778
14409TIP3    H264643   6.307   2.064   0.599 -0.0038  1.3403 -1.4114
14410TIP3   OH264644   5.392   5.883  13.775 -0.2593 -0.6803  0.3413
14410TIP3    H164645   5.451   5.808  13.785 -0.2540 -0.8223 -0.6867
14410TIP3    H264646   5.409   5.936  13.853 -0.8811 -2.1519  1.5530
14411TIP3   OH264647   1.922   6.622   4.126 -0.2730 -0.0273 -0.4033
14411TIP3    H164648   1.921   6.709   4.087  1.7017 -0.0868 -0.6682
14411TIP3    H264649   1.895   6.636   4.217 -0.2859  0.8057 -0.5299
14412TIP3   OH264650   4.933   0.139   6.230  0.3678  0.6970 -0.4385
14412TIP3    H164651   4.979   0.183   6.158  0.2504  0.6187 -0.5637
14412TIP3    H264652   4.885   0.068   6.187 -1.3676  1.9141 -0.5854
14413TIP3   OH264653   1.270   5.257   3.577 -0.0256  0.6177  0.2502
14413TIP3    H164654   1.179   5.236   3.596 -0.1627 -0.5590 -1.4351
14413TIP3    H264655   1.266   5.308   3.496  0.7855  1.0340  0.4590
14414TIP3   OH264656   3.931   0.005  16.474  0.6090 -0.2050  0.1059
14414TIP3    H164657   3.942  -0.088  16.453 -1.7321 -0.5015 -0.0043
14414TIP3    H264658   3.937   0.049  16.389  2.9160 -0.0689  0.2836
14415TIP3   OH264659   4.721   0.528  14.287  0.3912  0.6320 -0.5445
14415TIP3    H164660   4.635   0.547  14.250  0.6520  0.9158 -1.0201
14415TIP3    H264661   4.728   0.433  14.285 -0.6366  0.4685  1.1850
14416TIP3   OH264662   2.823   0.572   2.461 -0.3624  0.1045 -0.3663
14416TIP3    H164663   2.834   0.600   2.551  0.1889 -1.1159 -0.0371
14416TIP3    H264664   2.760   0.500   2.465  0.4371 -0.6430 -0.8089
14417TIP3   OH264665   1.765   1.880  15.173  0.0172  0.0476  0.1864
14417TIP3    H164666   1.833   1.813  15.165  0.6031  0.5063  1.0663
14417TIP3    H264667   1.742   1.880  15.266 -2.3271 -1.1571 -0.3369
14418TIP3   OH264668   3.744   2.250  13.239  0.7821  0.7020 -0.5190
14418TIP3    H164669   3.789   2.177  13.196 -0.7159  0.0443 -1.0382
14418TIP3    H264670   3.723   2.217  13.326  2.1278  1.3668  0.0987
14419TIP3   OH264671   2.394   5.393  16.106 -0.4283  0.6817  0.2245
14419TIP3    H164672   2.439   5.345  16.176 -1.4474 -2.3963 -1.0495
14419TIP3    H264673   2.459   5.401  16.036 -0.5952  0.0519 -0.0089
14420TIP3   OH264674   4.510   0.115  12.698  0.0770 -0.4061  0.2697
14420TIP3    H164675   4.431   0.075  12.662 -0.5230  2.6310 -2.1750
14420TIP3    H264676   4.491   0.125  12.791 -1.6545 -1.3619  0.0664
14421TIP3   OH264677   5.431   1.827   1.038 -0.1763  0.7321 -0.2451
14421TIP3    H164678   5.374   1.754   1.013 -1.0385  0.6890  1.6554
14421TIP3    H264679   5.503   1.786   1.086  1.2026  0.8480 -2.1132
14422TIP3   OH264680   1.986   1.348   1.562 -0.1351  0.0315 -0.2479
14422TIP3    H164681   2.046   1.418   1.586 -2.4125  1.6311  1.1160
14422TIP3    H264682   1.983   1.349   1.467  1.0810  0.6888 -0.2867
14423TIP3   OH264683   3.507   2.823  11.415  0.7323 -0.1901  0.1968
14423TIP3    H164684   3.515   2.822  11.510 -0.5397  0.0725  0.3271
14423TIP3    H264685   3.562   2.896  11.387  2.2986 -1.1856  0.5798
14424TIP3   OH264686   2.065   3.827  13.144  0.2375  0.2639 -0.7269
14424TIP3    H164687   2.064   3.778  13.062 -0.1473 -0.0682 -0.5273
14424TIP3    H264688   2.142   3.883  13.138  1.5052 -1.3619 -0.3809
14425TIP3   OH264689   3.611   3.720  16.055 -0.0757  0.0881 -0.6690
14425TIP3    H164690   3.582   3.803  16.019  1.3375 -0.4970 -3.3945
14425TIP3    H264691   3.658   3.677  15.984  1.9942 -1.6910  1.5812
14426TIP3   OH264692   1.623   0.826   5.285 -0.2614 -1.0227  0.2620
14426TIP3    H164693   1.656   0.885   5.352  0.4432  1.2615 -1.9531
14426TIP3    H264694   1.702   0.789   5.245 -0.5321 -0.1416 -1.1457
14427TIP3   OH264695   6.436   6.142   5.136  0.4250 -0.2240 -0.1895
14427TIP3    H164696   6.427   6.154   5.041 -0.1128 -0.4853 -0.1723
14427TIP3    H264697   6.369   6.199   5.173 -0.4619 -1.3524 -0.0208
14428TIP3   OH264698   6.709   0.014  14.205 -0.2397  0.3979  0.0307
14428TIP3    H164699   6.647   0.082  14.228  0.4204  1.3883 -1.0115
14428TIP3    H264700   6.715   0.017  14.110 -0.4497 -1.3646 -0.0820
14429TIP3   OH264701   1.651   5.715   0.676 -0.2859 -0.1974 -0.3201
14429TIP3    H164702   1.615   5.699   0.763 -1.2148  1.7744 -0.2910
14429TIP3    H264703   1.574   5.720   0.619  0.1854  0.4376 -0.9091
14430TIP3   OH264704   2.197   0.208   3.435 -0.6495  0.0054  0.1166
14430TIP3    H164705   2.179   0.204   3.341  1.7420 -0.2295 -0.4024
14430TIP3    H264706   2.110   0.212   3.476 -1.7740  2.4605 -2.1519
14431TIP3   OH264707   1.889   6.296  14.452 -0.0638  0.4808 -0.2698
14431TIP3    H164708   1.942   6.326  14.377 -0.7036  0.9144 -0.5546
14431TIP3    H264709   1.848   6.215  14.421  1.3655 -0.5459  0.3707
14432TIP3   OH264710   3.507   1.181  11.402  0.0719 -0.7522 -0.3671
14432TIP3    H164711   3.548   1.190  11.317 -2.2293 -0.9720 -1.5931
14432TIP3    H264712   3.536   1.257  11.451  1.2359 -0.4856 -1.4239
14433TIP3   OH264713   2.563   1.348   1.637 -0.1401  0.5604  0.1541
14433TIP3    H164714   2.655   1.350   1.665 -0.5044 -1.6505  1.7966
14433TIP3    H264715   2.537   1.440   1.634  2.1806  1.2657 -0.6427
14434TIP3   OH264716   3.800   3.607   5.418 -0.1731 -0.5995 -0.4581
14434TIP3    H164717   3.877   3.552   5.432 -0.8752 -1.5141 -0.1261
14434TIP3    H264718   3.836   3.694   5.400  0.9446 -1.0887 -0.6719
14435TIP3   OH264719   6.285   1.676   5.079 -0.4424  0.4128 -0.3812
14435TIP3    H164720   6.361   1.660   5.023 -0.9386 -0.6924 -0.7728
14435TIP3    H264721   6.215   1.622   5.040 -1.0065  0.2311  0.8402
14436TIP3   OH264722   6.692   6.418   2.926  0.2808 -0.0342 -0.0993
14436TIP3    H164723   6.713   6.366   2.848 -1.3576  1.0467 -1.3174
14436TIP3    H264724   6.682   6.354   2.995 -0.8382 -1.2972 -1.3703
14437TIP3   OH264725   3.922   4.916  14.210 -0.0877 -0.0808 -0.8898
14437TIP3    H164726   3.922   4.987  14.146  0.3207 -1.5000 -2.5626
14437TIP3    H264727   3.895   4.956  14.292  1.1148  2.2018 -1.5330
14438TIP3   OH264728   6.708   1.700  13.088 -0.1322 -0.5425 -0.7080
14438TIP3    H164729   6.718   1.630  13.152  1.7715  1.3969  1.2579
14438TIP3    H264730   6.781   1.688  13.027 -0.4369 -0.8710 -1.0145
14439TIP3   OH264731   2.850   3.290  11.337  0.3462 -0.0086 -0.4077
14439TIP3    H164732   2.860   3.236  11.259 -0.5466 -1.7827  0.6550
14439TIP3    H264733   2.939   3.307  11.366  0.6979 -3.3216  0.7885
14440TIP3   OH264734   2.103   1.295  15.793 -0.3860  0.0983  0.3242
14440TIP3    H164735   2.027   1.345  15.763 -2.3908 -3.0360 -0.2845
14440TIP3    H264736   2.142   1.350  15.861 -2.0705  2.6435 -0.6053
14441TIP3   OH264737   4.501   1.364   0.986  0.7495  0.0810 -0.0470
14441TIP3    H164738   4.510   1.380   0.892 -2.5515  1.0113 -0.3314
14441TIP3    H264739   4.469   1.274   0.992  0.7788  0.0850  0.1605
14442TIP3   OH264740   6.138   0.471   3.051  0.0764  0.1781  0.6318
14442TIP3    H164741   6.085   0.523   2.992  0.7551  1.9553  1.4969
14442TIP3    H264742   6.075   0.429   3.110 -0.4515  1.7738  1.2675
14443TIP3   OH264743   0.704   2.581   2.474 -0.4225  0.2182  0.2541
14443TIP3    H164744   0.684   2.586   2.567 -0.8362  0.1538  0.1717
14443TIP3    H264745   0.618   2.579   2.431 -0.2358  0.0543 -0.1165
14444TIP3   OH264746   5.296   2.902  16.378  0.1031 -0.3526  0.8757
14444TIP3    H164747   5.301   2.968  16.309  1.0717 -0.5739  0.7232
14444TIP3    H264748   5.207   2.909  16.411  0.1410  0.9279  0.7530
14445TIP3   OH264749   1.049   3.920  11.326 -0.5205  0.3049  0.1631
14445TIP3    H164750   1.002   3.991  11.371  0.0900  0.9673 -0.2201
14445TIP3    H264751   0.991   3.894  11.254 -0.8248  0.2979  0.4127
14446TIP3   OH264752   4.164   2.049   0.220  0.4117  0.5807 -0.0356
14446TIP3    H164753   4.131   2.122   0.169  0.0101  2.2717  2.4468
14446TIP3    H264754   4.090   1.988   0.226  0.6415  0.0707 -1.8318
14447TIP3   OH264755   4.294   5.695   4.468 -0.5117 -0.2620  0.6766
14447TIP3    H164756   4.348   5.755   4.520 -2.2097  0.6836  1.4351
14447TIP3    H264757   4.254   5.637   4.533 -0.2388 -1.1152  0.1013
14448TIP3   OH264758   0.804   6.688  13.223 -0.0717 -0.4915 -0.2352
14448TIP3    H164759   0.848   6.643  13.150 -0.3227 -1.2368  0.0601
14448TIP3    H264760   0.799   6.779  13.195  1.0080 -0.5239 -0.5808
14449TIP3   OH264761   4.111   2.846  12.401 -0.5006 -0.6621  0.1565
14449TIP3    H164762   4.085   2.924  12.450 -0.2975 -0.0618 -0.6820
14449TIP3    H264763   4.034   2.789  12.404 -1.2823  0.3168 -0.7211
14450TIP3   OH264764   2.086   2.634  13.337 -0.2803  0.6919  0.1680
14450TIP3    H164765   2.027   2.581  13.284 -0.2461 -0.0917  0.8911
14450TIP3    H264766   2.057   2.620  13.427  0.4090  1.0499  0.4562
14451TIP3   OH264767   2.843   0.925   1.720  0.5102  0.2686  0.4756
14451TIP3    H164768   2.897   0.992   1.678  0.2485  0.3005  0.1855
14451TIP3    H264769   2.785   0.974   1.780 -0.8678  0.5014 -0.9817
14452TIP3   OH264770   5.628   5.549   1.288  0.9710  0.4592 -0.2156
14452TIP3    H164771   5.547   5.585   1.251  0.9367 -1.0439 -1.7172
14452TIP3    H264772   5.599   5.497   1.363  0.7509  1.3132  0.3075
14453TIP3   OH264773   5.753   2.193  15.050  0.1832 -0.2455  0.5984
14453TIP3    H164774   5.675   2.162  15.003 -0.1522  0.6339  0.5634
14453TIP3    H264775   5.826   2.152  15.005 -0.1354  0.5381 -0.6768
14454TIP3   OH264776   4.701   1.478  11.920 -0.5010  0.8002  0.0190
14454TIP3    H164777   4.666   1.556  11.964  2.5814  2.1896  0.2362
14454TIP3    H264778   4.768   1.511  11.861 -1.3321 -1.4678 -2.4241
14455TIP3   OH264779   1.004   0.804  13.406  0.3647 -0.0934 -0.5111
14455TIP3    H164780   1.090   0.842  13.385  0.2670 -0.2981 -1.3394
14455TIP3    H264781   1.022   0.740  13.474  0.6106  1.0516  0.5211
14456TIP3   OH264782   5.346   0.126   1.492  0.1972  0.1828  0.1527
14456TIP3    H164783   5.340   0.075   1.411  0.2861  1.6496 -0.8227
14456TIP3    H264784   5.256   0.153   1.510  0.2769  0.4891  0.1034
14457TIP3   OH264785   0.845   6.045  12.856 -0.8035 -0.3545 -0.0453
14457TIP3    H164786   0.914   6.102  12.821 -2.0247  0.4659 -1.2031
14457TIP3    H264787   0.778   6.105  12.890 -0.8955 -1.1380  1.2421
14458TIP3   OH264788   0.083   0.476  17.123 -0.2665  0.4130  0.4595
14458TIP3    H164789   0.042   0.480  17.209  1.0607  0.3737  1.1219
14458TIP3    H264790   0.130   0.393  17.122 -2.2991 -0.8263 -1.3024
14459TIP3   OH264791   1.705   2.345  16.365  0.0864 -0.0038 -0.2274
14459TIP3    H164792   1.762   2.416  16.396 -2.4540  2.0596  0.0535
14459TIP3    H264793   1.699   2.285  16.440 -0.7406  1.5108  0.9728
14460TIP3   OH264794   3.540   2.499   2.893 -0.7742  0.2228 -0.0765
14460TIP3    H164795   3.572   2.569   2.836  1.4052 -1.1634 -0.6617
14460TIP3    H264796   3.571   2.418   2.852 -1.6556 -0.9952  1.5349
14461TIP3   OH264797   6.475   6.183   2.335 -0.4773 -0.4368  0.0112
14461TIP3    H164798   6.473   6.120   2.263  0.8203 -0.7990  0.2730
14461TIP3    H264799   6.539   6.249   2.308 -1.4730  0.5273 -0.0481
14462TIP3   OH264800   2.060   1.684  12.638 -0.1403  0.0663 -0.7427
14462TIP3    H164801   2.137   1.735  12.612  0.8668 -0.5405  0.8527
14462TIP3    H264802   2.007   1.677  12.559  1.0335  1.2258 -1.6746
14463TIP3   OH264803   4.709   4.073   3.400 -0.5088  0.3922 -0.1744
14463TIP3    H164804   4.738   3.995   3.352  0.1999 -0.3977  1.4706
14463TIP3    H264805   4.625   4.047   3.438 -0.2818  0.4382  0.3602
14464TIP3   OH264806   5.984   0.089  12.840 -0.8515  0.3791  0.0040
14464TIP3    H164807   5.933   0.088  12.921  1.7463  0.4716  1.7800
14464TIP3    H264808   6.021   0.178  12.837 -0.3434  0.1437 -0.9098
14465TIP3   OH264809   0.786   1.370  16.816 -0.2753 -0.0708 -0.2583
14465TIP3    H164810   0.849   1.352  16.747  0.6700  1.6118  0.1252
14465TIP3    H264811   0.738   1.287  16.827  0.0050 -0.5694 -2.4248
14466TIP3   OH264812   2.433   2.236   2.565 -0.0852  0.0427  0.1582
14466TIP3    H164813   2.462   2.207   2.651 -0.8613  0.4873  0.5804
14466TIP3    H264814   2.487   2.314   2.547  1.3967 -1.1037 -0.6052
14467TIP3   OH264815   0.008   1.674   2.379  0.1644 -0.1947 -0.0731
14467TIP3    H164816  -0.009   1.591   2.425 -0.0992  0.3350  0.8071
14467TIP3    H264817   0.103   1.676   2.368  0.4204  0.4436  1.9718
14468TIP3   OH264818   5.307   5.929   1.182 -0.7033 -0.0608 -0.0129
14468TIP3    H164819   5.298   6.016   1.220  1.2873  1.3936 -2.5550
14468TIP3    H264820   5.380   5.889   1.229  1.9853  1.8649 -2.2374
14469TIP3   OH264821   4.892   4.213  15.329 -0.4024  0.4353 -0.0476
14469TIP3    H164822   4.858   4.249  15.246  1.5533  1.8176 -0.3327
14469TIP3    H264823   4.928   4.289  15.374 -0.4049 -0.4937  1.5911
14470TIP3   OH264824   6.343   0.965   1.761 -0.4053  0.0219 -0.1547
14470TIP3    H164825   6.407   0.897   1.739  0.1560  0.6901 -0.6290
14470TIP3    H264826   6.345   1.025   1.686 -0.6671  0.7180  0.3859
14471TIP3   OH264827   4.079   3.689   2.028  0.2650  0.3312  0.4086
14471TIP3    H164828   4.039   3.679   1.942  1.4968 -1.4378  0.0021
14471TIP3    H264829   4.106   3.601   2.053 -0.0116  0.7999  2.6067
14472TIP3   OH264830   5.113   5.681  10.789 -0.1788 -0.7875  0.9346
14472TIP3    H164831   5.154   5.765  10.808 -0.9568 -0.3811  0.8381
14472TIP3    H264832   5.178   5.633  10.738  0.2451 -0.2240  0.9432
14473TIP3   OH264833   1.189   5.362   5.452 -0.1181 -0.2513  0.1070
14473TIP3    H164834   1.237   5.443   5.471 -1.6192  0.8810 -0.7621
14473TIP3    H264835   1.127   5.353   5.524 -0.6231 -0.1008 -0.3094
14474TIP3   OH264836   2.492   1.935   0.282 -0.6122  0.1573  0.0635
14474TIP3    H164837   2.409   1.949   0.327 -0.9734 -2.7774  0.4733
14474TIP3    H264838   2.486   1.847   0.247  2.0331  0.1599 -0.6188
14475TIP3   OH264839   0.712   4.256  16.532  0.3192 -0.0024 -0.0514
14475TIP3    H164840   0.651   4.301  16.473  0.3932 -0.2806 -0.3459
14475TIP3    H264841   0.675   4.168  16.542 -0.4387  0.4605  1.4271
14476TIP3   OH264842   2.562   0.553   2.100 -0.3356  0.1491 -0.3004
14476TIP3    H164843   2.547   0.480   2.039 -3.2838  1.5982 -1.5150
14476TIP3    H264844   2.574   0.629   2.043  1.5119  0.8569  0.9558
14477TIP3   OH264845   1.308   3.235  14.204 -0.0953 -0.7618  0.3601
14477TIP3    H164846   1.362   3.265  14.130 -0.0403 -0.1891  0.6280
14477TIP3    H264847   1.368   3.234  14.278 -0.3400 -0.5982  0.5594
14478TIP3   OH264848   6.008   6.500   3.544 -0.2525  0.6260 -0.0613
14478TIP3    H164849   5.918   6.471   3.561  0.2927 -0.2252  1.5733
14478TIP3    H264850   6.045   6.431   3.490  0.2766 -0.5557  1.7309
14479TIP3   OH264851   6.002   5.716   3.145  0.2721  1.1448  0.0490
14479TIP3    H164852   6.013   5.721   3.050 -0.1852  0.8554 -0.0246
14479TIP3    H264853   6.090   5.729   3.180  0.5480  0.6460 -0.4378
14480TIP3   OH264854   6.176   1.843  11.320 -0.3790  0.4614 -0.2298
14480TIP3    H164855   6.190   1.898  11.398  4.2514 -0.4084 -0.1251
14480TIP3    H264856   6.111   1.779  11.347  0.6041  0.5665  2.8059
14481TIP3   OH264857   1.762   0.452   0.771  0.5264  0.2070  0.7884
14481TIP3    H164858   1.751   0.414   0.858 -1.4010  0.6547  0.7907
14481TIP3    H264859   1.705   0.400   0.715 -1.3008  2.2629  0.5796
14482TIP3   OH264860   6.752   0.007   0.537 -0.1168 -0.6675  0.5482
14482TIP3    H164861   6.735   0.035   0.627  0.0121 -0.5057  0.5203
14482TIP3    H264862   6.765  -0.088   0.544  1.7440 -0.4043  0.9589
14483TIP3   OH264863   3.771   5.353   0.877 -0.8772 -0.6565 -0.1601
14483TIP3    H164864   3.771   5.330   0.970 -4.5226  0.1864  0.2107
14483TIP3    H264865   3.764   5.448   0.876 -0.4861 -0.6273 -1.3180
14484TIP3   OH264866   1.364   5.156  13.578 -0.4155 -0.6178  0.1436
14484TIP3    H164867   1.443   5.178  13.627 -0.7500  0.9898  0.0167
14484TIP3    H264868   1.298   5.139  13.645 -0.9803  1.9662  0.3644
14485TIP3   OH264869   4.766   5.393   0.949  0.0635  0.2290  0.1067
14485TIP3    H164870   4.806   5.418   0.866  1.0197  0.7538  0.7047
14485TIP3    H264871   4.813   5.445   1.015  0.0028 -0.8950  1.0695
14486TIP3   OH264872   1.168   4.305  15.515  0.6827 -0.3055  0.2622
14486TIP3    H164873   1.247   4.254  15.535  1.4717  0.2772 -1.2253
14486TIP3    H264874   1.099   4.239  15.506  1.1828 -0.8996  0.6987
14487TIP3   OH264875   1.404   2.241  13.966 -0.0254 -0.3616 -0.0908
14487TIP3    H164876   1.373   2.284  13.886 -0.1701  0.5440  0.4369
14487TIP3    H264877   1.496   2.267  13.972 -0.2521  0.3272  0.5144
14488TIP3   OH264878   0.046   3.758   2.076 -0.1768  0.0371  0.3801
14488TIP3    H164879   0.068   3.756   2.169  0.0362  0.0954  0.3317
14488TIP3    H264880   0.061   3.849   2.049 -0.7834  0.1527  0.4176
14489TIP3   OH264881   1.142   0.269  14.728  0.0022 -0.0881  0.5876
14489TIP3    H164882   1.229   0.293  14.759  1.2251 -2.9050 -0.2658
14489TIP3    H264883   1.116   0.195  14.783  0.1981 -2.1826 -1.9243
14490TIP3   OH264884   6.353   0.380   2.339  0.0309  0.1914 -0.3635
14490TIP3    H164885   6.441   0.347   2.319  0.5460  1.6304 -0.6367
14490TIP3    H264886   6.294   0.326   2.287  1.0139  1.1421 -2.6248
14491TIP3   OH264887   3.668   0.019  14.579  0.3152  0.1478  0.4058
14491TIP3    H164888   3.579  -0.005  14.551  0.5056  1.8444 -1.9454
14491TIP3    H264889   3.689  -0.044  14.648 -2.0501 -1.3622 -0.1267
14492TIP3   OH264890   3.567   2.769  15.907  0.4643  0.2030  0.1482
14492TIP3    H164891   3.485   2.774  15.955  0.3808  0.3651 -0.0121
14492TIP3    H264892   3.628   2.728  15.968  0.1984 -0.1594  0.1719
14493TIP3   OH264893   0.926   4.944  17.001 -0.0692  0.5561 -0.6532
14493TIP3    H164894   0.965   4.876  17.055 -1.0182 -1.1612 -2.0460
14493TIP3    H264895   0.976   4.942  16.920 -0.6252  0.9538 -1.0160
14494TIP3   OH264896   3.673   5.269   5.461 -0.1376  0.2038 -0.2738
14494TIP3    H164897   3.699   5.237   5.547 -0.0111 -0.4962 -0.5608
14494TIP3    H264898   3.597   5.325   5.477 -0.8626 -0.8828  0.1792
14495TIP3   OH264899   1.333   3.855  11.709  0.3350  0.6149  0.2762
14495TIP3    H164900   1.273   3.925  11.736  0.1512  0.2425  0.8583
14495TIP3    H264901   1.364   3.882  11.622 -1.1993  0.4677 -0.3429
14496TIP3   OH264902   1.426   5.037   3.443  0.1448  0.6989  0.2388
14496TIP3    H164903   1.394   5.109   3.497 -0.6464 -0.6346  1.5960
14496TIP3    H264904   1.484   4.988   3.500  0.1353 -0.1428 -0.4551
14497TIP3   OH264905   1.358   6.586   4.706  0.4944  0.5792 -0.3967
14497TIP3    H164906   1.412   6.627   4.773 -0.3798 -0.7987  1.2187
14497TIP3    H264907   1.376   6.493   4.715 -4.1328 -0.3367  2.2513
14498TIP3   OH264908   1.041   6.290   2.766 -0.1963  0.0313  0.1959
14498TIP3    H164909   1.104   6.305   2.836 -1.1466  0.7392  0.9305
14498TIP3    H264910   1.047   6.196   2.748 -0.2422 -0.2534  1.5401
14499TIP3   OH264911   5.206   3.948   1.792 -0.4727 -0.1256  0.1238
14499TIP3    H164912   5.246   3.893   1.724  1.1779  0.7113  0.3855
14499TIP3    H264913   5.171   3.885   1.855  0.2385 -0.8965 -0.2282
14500TIP3   OH264914   0.172   2.043  13.132  0.3572 -0.5856 -0.0150
14500TIP3    H164915   0.148   2.079  13.046  0.5029  1.5180  0.7577
14500TIP3    H264916   0.265   2.020  13.124  0.5841  0.3637 -0.2101
14501TIP3   OH264917   0.213   2.555   6.097 -0.3279 -0.3848  0.1595
14501TIP3    H164918   0.218   2.637   6.146  0.2514 -0.2677 -0.0862
14501TIP3    H264919   0.129   2.559   6.052 -0.1040  0.2727 -0.2040
14502TIP3   OH264920   6.590   3.674   1.698  0.2475 -0.1513  0.0770
14502TIP3    H164921   6.565   3.607   1.762 -2.2643  0.2535 -0.3973
14502TIP3    H264922   6.583   3.630   1.614 -1.0730  0.5829 -0.2126
14503TIP3   OH264923   0.426   4.747   0.049  0.1550 -0.0291 -0.8858
14503TIP3    H164924   0.449   4.838   0.030  2.0592 -0.2883 -0.0701
14503TIP3    H264925   0.429   4.703  -0.036  1.2267  0.2867 -1.0253
14504TIP3   OH264926   1.714   2.773  13.302  0.5444 -0.0891  0.0397
14504TIP3    H164927   1.687   2.850  13.253 -0.3356  0.5897  1.5374
14504TIP3    H264928   1.653   2.704  13.276  1.9214 -0.6080 -2.0294
14505TIP3   OH264929   4.921   3.958   0.251  0.0911  0.5359  0.0723
14505TIP3    H164930   5.009   3.923   0.251  0.3550  0.9177  2.8205
14505TIP3    H264931   4.864   3.881   0.251  0.4916  0.2365  0.3950
14506TIP3   OH264932   4.563   5.232   2.976 -0.6731 -0.0905  0.0132
14506TIP3    H164933   4.525   5.184   2.902  0.5017 -1.3961  0.2280
14506TIP3    H264934   4.499   5.221   3.046 -0.6415 -0.9645 -0.0836
14507TIP3   OH264935   6.327   5.388   1.696  0.2684 -0.0442  0.3895
14507TIP3    H164936   6.236   5.362   1.706 -0.1616  1.9543  2.3314
14507TIP3    H264937   6.347   5.370   1.604 -1.1595 -3.0822  0.5371
14508TIP3   OH264938   5.224   2.924   4.714 -0.2571 -0.4803 -0.3900
14508TIP3    H164939   5.205   3.018   4.709 -1.1894 -0.5210  1.4747
14508TIP3    H264940   5.223   2.895   4.623 -1.3525  1.0688 -0.9281
14509TIP3   OH264941   3.042   6.357  12.181 -0.5181 -0.2274 -0.6866
14509TIP3    H164942   2.948   6.341  12.183 -0.7492  0.9536 -1.1667
14509TIP3    H264943   3.073   6.330  12.267 -1.9560  2.9931  1.0135
14510TIP3   OH264944   3.818   0.268   5.464  0.4850 -0.2203 -0.3613
14510TIP3    H164945   3.825   0.348   5.412 -1.4725  0.4750  0.3380
14510TIP3    H264946   3.802   0.198   5.401  0.6098  0.2081 -0.8653
14511TIP3   OH264947   1.514   4.731  10.747  0.5330 -0.8220  1.1713
14511TIP3    H164948   1.541   4.702  10.833  1.5193  1.4407  1.7165
14511TIP3    H264949   1.450   4.666  10.718  2.3995 -3.3090  2.2645
14512TIP3   OH264950   1.860   1.664   3.117 -0.3240 -0.0180 -0.0544
14512TIP3    H164951   1.846   1.692   3.208  2.0913 -0.1140  0.4075
14512TIP3    H264952   1.794   1.712   3.067 -0.2035  1.8549  1.4564
14513TIP3   OH264953   4.844   5.975   5.540  0.6776 -0.4685  0.1914
14513TIP3    H164954   4.865   6.011   5.626  1.6259 -2.1448  0.7086
14513TIP3    H264955   4.758   5.935   5.550  0.2361  0.4033 -0.0067
14514TIP3   OH264956   0.945   1.076   2.032  0.0750  0.0832 -0.7335
14514TIP3    H164957   0.852   1.098   2.023 -0.0248  0.3924  0.7255
14514TIP3    H264958   0.970   1.114   2.116  1.4902 -0.1385 -1.0334
14515TIP3   OH264959   6.070   0.315   4.890  0.2151  1.0009 -0.3729
14515TIP3    H164960   6.103   0.345   4.805  1.0234 -1.2165 -0.9050
14515TIP3    H264961   5.976   0.329   4.886  0.1718  0.4309 -1.8780
14516TIP3   OH264962   0.915   1.709   2.763 -0.0902 -0.4240 -0.0983
14516TIP3    H164963   0.965   1.637   2.800  1.4393 -0.5696 -2.2233
14516TIP3    H264964   0.858   1.668   2.698  1.6345  0.2916 -2.1781
14517TIP3   OH264965   4.242   4.173   1.358 -0.1602  0.2216 -0.1085
14517TIP3    H164966   4.177   4.217   1.303  2.0790  2.3800 -1.2530
14517TIP3    H264967   4.288   4.114   1.299  0.4736  0.5022  0.0968
14518TIP3   OH264968   4.968   3.817  11.650  0.9940 -0.4556 -0.1368
14518TIP3    H164969   4.927   3.735  11.623  0.9444 -0.1131 -1.1366
14518TIP3    H264970   5.047   3.790  11.697 -0.0861 -1.1147  1.3801
14519TIP3   OH264971   1.211   3.585  12.011  0.0936  0.5351  0.2629
14519TIP3    H164972   1.270   3.550  11.944  2.7492  0.6873  2.3619
14519TIP3    H264973   1.159   3.509  12.039  0.8546 -0.1379 -0.1092
14520TIP3   OH264974   6.361   4.050  12.655  0.1560 -0.3095 -0.4270
14520TIP3    H164975   6.388   4.000  12.732 -0.2129  0.9087  0.5229
14520TIP3    H264976   6.430   4.115  12.644 -0.2707  0.1213 -0.5569
14521TIP3   OH264977   1.245   1.039   2.972 -0.2626  0.2927 -0.0168
14521TIP3    H164978   1.270   0.947   2.967 -0.1944  0.4020 -2.3935
14521TIP3    H264979   1.150   1.038   2.982 -0.2096 -0.0169  0.4929
14522TIP3   OH264980   2.625   1.348   5.101 -0.2940  0.3328  0.0601
14522TIP3    H164981   2.565   1.301   5.044  0.4681 -1.5735  0.7658
14522TIP3    H264982   2.614   1.308   5.187  0.8116  1.0457  0.5645
14523TIP3   OH264983   5.970   5.792   0.601 -0.7332 -0.5381 -0.5053
14523TIP3    H164984   5.875   5.787   0.600 -0.7360 -0.4818 -0.4721
14523TIP3    H264985   5.990   5.874   0.555 -0.7615  0.5027  1.2665
14524TIP3   OH264986   3.764   4.067  11.340 -0.2419 -0.1157 -0.2918
14524TIP3    H164987   3.749   4.150  11.295 -0.8655 -0.4544 -0.7221
14524TIP3    H264988   3.721   4.077  11.425 -1.2996 -0.3759 -0.7683
14525TIP3   OH264989   3.294   5.663   0.649  0.3003  0.0862  0.2039
14525TIP3    H164990   3.239   5.627   0.579  0.5782 -0.2106  0.1354
14525TIP3    H264991   3.349   5.728   0.606 -0.1535  0.5550  0.3150
14526TIP3   OH264992   4.226   3.453   0.463  0.0941 -0.1845 -0.5237
14526TIP3    H164993   4.167   3.436   0.536 -0.9982  2.0498 -0.8333
14526TIP3    H264994   4.306   3.486   0.504 -0.6925  1.5370 -0.3237
14527TIP3   OH264995   4.836   0.379   1.093 -0.9138 -0.1501  0.0243
14527TIP3    H164996   4.857   0.420   1.009  1.3786 -0.1108  0.5369
14527TIP3    H264997   4.841   0.450   1.156  2.0496 -0.8625  0.7690
14528TIP3   OH264998   3.320   4.597   5.600 -0.1864  0.2274 -0.4887
14528TIP3    H164999   3.239   4.550   5.621  0.3964  0.4222  2.7160
14528TIP3    H265000   3.334   4.580   5.507 -3.0464 -1.1079 -0.7957
14529TIP3   OH265001   3.195   3.982   4.245 -0.5944 -0.2245 -0.6678
14529TIP3    H165002   3.254   3.979   4.320 -1.8872 -1.0049  0.3559
14529TIP3    H265003   3.228   3.914   4.186  0.7290  0.7318 -1.0803
14530TIP3   OH265004   4.729   1.351   3.334 -0.0516 -0.0105 -0.0862
14530TIP3    H165005   4.776   1.292   3.275  0.5732  0.0273  0.3648
14530TIP3    H265006   4.657   1.386   3.281  0.1385 -0.4421 -0.6386
14531TIP3   OH265007   5.510   1.272   5.245  0.2730 -0.7611 -0.3213
14531TIP3    H165008   5.419   1.249   5.231  0.8762 -2.7176 -1.3743
14531TIP3    H265009   5.532   1.231   5.329  0.9173 -2.8053 -1.4381
14532TIP3   OH265010   6.292   5.031  14.230  0.1466 -0.5025 -0.3543
14532TIP3    H165011   6.307   5.000  14.320 -1.5430 -0.8000 -0.1500
14532TIP3    H265012   6.266   5.122  14.240  1.7611  0.0295 -0.7102
14533TIP3   OH265013   4.561   5.260   4.758 -0.3902  0.6267 -0.3715
14533TIP3    H165014   4.581   5.325   4.825 -1.7949  0.1192  0.5784
14533TIP3    H265015   4.632   5.269   4.694  0.3517  1.9144  0.5879
14534TIP3   OH265016   1.995   3.600   3.406 -1.2738 -0.2055 -1.0043
14534TIP3    H165017   1.984   3.607   3.311 -1.1938 -1.2452 -1.0946
14534TIP3    H265018   2.088   3.581   3.418 -0.9034  1.6703 -0.6060
14535TIP3   OH265019   0.522   0.156  11.372 -0.0114 -0.6049  0.4059
14535TIP3    H165020   0.515   0.155  11.277  1.8767  0.2468  0.2122
14535TIP3    H265021   0.565   0.073  11.394  0.0620 -0.5515  0.4648
14536TIP3   OH265022   2.750   0.547   2.756  0.1548  0.0342  0.2646
14536TIP3    H165023   2.839   0.574   2.779  0.1413  1.4925 -1.1950
14536TIP3    H265024   2.694   0.618   2.788 -0.1888  0.3900 -1.0385
14537TIP3   OH265025   5.810   6.619   1.960  0.1405  0.0655  0.3057
14537TIP3    H165026   5.842   6.546   2.014  1.5437 -0.2304 -0.8807
14537TIP3    H265027   5.770   6.577   1.884 -1.4961  0.4888  0.9043
14538TIP3   OH265028   6.676   2.847   1.645  0.0055  0.1029 -0.0514
14538TIP3    H165029   6.669   2.777   1.580  0.9392  0.7237 -0.8486
14538TIP3    H265030   6.586   2.876   1.659 -0.4724 -1.5730  0.6743
14539TIP3   OH265031   6.189   4.266   2.334  0.2374  0.3453 -1.0085
14539TIP3    H165032   6.238   4.340   2.297 -0.4816  0.9637 -0.7477
14539TIP3    H265033   6.164   4.213   2.258  1.1330  0.1231 -1.1617
14540TIP3   OH265034   4.653   2.838   5.264  0.3663  0.2427  0.4812
14540TIP3    H165035   4.632   2.873   5.350  0.6199  0.7307  0.3485
14540TIP3    H265036   4.648   2.743   5.274 -0.2097  0.3087  0.8795
14541TIP3   OH265037   1.380   1.068   0.767  0.4442 -0.4181 -0.2783
14541TIP3    H165038   1.302   1.093   0.817  1.3793  1.4639  0.3188
14541TIP3    H265039   1.439   1.031   0.832  0.8643  0.1356 -0.3367
14542TIP3   OH265040   1.027   0.743  11.647  0.4049  0.0349 -0.1644
14542TIP3    H165041   1.037   0.830  11.684 -0.1073  0.9252 -2.0011
14542TIP3    H265042   1.048   0.754  11.554 -0.9554 -1.5003 -0.7085
14543TIP3   OH265043   1.036   6.611  11.028 -0.6934 -0.0737 -0.2370
14543TIP3    H165044   1.085   6.645  10.953  0.2493 -0.2057  0.2995
14543TIP3    H265045   0.944   6.624  11.004 -0.5475 -2.1490 -2.4087
14544TIP3   OH265046   2.188   2.718  13.866  0.9855  0.4428 -0.0873
14544TIP3    H165047   2.269   2.671  13.843  0.4580  0.4116 -2.0547
14544TIP3    H265048   2.119   2.651  13.858  0.7063  0.5247  1.3575
14545TIP3   OH265049   4.737   4.200   2.601 -0.6160  0.1000 -0.0197
14545TIP3    H165050   4.706   4.209   2.691 -1.0464 -0.2054 -0.1376
14545TIP3    H265051   4.824   4.241   2.602  0.0834 -1.3267  0.9211
14546TIP3   OH265052   2.986   5.007   1.922  0.4015 -0.9992  0.0089
14546TIP3    H165053   2.913   5.066   1.903  0.7779 -0.9655 -1.4427
14546TIP3    H265054   2.946   4.922   1.935  0.0515 -0.8648 -0.1878
14547TIP3   OH265055   0.645   5.486  16.509  0.8145 -0.2208  0.1009
14547TIP3    H165056   0.709   5.418  16.528  0.0908 -1.2774 -1.0583
14547TIP3    H265057   0.653   5.500  16.415  1.3827  1.7869  0.4031
14548TIP3   OH265058   5.746   4.396   1.490  0.4379 -0.5674  0.2892
14548TIP3    H165059   5.728   4.490   1.497 -0.8210 -0.6328 -1.4642
14548TIP3    H265060   5.740   4.377   1.396 -0.6266 -2.6218  0.7015
14549TIP3   OH265061   0.402   0.098   4.712 -0.4461 -0.7989 -0.4630
14549TIP3    H165062   0.440   0.179   4.745 -3.0511  0.9085 -1.3473
14549TIP3    H265063   0.475   0.050   4.674  1.1670  1.1477  0.0532
14550TIP3   OH265064   6.298   5.674  17.145 -0.0250 -0.3645  0.1061
14550TIP3    H165065   6.244   5.680  17.225 -1.3113 -0.2661 -0.7329
14550TIP3    H265066   6.368   5.613  17.168 -1.2476 -1.5616  0.8682
14551TIP3   OH265067   1.193   4.813  10.850  0.2374  0.3679 -0.7749
14551TIP3    H165068   1.129   4.837  10.783  1.3174  1.2722 -1.5150
14551TIP3    H265069   1.242   4.741  10.812 -0.6751 -0.7267  0.0305
14552TIP3   OH265070   1.528   4.397  17.336 -0.1392  0.1472  0.1160
14552TIP3    H165071   1.584   4.435  17.405 -0.9603  1.2134  0.2178
14552TIP3    H265072   1.439   4.413  17.366 -0.5110 -1.1174 -0.2778
14553TIP3   OH265073   1.371   1.778  11.171 -0.3025  0.3000  0.1145
14553TIP3    H165074   1.396   1.762  11.262 -1.0539 -1.7017  0.0185
14553TIP3    H265075   1.412   1.706  11.122 -0.1472  1.1923 -1.0944
14554TIP3   OH265076   1.320   1.537   5.858  0.0191 -0.2147 -0.1898
14554TIP3    H165077   1.300   1.537   5.952 -1.0222  0.8013 -0.3863
14554TIP3    H265078   1.323   1.630   5.834  1.0944 -0.4367 -1.0112
14555TIP3   OH265079   4.327   2.716  16.979 -0.3111 -0.2665 -0.7239
14555TIP3    H165080   4.419   2.722  17.003 -0.8828 -0.4411  1.7211
14555TIP3    H265081   4.328   2.695  16.885  2.1390 -1.4855 -0.4990
14556TIP3   OH265082   1.155   5.103  17.075 -0.2531 -0.2737  0.4871
14556TIP3    H165083   1.076   5.146  17.109 -1.3623 -0.8479 -1.2163
14556TIP3    H265084   1.220   5.114  17.145 -1.9003 -0.0294  2.0665
14557TIP3   OH265085   4.503   1.938   3.009 -0.1902 -0.0897 -0.4024
14557TIP3    H165086   4.540   1.900   2.929  0.8630  1.8282 -0.8866
14557TIP3    H265087   4.458   2.017   2.981 -0.6958  0.0785  0.7920
14558TIP3   OH265088   1.627   2.624   2.448 -0.2291  0.3569 -0.2756
14558TIP3    H165089   1.671   2.573   2.515 -0.8219  0.4658  0.2060
14558TIP3    H265090   1.630   2.714   2.479 -0.7182  0.3759 -0.2698
14559TIP3   OH265091   4.421   6.362  13.008 -0.1988 -0.1405  0.2022
14559TIP3    H165092   4.436   6.329  12.919 -0.5367 -1.0599  0.4743
14559TIP3    H265093   4.456   6.451  13.007 -1.1849  0.2753 -1.1843
14560TIP3   OH265094   4.762   4.272   0.134  0.5774  0.3453  0.0776
14560TIP3    H165095   4.819   4.230   0.198 -1.9939 -1.9832  1.0537
14560TIP3    H265096   4.699   4.321   0.186 -1.6652 -1.7236 -0.4750
14561TIP3   OH265097   2.278   0.857   4.987 -0.2389  0.5303 -0.2927
14561TIP3    H165098   2.264   0.828   4.897  0.6764 -1.6719  0.2193
14561TIP3    H265099   2.226   0.797   5.041  1.8472 -0.3603  0.8331
14562TIP3   OH265100   2.042   0.660  13.883 -0.3322 -0.1837  0.2759
14562TIP3    H165101   2.084   0.574  13.883 -1.4003 -0.7638 -1.9605
14562TIP3    H265102   2.002   0.666  13.970  1.2437 -1.1411  1.1221
14563TIP3   OH265103   4.289   6.721   0.824 -0.2645 -0.5026 -0.6603
14563TIP3    H165104   4.358   6.787   0.822  0.6403 -1.3883  0.3706
14563TIP3    H265105   4.296   6.676   0.740 -0.9566  0.7331 -1.4196
14564TIP3   OH265106   1.908   5.148   0.167 -0.4735 -0.5721  0.3070
14564TIP3    H165107   1.880   5.115   0.253  0.2171  1.3563  1.3221
14564TIP3    H265108   1.977   5.087   0.140 -1.3845 -1.7892  0.6223
14565TIP3   OH265109   4.258   4.272  14.193 -0.1210  0.2101  0.3136
14565TIP3    H165110   4.237   4.251  14.284 -1.2324  2.5966  0.6697
14565TIP3    H265111   4.269   4.367  14.192 -1.6792  0.4523 -2.2940
14566TIP3   OH265112   1.850   5.413   1.422  0.0452 -0.2313  0.7155
14566TIP3    H165113   1.823   5.324   1.444  1.1567 -0.5869  0.7029
14566TIP3    H265114   1.889   5.447   1.502  0.1203  0.0487  0.5608
14567TIP3   OH265115   3.360   6.251  12.847  0.2953 -0.2152  0.4510
14567TIP3    H165116   3.330   6.262  12.757  0.5103 -0.8588  0.2940
14567TIP3    H265117   3.397   6.162  12.849  1.2034  0.1608  0.9140
14568TIP3   OH265118   0.187   5.558   5.848  0.0772 -0.2901 -0.0817
14568TIP3    H165119   0.111   5.500   5.853  1.0164 -1.4891  1.4361
14568TIP3    H265120   0.210   5.576   5.939  0.2845  1.8966 -0.5173
14569TIP3   OH265121   2.264   5.221  13.708  0.0888  0.6412 -0.3207
14569TIP3    H165122   2.307   5.227  13.623  2.7420  0.0988  0.8714
14569TIP3    H265123   2.242   5.129  13.718  3.6300 -0.2369  1.1463
14570TIP3   OH265124   4.582   6.648  12.123  0.4087 -0.4185  0.3534
14570TIP3    H165125   4.562   6.616  12.035  2.7568 -1.1848  0.0169
14570TIP3    H265126   4.543   6.584  12.182 -3.2145  1.2832  0.0813
14571TIP3   OH265127   2.648   0.376  16.927 -0.2830 -0.2013 -0.4228
14571TIP3    H165128   2.635   0.357  16.834  0.9715 -0.8544 -0.4866
14571TIP3    H265129   2.672   0.292  16.966 -0.1888  0.1851  0.3862
14572TIP3   OH265130   0.825   2.037   6.174 -0.2111  0.6441 -0.0435
14572TIP3    H165131   0.871   2.117   6.198 -0.8398  0.9271  0.2376
14572TIP3    H265132   0.835   1.980   6.250  1.1153  0.0514 -0.6406
14573TIP3   OH265133   4.991   2.493   2.056 -0.1741 -0.3097  0.1134
14573TIP3    H165134   5.006   2.528   2.144  1.4879 -0.7532  0.0322
14573TIP3    H265135   5.033   2.407   2.056  0.0253 -0.2377 -1.1626
14574TIP3   OH265136   1.787   6.755   1.478  0.3507  0.1505  0.2039
14574TIP3    H165137   1.749   6.824   1.424 -2.5070 -1.4987 -0.0784
14574TIP3    H265138   1.878   6.750   1.450 -0.3740  1.1170 -2.5869
14575TIP3   OH265139   4.539   6.015  12.366 -0.2488 -0.0327 -0.2291
14575TIP3    H165140   4.610   6.042  12.425 -0.6053  0.9799 -0.2468
14575TIP3    H265141   4.517   5.926  12.394  2.1611 -1.0539 -1.3247
14576TIP3   OH265142   3.177   3.872   3.829 -0.4326 -0.1703 -0.3233
14576TIP3    H165143   3.218   3.905   3.749 -0.6883  0.1437 -0.3265
14576TIP3    H265144   3.130   3.947   3.865  0.9926  0.1491  0.9972
14577TIP3   OH265145   2.673   6.618   4.628  0.5659 -0.2210 -0.0336
14577TIP3    H165146   2.715   6.531   4.625  0.2489 -0.3476 -0.9157
14577TIP3    H265147   2.732   6.670   4.682  2.0476 -0.3144 -1.4896
14578TIP3   OH265148   2.359   5.480   5.995  0.1991 -0.7575 -0.0440
14578TIP3    H165149   2.435   5.496   6.051 -1.0238 -1.3622  1.8523
14578TIP3    H265150   2.290   5.451   6.054 -0.9509 -2.1873 -1.9553
14579TIP3   OH265151   5.809   3.076   2.166  0.1620  0.4696  0.2688
14579TIP3    H165152   5.810   3.025   2.247 -1.3397 -1.7269 -0.9743
14579TIP3    H265153   5.853   3.157   2.188  0.1655 -0.2066  3.1703
14580TIP3   OH265154   5.835   1.106   2.630 -0.7981  0.0576  0.5683
14580TIP3    H165155   5.810   1.195   2.653  0.2608  0.4371  0.2985
14580TIP3    H265156   5.758   1.069   2.587 -1.9202  0.1894  2.3575
14581TIP3   OH265157   1.677   3.595   4.152  0.0230  0.2272  0.5160
14581TIP3    H165158   1.669   3.504   4.182 -2.1512 -0.1166 -0.9041
14581TIP3    H265159   1.605   3.641   4.196 -0.3277  0.7347 -0.5543
14582TIP3   OH265160   2.956   6.400  13.862 -0.1003  0.3186  0.4091
14582TIP3    H165161   2.895   6.473  13.877  0.8630  1.5907 -1.4510
14582TIP3    H265162   3.021   6.408  13.932  0.6872  2.0857 -0.4549
14583TIP3   OH265163   1.605   2.704   0.874 -0.1543  0.2366  0.3362
14583TIP3    H165164   1.684   2.663   0.909 -1.3895  0.3208  3.5090
14583TIP3    H265165   1.613   2.796   0.900 -1.2623  0.2490  0.6858
14584TIP3   OH265166   1.425   5.943   4.198 -0.3729  0.8803  0.9029
14584TIP3    H165167   1.407   5.969   4.289  1.3936  2.2213  0.9117
14584TIP3    H265168   1.509   5.983   4.178 -0.5943  0.3620 -1.2531
14585TIP3   OH265169   1.667   0.644  12.943 -0.0303  0.2009 -0.2707
14585TIP3    H165170   1.603   0.670  12.877  0.8579 -0.2052 -1.3176
14585TIP3    H265171   1.709   0.726  12.969  2.3976  0.0425 -3.1824
14586TIP3   OH265172   5.758   4.039   1.804 -0.5685 -0.4910  0.2014
14586TIP3    H165173   5.723   4.018   1.890 -3.4321  1.2311 -0.4209
14586TIP3    H265174   5.683   4.033   1.745  1.1741 -1.0659 -2.1205
14587TIP3   OH265175   3.119   1.496  13.387  0.3329 -0.2898 -0.0978
14587TIP3    H165176   3.098   1.564  13.322  0.1852 -0.1819  0.0620
14587TIP3    H265177   3.118   1.542  13.471 -1.1063 -0.7502  0.1686
14588TIP3   OH265178   6.749   5.747  12.450  0.3784 -0.3142 -1.0984
14588TIP3    H165179   6.695   5.777  12.377  1.4388  1.2331 -1.2883
14588TIP3    H265180   6.836   5.785  12.433  0.2331  1.6712  1.8997
14589TIP3   OH265181   2.182   0.570   0.859 -0.4881  0.7740 -0.0376
14589TIP3    H165182   2.202   0.597   0.948  2.3256 -0.9752 -0.0256
14589TIP3    H265183   2.184   0.474   0.862 -0.4113  0.6717 -1.9642
14590TIP3   OH265184   3.172   1.208  13.674 -0.1081  0.1504  0.2990
14590TIP3    H165185   3.264   1.234  13.664 -0.3390  1.2969  0.9415
14590TIP3    H265186   3.128   1.250  13.600 -0.4691  1.5837  1.2896
14591TIP3   OH265187   2.050   2.752  15.161 -0.1295  0.2310 -0.0875
14591TIP3    H165188   2.100   2.833  15.172  0.9027 -0.2731 -0.8709
14591TIP3    H265189   1.973   2.778  15.111 -0.5610  0.9760  0.9277
14592TIP3   OH265190   5.411   3.156  11.364  0.5422 -0.3046  0.0235
14592TIP3    H165191   5.477   3.145  11.295  0.7382 -0.6295  0.2570
14592TIP3    H265192   5.425   3.081  11.422 -1.9917 -2.0927 -1.4818
14593TIP3   OH265193   6.227   4.065   4.114 -0.1337  0.4276 -0.0874
14593TIP3    H165194   6.150   4.049   4.060  0.0109  0.7194 -0.3873
14593TIP3    H265195   6.207   4.026   4.199 -1.4425  2.2538  0.5152
14594TIP3   OH265196   4.363   1.495   1.406  0.3312 -0.2097 -1.0815
14594TIP3    H165197   4.431   1.428   1.418  0.0346 -0.2148  1.0805
14594TIP3    H265198   4.393   1.549   1.333  1.2066 -1.9247 -2.0356
14595TIP3   OH265199   1.579   6.185   5.896 -0.3250 -0.3590 -0.5893
14595TIP3    H165200   1.509   6.191   5.961  0.0871 -1.2652 -0.0371
14595TIP3    H265201   1.536   6.201   5.812 -0.7800  1.3879 -0.0747
14596TIP3   OH265202   2.946   6.026   4.628  0.6724  0.2357 -0.1436
14596TIP3    H165203   2.988   5.975   4.697 -0.4311 -1.3513 -0.5593
14596TIP3    H265204   2.861   6.051   4.664  0.6145  0.5121 -0.4631
14597TIP3   OH265205   3.955   4.171   0.902 -0.1271  0.3023  0.1209
14597TIP3    H165206   3.881   4.138   0.851 -0.9798  1.3756  0.6278
14597TIP3    H265207   3.964   4.108   0.974  0.3742 -0.6018 -0.7037
14598TIP3   OH265208   1.639   1.473  12.122  0.6772  0.2406 -0.2243
14598TIP3    H165209   1.618   1.539  12.188  0.8315  0.1074 -0.0401
14598TIP3    H265210   1.557   1.423  12.112  0.8481 -0.1860  0.3845
14599TIP3   OH265211   6.178   4.274  13.337 -0.0757  0.3356 -0.4375
14599TIP3    H165212   6.267   4.240  13.323  0.1041 -0.1744  1.6169
14599TIP3    H265213   6.125   4.233  13.269  0.6653 -1.9729  0.2710
14600TIP3   OH265214   5.000   1.823   3.829  0.3267  0.0790 -0.0506
14600TIP3    H165215   4.907   1.812   3.845 -0.1202  2.8610 -0.1121
14600TIP3    H265216   5.043   1.766   3.893 -1.3756 -1.8289 -0.5424
14601TIP3   OH265217   5.681   5.611   5.066  0.1934 -0.0312 -0.0397
14601TIP3    H165218   5.773   5.612   5.039 -0.1996 -1.6611 -1.6797
14601TIP3    H265219   5.667   5.522   5.100 -1.2829 -0.6282 -1.9974
14602TIP3   OH265220   3.035   2.127   2.633 -0.0064  0.0895 -0.3820
14602TIP3    H165221   3.037   2.032   2.629  1.1548  0.1123 -0.8128
14602TIP3    H265222   2.942   2.149   2.642 -0.4030 -1.0409 -1.4362
14603TIP3   OH265223   3.365   1.848   6.323 -0.5680 -0.1066 -0.2021
14603TIP3    H165224   3.345   1.896   6.242  1.8625 -0.9369 -1.4033
14603TIP3    H265225   3.376   1.917   6.389 -0.7153  0.7390 -1.0355
14604TIP3   OH265226   2.944   1.798  11.450  0.3256  0.0620  0.1625
14604TIP3    H165227   2.990   1.813  11.368 -2.8361  1.2745 -1.5703
14604TIP3    H265228   2.993   1.729  11.493  3.2253  0.7179 -1.8007
14605TIP3   OH265229   1.678   6.522  12.800 -0.0007  0.0981 -0.2364
14605TIP3    H165230   1.596   6.499  12.842  0.1586 -1.0541 -0.5367
14605TIP3    H265231   1.682   6.467  12.722  1.1899 -0.0848 -0.0714
14606TIP3   OH265232   0.154   6.540   2.051 -0.0646 -0.5373 -0.4657
14606TIP3    H165233   0.141   6.554   1.957  0.9297 -0.8958 -0.6722
14606TIP3    H265234   0.139   6.626   2.090  1.6819  0.1545 -1.2199
14607TIP3   OH265235   4.092   5.383  15.390 -0.5275 -0.1275 -1.0155
14607TIP3    H165236   4.030   5.348  15.455  0.4496 -1.1888 -0.6166
14607TIP3    H265237   4.058   5.353  15.306 -0.4811 -0.8229 -0.7897
14608TIP3   OH265238   0.347   1.155   0.126 -0.3541 -0.4658 -0.2655
14608TIP3    H165239   0.291   1.097   0.074 -1.5258  0.8050 -0.4772
14608TIP3    H265240   0.291   1.230   0.146  1.0191  0.4422  0.2850
14609TIP3   OH265241   3.204   1.548   1.602  0.4188 -0.2410 -0.2179
14609TIP3    H165242   3.245   1.624   1.645  0.3166 -0.6018  0.5367
14609TIP3    H265243   3.140   1.517   1.666 -0.6962  0.0064 -1.1694
14610TIP3   OH265244   1.741   3.364  16.293 -0.1253  0.1583  0.0864
14610TIP3    H165245   1.692   3.332  16.368 -0.3873 -0.1321 -0.2013
14610TIP3    H265246   1.727   3.458  16.294 -0.8325  0.0666 -0.0805
14611TIP3   OH265247   1.976   6.316   4.532 -0.4563 -0.9981  0.0178
14611TIP3    H165248   2.022   6.278   4.607  2.1278 -0.4705 -1.1954
14611TIP3    H265249   1.983   6.250   4.464  1.4803  0.3285 -1.1852
14612TIP3   OH265250   3.273   1.959   1.116  0.4431 -0.2871  0.1584
14612TIP3    H165251   3.289   1.991   1.205 -0.7145 -2.4478  1.2234
14612TIP3    H265252   3.182   1.929   1.118  0.7619 -1.4548 -1.3980
14613TIP3   OH265253   4.872   4.795   5.231 -0.1716  0.3325  0.0192
14613TIP3    H165254   4.838   4.879   5.262 -0.1855 -0.0979  1.2228
14613TIP3    H265255   4.797   4.752   5.191  0.2604  1.6731 -2.4422
14614TIP3   OH265256   1.500   0.139  17.170  0.4284  0.1532  0.4302
14614TIP3    H165257   1.441   0.064  17.160  1.8983 -1.1554  1.1493
14614TIP3    H265258   1.480   0.174  17.257  0.5379 -0.1277  0.5682
14615TIP3   OH265259   5.320   5.265   2.011  0.2246  0.0758 -0.3992
14615TIP3    H165260   5.251   5.273   1.945 -0.3866 -2.2847 -0.1530
14615TIP3    H265261   5.274   5.236   2.090  1.1167  1.5762  0.7448
14616TIP3   OH265262   0.383   3.956   4.562  0.2243 -0.0844 -0.3195
14616TIP3    H165263   0.399   3.903   4.484  0.1180  0.3955 -0.6672
14616TIP3    H265264   0.470   3.985   4.589  0.2611 -0.2488 -0.2618
14617TIP3   OH265265   1.816   4.137   4.903  0.1519 -0.4577  0.0341
14617TIP3    H165266   1.725   4.162   4.890 -0.1492 -1.8490 -0.5612
14617TIP3    H265267   1.863   4.221   4.904 -0.9748  0.2133 -0.7875
14618TIP3   OH265268   5.664   3.149  14.533  0.2383  0.0057  0.3986
14618TIP3    H165269   5.607   3.080  14.499  1.0383 -0.8765  0.7867
14618TIP3    H265270   5.734   3.101  14.578  2.1607  0.9775 -1.3909
14619TIP3   OH265271   1.779   2.369  13.458  0.1086  1.1449 -0.8269
14619TIP3    H165272   1.854   2.363  13.398  0.0699  1.1642 -0.8774
14619TIP3    H265273   1.803   2.439  13.518  0.9764 -0.0970  0.3533
14620TIP3   OH265274   0.373   5.684   1.967  0.0497 -0.8153 -0.2167
14620TIP3    H165275   0.412   5.636   2.040 -1.0991  0.1121  1.0573
14620TIP3    H265276   0.444   5.694   1.904  0.8679 -2.3110  0.4112
14621TIP3   OH265277   1.534   0.737   4.189  0.0206  0.3831  0.0918
14621TIP3    H165278   1.501   0.659   4.143 -2.6008  1.0671  0.6449
14621TIP3    H265279   1.585   0.702   4.262 -0.5971 -0.8303 -0.0243
14622TIP3   OH265280   2.705   1.825   1.110  0.0772 -0.0870  0.2873
14622TIP3    H165281   2.691   1.833   1.016 -0.4004  1.3935  0.4604
14622TIP3    H265282   2.622   1.792   1.145  0.5798 -1.6402  0.1031
14623TIP3   OH265283   0.782   4.851  16.583 -0.3053  0.0102 -0.5019
14623TIP3    H165284   0.870   4.860  16.618 -0.6515  0.0079  0.4105
14623TIP3    H265285   0.777   4.761  16.550 -0.0118 -0.0305 -0.4311
14624TIP3   OH265286   5.554   6.680   1.162  0.0424  0.4104  0.0850
14624TIP3    H165287   5.617   6.751   1.169  1.0535 -0.5467  1.1006
14624TIP3    H265288   5.482   6.706   1.220  0.5226  0.5166  0.6453
14625TIP3   OH265289   5.944   6.728   3.175  0.0907  0.5067 -0.4719
14625TIP3    H165290   5.991   6.720   3.092  2.1933 -0.8771  0.7434
14625TIP3    H265291   6.006   6.696   3.240 -1.3840  1.8111  1.6868
14626TIP3   OH265292   6.009   3.792  17.031 -0.3234  0.3389  0.0234
14626TIP3    H165293   5.968   3.706  17.032 -0.5819  0.4531  1.2104
14626TIP3    H265294   6.089   3.781  16.979 -1.3051 -0.1341 -1.4352
14627TIP3   OH265295   5.930   1.382  15.851  0.5351 -0.8597  0.0821
14627TIP3    H165296   5.988   1.392  15.927  0.5073  0.9829 -0.0852
14627TIP3    H265297   5.899   1.292  15.856  2.0231 -1.3505  1.1824
14628TIP3   OH265298   0.929   5.374   3.965 -0.2980 -0.0269 -0.4839
14628TIP3    H165299   0.845   5.418   3.956 -0.2802 -0.1821 -1.4250
14628TIP3    H265300   0.968   5.413   4.044 -0.2882  1.6529 -1.2754
14629TIP3   OH265301   5.154   0.190   6.445 -0.2716  0.4185  0.1966
14629TIP3    H165302   5.083   0.180   6.382  0.1864 -0.1098 -0.2485
14629TIP3    H265303   5.193   0.275   6.425  0.4756 -0.1564 -0.8813
14630TIP3   OH265304   5.536   5.667  15.377  0.1754  0.0020  0.1320
14630TIP3    H165305   5.497   5.655  15.291 -0.5315  0.3766  0.3946
14630TIP3    H265306   5.464   5.652  15.438 -0.0004  2.2934  0.5887
14631TIP3   OH265307   6.374   3.567  12.164 -0.3830 -0.6152  0.3379
14631TIP3    H165308   6.403   3.515  12.089  0.8305 -1.3133  1.2709
14631TIP3    H265309   6.452   3.580  12.216 -1.2261 -0.1929  1.5309
14632TIP3   OH265310   2.748   5.616   3.823 -0.2257  0.0696 -0.3310
14632TIP3    H165311   2.835   5.653   3.804  0.3519 -0.8514  0.4083
14632TIP3    H265312   2.766   5.525   3.847 -1.1556  0.4103  1.8971
14633TIP3   OH265313   1.451   0.571  13.970 -0.4712 -0.0194  0.1256
14633TIP3    H165314   1.387   0.640  13.952  0.5418  1.3212  1.4283
14633TIP3    H265315   1.516   0.579  13.901 -0.6131  0.0205 -0.0022
14634TIP3   OH265316   4.669   3.993   3.811 -0.0141  0.2274  0.1023
14634TIP3    H165317   4.678   4.052   3.886  0.8911 -0.4451  0.5376
14634TIP3    H265318   4.741   3.932   3.820 -0.7445 -0.7539 -0.5280
14635TIP3   OH265319   4.301   6.538  15.374 -0.1751 -0.2751 -0.2160
14635TIP3    H165320   4.254   6.621  15.369  0.5877  0.2407  0.8311
14635TIP3    H265321   4.232   6.472  15.369 -0.9664  0.4558  0.6807
14636TIP3   OH265322   3.039   3.223   3.852  0.0869 -0.0834 -0.0538
14636TIP3    H165323   3.056   3.252   3.762  0.8390  1.8054  0.6461
14636TIP3    H265324   2.943   3.221   3.859  0.0256 -0.1052 -0.8517
14637TIP3   OH265325   0.865   2.820  13.727  0.6137 -0.2229  0.2118
14637TIP3    H165326   0.865   2.770  13.809  1.0246 -0.1384  0.2666
14637TIP3    H265327   0.957   2.830  13.705  0.5161  0.0378 -0.0913
14638TIP3   OH265328   4.807   3.074   0.901 -0.2273 -0.1023 -0.2739
14638TIP3    H165329   4.864   3.015   0.950  0.0261 -0.2412 -0.7207
14638TIP3    H265330   4.758   3.016   0.842 -1.3779 -0.0609  0.6246
14639TIP3   OH265331   1.429   5.010  14.990 -0.4537  0.0585 -0.2444
14639TIP3    H165332   1.499   5.068  15.021  1.9412 -1.9603 -1.4951
14639TIP3    H265333   1.348   5.048  15.025  1.4387  1.2089  3.3457
14640TIP3   OH265334   5.693   0.834   0.459 -0.0521 -0.2791 -0.3423
14640TIP3    H165335   5.682   0.739   0.467  0.1393 -0.5906 -2.8432
14640TIP3    H265336   5.702   0.849   0.365 -0.7669  2.3213 -0.0717
14641TIP3   OH265337   3.121   2.015  14.516 -0.5549  0.4783  0.4475
14641TIP3    H165338   3.049   2.077  14.524 -0.1807  0.7599  2.1470
14641TIP3    H265339   3.193   2.065  14.478 -0.3115  1.0785  1.6504
14642TIP3   OH265340   1.243   2.950   6.491 -0.1062 -0.1219  0.4844
14642TIP3    H165341   1.164   2.963   6.439 -0.2624 -1.7142  0.2660
14642TIP3    H265342   1.216   2.970   6.581 -0.7224 -0.4658  0.3828
14643TIP3   OH265343   3.048   6.164   4.269 -0.3092  0.7374  0.5106
14643TIP3    H165344   3.029   6.196   4.181  0.2325 -0.0464  0.0891
14643TIP3    H265345   3.012   6.230   4.328 -1.1107  1.0352 -0.2921
14644TIP3   OH265346   0.677   2.547   5.252 -0.0388 -0.1184  0.3721
14644TIP3    H165347   0.724   2.518   5.174  0.2896  0.6288  0.2833
14644TIP3    H265348   0.738   2.530   5.324  0.3743  0.7948  0.2634
14645TIP3   OH265349   3.339   4.142  15.676  0.3400 -0.2441 -0.5094
14645TIP3    H165350   3.293   4.073  15.628 -0.4427  1.8962 -3.0741
14645TIP3    H265351   3.426   4.144  15.635  0.8841 -0.6815  0.6008
14646TIP3   OH265352   6.487   3.159  13.337  0.2286  0.0556 -0.1746
14646TIP3    H165353   6.568   3.192  13.378  0.7690  0.7135 -1.7005
14646TIP3    H265354   6.517   3.094  13.274 -0.3747  0.6850 -1.1302
14647TIP3   OH265355   0.297   6.191  15.945 -0.4972  0.1321  0.0974
14647TIP3    H165356   0.356   6.118  15.926 -0.5142  0.5916 -2.0270
14647TIP3    H265357   0.279   6.184  16.039  3.4372  0.3861  1.0166
14648TIP3   OH265358   6.440   5.517   0.569  0.0315 -0.1454  0.0685
14648TIP3    H165359   6.356   5.525   0.615 -0.2878 -1.7746 -0.1628
14648TIP3    H265360   6.476   5.434   0.598  1.4100  0.3455 -0.1414
14649TIP3   OH265361   5.508   1.217   2.802 -0.5763 -0.2240 -0.0729
14649TIP3    H165362   5.577   1.260   2.751 -1.0776  0.1934 -0.4083
14649TIP3    H265363   5.445   1.286   2.822 -1.1207 -0.6831 -0.1471
14650TIP3   OH265364   6.076   2.271  11.591 -0.2655 -0.1611 -0.7393
14650TIP3    H165365   5.981   2.269  11.590 -0.2621 -0.1411 -1.0431
14650TIP3    H265366   6.101   2.198  11.648 -0.4885  0.6202  0.4025
14651TIP3   OH265367   0.899   6.238  16.819  0.5880 -0.4551 -0.3604
14651TIP3    H165368   0.903   6.148  16.854  0.1465 -0.5842 -0.6391
14651TIP3    H265369   0.806   6.252  16.799  0.9687 -0.7831 -2.5420
14652TIP3   OH265370   4.460   6.684  16.163 -0.2700 -0.0325 -0.1586
14652TIP3    H165371   4.422   6.761  16.122  0.9083 -0.5077 -2.2791
14652TIP3    H265372   4.550   6.681  16.130  1.1363  0.0106  3.1849
14653TIP3   OH265373   1.132   2.562  13.562 -0.3674 -0.3858  0.3185
14653TIP3    H165374   1.228   2.564  13.560 -0.3193  1.5715  1.4934
14653TIP3    H265375   1.110   2.579  13.654 -1.8371 -0.3785 -0.0155
14654TIP3   OH265376   5.693   4.425   2.567 -0.5141 -0.1738 -0.4846
14654TIP3    H165377   5.717   4.392   2.653  0.6048  0.5390 -0.5020
14654TIP3    H265378   5.696   4.348   2.510 -1.2890 -0.6505  0.1047
14655TIP3   OH265379   0.069   0.403   2.568  0.2102  0.6022  0.1304
14655TIP3    H165380   0.101   0.313   2.571 -0.2966  0.4092 -0.0168
14655TIP3    H265381  -0.001   0.406   2.632 -0.6079  0.5426 -0.7313
14656TIP3   OH265382   4.879   5.410   3.654  0.1883 -0.3107 -0.5179
14656TIP3    H165383   4.853   5.489   3.702 -2.6740  0.3621 -2.8822
14656TIP3    H265384   4.942   5.441   3.589 -0.4123 -0.0759 -0.9964
14657TIP3   OH265385   2.189   4.210  11.592  0.1824 -0.7639  0.0502
14657TIP3    H165386   2.200   4.158  11.512 -1.5005 -0.9698 -0.0776
14657TIP3    H265387   2.106   4.181  11.628 -0.1183  0.8660  0.7380
14658TIP3   OH265388   6.102   4.013  14.722  0.3410  0.1818 -0.1513
14658TIP3    H165389   6.104   3.919  14.740  0.9949 -0.0872 -1.5291
14658TIP3    H265390   6.151   4.024  14.641  1.0725  1.8336  0.4501
14659TIP3   OH265391   5.708   0.261   1.738  0.8805 -0.2379  0.4698
14659TIP3    H165392   5.629   0.214   1.712  0.8405  0.9389 -1.7554
14659TIP3    H265393   5.743   0.210   1.811 -1.8476 -0.8414  1.4719
14660TIP3   OH265394   5.736   3.860  12.620 -0.6464  0.0366  0.2842
14660TIP3    H165395   5.701   3.798  12.556 -1.1155  0.2259  0.3513
14660TIP3    H265396   5.662   3.917  12.639 -0.5014 -0.0082  0.9800
14661TIP3   OH265397   3.839   2.699   1.713 -0.1963 -0.3517 -0.4674
14661TIP3    H165398   3.807   2.627   1.659  0.8461 -0.7113 -0.6470
14661TIP3    H265399   3.807   2.778   1.671  0.3260 -0.6407 -1.4341
14662TIP3   OH265400   1.773   5.734   5.115  0.3171  0.4782  0.2935
14662TIP3    H165401   1.774   5.816   5.165  0.3908 -1.0322  2.9964
14662TIP3    H265402   1.860   5.697   5.127  0.4812  0.2345 -1.4078
14663TIP3   OH265403   0.074   3.357   3.380 -0.0206  0.6024  0.1578
14663TIP3    H165404   0.115   3.443   3.390 -1.4847  1.3266  0.2060
14663TIP3    H265405   0.139   3.304   3.334  1.1534  1.5468  0.7022
14664TIP3   OH265406   5.081   4.791  10.927 -0.2517  0.8432 -0.2608
14664TIP3    H165407   5.112   4.844  11.001 -0.9241  1.0607 -0.1252
14664TIP3    H265408   5.002   4.747  10.960  1.4091 -1.9191  0.3093
14665TIP3   OH265409   4.708   2.232  14.412 -0.1116 -0.2371  0.1897
14665TIP3    H165410   4.662   2.221  14.329  0.5505 -0.5075 -0.1485
14665TIP3    H265411   4.674   2.314  14.447  0.0961  0.2326 -0.6771
14666TIP3   OH265412   4.630   2.980  12.347  0.1922  0.5692 -0.5848
14666TIP3    H165413   4.711   2.928  12.351  0.0860  0.3259 -1.4442
14666TIP3    H265414   4.652   3.060  12.395  0.5354 -0.0169  0.2762
14667TIP3   OH265415   6.383   4.513  14.076  0.1365  0.1077  0.5120
14667TIP3    H165416   6.310   4.543  14.130  0.6863  2.3096  0.1014
14667TIP3    H265417   6.342   4.483  13.995 -0.3522  0.8589  0.4735
14668TIP3   OH265418   3.572   6.133  12.262  0.4249  0.0611  0.2154
14668TIP3    H165419   3.589   6.118  12.355 -2.0104  0.2361  0.7503
14668TIP3    H265420   3.539   6.049  12.230  1.9948 -0.2448 -0.7483
14669TIP3   OH265421   5.879   0.899  10.224  0.1942  0.2958  0.2093
14669TIP3    H165422   5.939   0.829  10.195  1.2175  0.9237  0.7538
14669TIP3    H265423   5.792   0.867  10.200  0.6988 -0.8662 -0.1623
14670TIP3   OH265424   0.043   1.127  14.270 -0.4039  0.2812  0.4148
14670TIP3    H165425   0.134   1.116  14.243 -0.5775 -1.1093  0.3206
14670TIP3    H265426   0.011   1.201  14.218  1.0016  1.6112  1.3670
14671TIP3   OH265427   4.964   0.808  12.226  0.0409  0.6623  0.8089
14671TIP3    H165428   4.978   0.901  12.246 -0.4834  1.7195 -3.0037
14671TIP3    H265429   5.032   0.787  12.162 -0.8570 -1.1213  0.3854
14672TIP3   OH265430   5.435   1.680   3.624  0.0663 -0.1214 -0.0702
14672TIP3    H165431   5.421   1.773   3.638 -0.7400  0.0345 -1.6853
14672TIP3    H265432   5.409   1.639   3.707 -0.0146  1.0403  0.4950
14673TIP3   OH265433   0.464   3.685   0.055  0.8007  0.0332 -0.2909
14673TIP3    H165434   0.508   3.602   0.073  0.7749  0.6100  2.8614
14673TIP3    H265435   0.523   3.731  -0.005  1.7967 -1.4229 -0.4719
14674TIP3   OH265436   0.293   3.548   5.334 -0.0614  0.1769  0.3208
14674TIP3    H165437   0.197   3.550   5.333 -0.0975  3.5434 -0.6884
14674TIP3    H265438   0.319   3.612   5.268  2.9772 -1.9593 -0.7846
14675TIP3   OH265439   6.180   1.662  17.159 -0.1604 -0.7229  0.1590
14675TIP3    H165440   6.092   1.624  17.149  0.5020 -2.3757  0.3394
14675TIP3    H265441   6.239   1.594  17.128  1.0001  1.1884 -2.0780
14676TIP3   OH265442   1.808   0.891  16.965  0.1517  0.5428  0.4153
14676TIP3    H165443   1.859   0.897  17.046  1.1629  2.1006 -0.2994
14676TIP3    H265444   1.870   0.861  16.899 -0.2496  0.8576 -0.1184
14677TIP3   OH265445   3.768   5.998  13.199  0.2980  0.0416 -0.2147
14677TIP3    H165446   3.719   5.991  13.281  0.8065 -2.2203 -0.0428
14677TIP3    H265447   3.746   5.918  13.151  2.6575 -0.3501 -0.7581
14678TIP3   OH265448   5.189   0.645   4.139  0.3605 -0.5685 -0.1994
14678TIP3    H165449   5.120   0.581   4.121  0.7043 -0.5419 -1.7384
14678TIP3    H265450   5.255   0.630   4.071 -0.2005  2.2833 -1.5445
14679TIP3   OH265451   1.748   5.781   1.922 -0.1024 -0.0984 -0.4028
14679TIP3    H165452   1.721   5.708   1.978 -0.7088 -1.1790 -2.0460
14679TIP3    H265453   1.668   5.810   1.880 -0.3727  3.2446  2.0201
14680TIP3   OH265454   2.051   0.624   0.217  0.5155  0.5421 -0.3327
14680TIP3    H165455   2.009   0.630   0.303  0.9607 -0.2659 -0.0401
14680TIP3    H265456   2.091   0.710   0.203 -0.2478  0.9437 -0.1051
14681TIP3   OH265457   6.219   6.055  12.737 -0.0828  0.3028  0.1151
14681TIP3    H165458   6.312   6.071  12.717 -0.4299  0.1031 -1.8106
14681TIP3    H265459   6.176   6.138  12.718 -0.4667  0.0424 -0.1656
14682TIP3   OH265460   1.355   3.115   5.448  0.3288 -0.2624 -0.1536
14682TIP3    H165461   1.283   3.057   5.427  0.3510 -1.0380  1.7179
14682TIP3    H265462   1.434   3.065   5.425  0.3559 -1.1316  1.6546
14683TIP3   OH265463   4.699   4.313  16.463  0.5531 -0.0514  0.2516
14683TIP3    H165464   4.605   4.324  16.476  0.3020 -0.8184 -0.8228
14683TIP3    H265465   4.713   4.331  16.370  1.2901 -1.0001  0.1639
14684TIP3   OH265466   2.758   5.395   4.913  0.7046  0.2115  0.1673
14684TIP3    H165467   2.820   5.461   4.884  1.9672 -0.6591  0.8068
14684TIP3    H265468   2.804   5.312   4.903 -0.5878 -0.5186  0.0499
14685TIP3   OH265469   1.797   4.199   2.776  0.7233  0.5889 -0.2208
14685TIP3    H165470   1.833   4.113   2.796 -0.2318  0.2028 -0.0963
14685TIP3    H265471   1.854   4.234   2.708  0.0729 -0.9237 -1.6167
14686TIP3   OH265472   5.703   0.743  13.335  0.1572 -0.1352 -0.2011
14686TIP3    H165473   5.698   0.839  13.335 -0.2749 -0.1483 -1.0322
14686TIP3    H265474   5.693   0.719  13.243  1.9689 -0.9059 -0.2228
14687TIP3   OH265475   3.043   1.623   2.661 -0.4416 -0.3118  0.3161
14687TIP3    H165476   2.968   1.592   2.611  0.0264 -1.3010  0.2029
14687TIP3    H265477   3.023   1.602   2.752  0.2320 -1.7374  0.1533
14688TIP3   OH265478   6.641   0.998   1.323  0.0557 -0.0050  0.5222
14688TIP3    H165479   6.685   1.054   1.259  0.0647 -1.5660 -0.9161
14688TIP3    H265480   6.707   0.983   1.391 -0.0606  1.9446  1.1141
14689TIP3   OH265481   5.733   2.736   0.560 -0.1747 -0.3465  0.1977
14689TIP3    H165482   5.776   2.815   0.591 -1.2005 -0.1833  1.2850
14689TIP3    H265483   5.652   2.730   0.611 -1.1652 -0.9575 -1.3324
14690TIP3   OH265484   6.677   5.245  12.145 -0.0259  0.2122  0.1973
14690TIP3    H165485   6.602   5.186  12.143  0.6306 -0.6228 -1.0597
14690TIP3    H265486   6.689   5.266  12.238 -1.4822 -0.0425  0.4574
14691TIP3   OH265487   1.576   3.272   4.864 -0.1390  0.0609  0.0073
14691TIP3    H165488   1.640   3.225   4.810  0.3482  0.7084  0.0120
14691TIP3    H265489   1.619   3.283   4.949 -0.1722  0.6730 -0.0513
14692TIP3   OH265490   2.759   0.522   5.616 -0.3764  0.0503  0.1635
14692TIP3    H165491   2.771   0.558   5.528 -3.6796  0.3600 -0.2688
14692TIP3    H265492   2.706   0.443   5.602  2.5376 -2.3747  1.5666
14693TIP3   OH265493   5.093   3.581  12.919 -0.4724 -0.5094  0.7751
14693TIP3    H165494   5.164   3.518  12.907 -0.8115 -0.5278 -1.5174
14693TIP3    H265495   5.028   3.558  12.853 -0.6843  2.1038 -0.0557
14694TIP3   OH265496   3.516   6.095   2.992  0.4816 -0.5030  0.4392
14694TIP3    H165497   3.569   6.132   3.064  0.4431 -1.8154  1.1683
14694TIP3    H265498   3.537   6.002   2.992 -0.3039 -0.6994 -0.6031
14695TIP3   OH265499   1.164   3.535   3.365 -0.0842  0.7528  0.4678
14695TIP3    H165500   1.219   3.464   3.329 -0.3863 -0.8966  2.9955
14695TIP3    H265501   1.159   3.599   3.294  2.6061 -0.4020 -0.9505
14696TIP3   OH265502   1.127   3.257   6.061  0.2951  0.4954  0.2604
14696TIP3    H165503   1.107   3.190   6.126 -0.7225  0.5637  0.0410
14696TIP3    H265504   1.078   3.230   5.983  0.0030  1.3953  0.1195
14697TIP3   OH265505   4.767   2.034   3.752 -0.4794  0.5937 -0.4731
14697TIP3    H165506   4.743   2.091   3.825  0.7786 -0.8687  1.1674
14697TIP3    H265507   4.834   2.083   3.705  0.6743  0.4802  0.9855
14698TIP3   OH265508   4.046   0.410  11.875  0.1891 -0.3884 -0.6464
14698TIP3    H165509   4.001   0.492  11.853  1.3129 -0.0602 -1.8476
14698TIP3    H265510   4.028   0.352  11.801 -1.1426 -1.5009  0.4939
14699TIP3   OH265511   0.961   5.336   5.597  0.2443 -0.3475  0.5126
14699TIP3    H165512   0.932   5.256   5.554  3.1004 -1.7975  1.0347
14699TIP3    H265513   0.974   5.311   5.688  0.0177  1.0770  0.9650
14700TIP3   OH265514   3.007   4.570  14.870  0.1936  0.3564 -0.1827
14700TIP3    H165515   3.088   4.596  14.913 -0.5325  1.5186  0.5494
14700TIP3    H265516   3.030   4.560  14.778  1.6414 -1.5240  0.3058
14701TIP3   OH265517   4.133   0.443  17.191 -0.1381  0.0221 -0.2266
14701TIP3    H165518   4.179   0.508  17.137  1.4686  0.4231  1.5555
14701TIP3    H265519   4.114   0.372  17.130  0.3162  1.0649 -1.6552
14702TIP3   OH265520   4.706   3.560  15.016 -0.0568  0.0730 -0.8047
14702TIP3    H165521   4.728   3.650  15.038  0.6846 -0.3115  0.1074
14702TIP3    H265522   4.657   3.566  14.934  0.1095  1.2863 -0.8270
14703TIP3   OH265523   2.930   5.212  14.299 -0.4820 -0.1593  0.0760
14703TIP3    H165524   2.877   5.291  14.290  0.4253  0.4135 -0.3120
14703TIP3    H265525   2.960   5.214  14.390  0.1238  0.3183 -0.1328
14704TIP3   OH265526   2.633   5.640   6.594 -0.2268  0.1966  0.3050
14704TIP3    H165527   2.651   5.577   6.664 -1.1143  1.6088  1.8870
14704TIP3    H265528   2.694   5.712   6.611 -0.4320  0.5379 -0.3909
14705TIP3   OH265529   5.400   1.562   1.951 -0.0442  0.1252 -0.1577
14705TIP3    H165530   5.400   1.632   2.016  1.2895 -0.2340  0.2663
14705TIP3    H265531   5.342   1.495   1.988 -0.6428  0.6305 -0.1632
14706TIP3   OH265532   5.765   1.413  16.585  0.6420  0.3344  0.1437
14706TIP3    H165533   5.763   1.320  16.562  0.9168  1.0175 -3.0899
14706TIP3    H265534   5.677   1.445  16.564  1.1422  1.1895 -0.6934
14707TIP3   OH265535   0.388   6.711  12.049  0.0361  0.0508  0.2658
14707TIP3    H165536   0.367   6.758  12.130 -3.7591  0.5235 -0.7607
14707TIP3    H265537   0.407   6.780  11.986  0.5780 -0.1851  0.1669
14708TIP3   OH265538   2.128   0.047  12.395 -0.4388  0.2050  0.6434
14708TIP3    H165539   2.048   0.099  12.403 -0.2676  0.6451 -0.4384
14708TIP3    H265540   2.187   0.082  12.462 -0.0114  2.0092 -0.6114
14709TIP3   OH265541   0.437   2.480   5.395  0.0715  0.1667  0.3921
14709TIP3    H165542   0.443   2.386   5.379 -2.2026 -0.0994  0.7074
14709TIP3    H265543   0.510   2.517   5.347  1.0046 -1.7530  0.2236
14710TIP3   OH265544   5.165   5.533   0.792  0.4475 -0.3966 -0.2861
14710TIP3    H165545   5.072   5.553   0.784  0.1543 -1.6141 -0.2452
14710TIP3    H265546   5.210   5.616   0.776 -0.6815  0.4771  0.8614
14711TIP3   OH265547   4.587   3.222  13.205  0.4624 -0.1378 -0.4183
14711TIP3    H165548   4.639   3.243  13.283  1.4114 -0.9744 -0.8087
14711TIP3    H265549   4.510   3.279  13.212 -0.7659 -1.9198  2.4444
14712TIP3   OH265550   2.642   1.932   6.109  0.6131 -0.4238 -0.1797
14712TIP3    H165551   2.562   1.907   6.156  0.7058 -0.4240 -0.0223
14712TIP3    H265552   2.658   2.022   6.136  0.4491 -0.2948 -0.5121
14713TIP3   OH265553   6.120   0.476  16.699 -0.1141 -0.6247 -0.6094
14713TIP3    H165554   6.163   0.424  16.767  0.9559  0.1689 -0.6498
14713TIP3    H265555   6.174   0.555  16.691 -4.1067  2.9743  2.8354
14714TIP3   OH265556   1.815   2.115   5.795 -0.7067  0.3113 -0.2868
14714TIP3    H165557   1.742   2.064   5.830  0.2424 -1.5518 -0.8802
14714TIP3    H265558   1.893   2.073   5.830  0.1523  0.5882 -1.7811
14715TIP3   OH265559   6.586   4.540   3.408  0.0708  0.4288  0.3479
14715TIP3    H165560   6.492   4.524   3.404  0.2686 -0.6141 -1.1793
14715TIP3    H265561   6.617   4.525   3.318  1.9053 -0.7377  1.1053
14716TIP3   OH265562   2.028   1.810  14.485  0.9390 -0.3751  0.5624
14716TIP3    H165563   2.002   1.838  14.397  0.6105  0.4387  0.9087
14716TIP3    H265564   2.039   1.715  14.478 -0.5075 -0.5249 -0.0099
14717TIP3   OH265565   6.176   3.980  11.302 -0.1420 -0.0784  0.4327
14717TIP3    H165566   6.120   4.018  11.234 -0.0159  0.3561  0.5726
14717TIP3    H265567   6.264   3.986  11.267 -0.1990 -1.0242  0.0902
14718TIP3   OH265568   2.745   4.238   1.644 -0.3111 -0.5969  0.2615
14718TIP3    H165569   2.822   4.257   1.591 -1.4970  0.1725 -1.2726
14718TIP3    H265570   2.769   4.265   1.733  0.8664  0.4960 -0.3684
14719TIP3   OH265571   6.482   1.811   4.484 -0.0085  0.1109  0.2422
14719TIP3    H165572   6.539   1.767   4.547 -1.1059 -2.1852 -0.2538
14719TIP3    H265573   6.489   1.904   4.505  2.2856 -0.2851  1.5036
14720TIP3   OH265574   4.423   1.500   5.768 -0.4238 -0.6255  0.2205
14720TIP3    H165575   4.488   1.430   5.763 -0.9560 -1.0566 -1.2209
14720TIP3    H265576   4.473   1.576   5.798  0.6855 -1.0348 -0.4893
14721TIP3   OH265577   3.768   6.103   2.771 -0.3745  0.3622 -0.8181
14721TIP3    H165578   3.804   6.191   2.786  2.7414 -0.9215  0.1038
14721TIP3    H265579   3.845   6.049   2.755 -2.0397 -2.5286  0.2945
14722TIP3   OH265580   0.032   5.814   1.182 -0.0372  0.3204 -0.0635
14722TIP3    H165581   0.094   5.867   1.132  1.9194 -3.0116 -1.5018
14722TIP3    H265582   0.078   5.796   1.265 -0.5816  0.6241  0.3117
14723TIP3   OH265583   0.493   0.932   2.524 -0.4459  0.9511  0.1883
14723TIP3    H165584   0.532   0.845   2.527 -0.2464  1.0574  1.0755
14723TIP3    H265585   0.474   0.953   2.616 -1.2602  1.4972 -0.0922
14724TIP3   OH265586   5.598   4.175  16.564  0.3754  0.2938 -0.3237
14724TIP3    H165587   5.619   4.241  16.499  0.0953  0.1759 -0.5316
14724TIP3    H265588   5.504   4.182  16.578 -0.0921 -1.5671 -2.0263
14725TIP3   OH265589   3.823   6.437   2.473 -0.1211  0.2868  0.1343
14725TIP3    H165590   3.824   6.384   2.393  0.3021 -0.5497  0.6687
14725TIP3    H265591   3.747   6.494   2.463 -0.0334  0.2500 -0.8905
14726TIP3   OH265592   0.834   1.010  12.018  0.6150  0.1898  0.0190
14726TIP3    H165593   0.782   1.009  12.098  0.5511  0.7760 -0.0106
14726TIP3    H265594   0.810   1.092  11.974 -0.1019 -0.5897 -1.1035
14727TIP3   OH265595   5.881   4.458  12.648  0.0736  0.2647  0.1029
14727TIP3    H165596   5.948   4.446  12.581 -0.1903  0.1029 -0.1326
14727TIP3    H265597   5.892   4.549  12.677  0.0283  0.4098 -0.3309
14728TIP3   OH265598   0.126   2.956   0.528 -0.0675  0.0253 -0.6995
14728TIP3    H165599   0.149   3.016   0.599  1.5738 -0.2523 -0.9371
14728TIP3    H265600   0.065   2.894   0.568 -0.3841  0.7849  0.0349
14729TIP3   OH265601   6.743   3.240  13.414  0.1838  0.3380 -0.2780
14729TIP3    H165602   6.717   3.322  13.372 -0.9412 -0.8605 -2.0603
14729TIP3    H265603   6.810   3.265  13.477  1.7214  2.3244 -2.5499
14730TIP3   OH265604   0.413   0.352   1.867  0.0785 -0.3017 -0.0237
14730TIP3    H165605   0.325   0.334   1.834  0.0355 -0.0293 -0.0602
14730TIP3    H265606   0.401   0.422   1.931  0.3325  0.1134 -0.4160
14731TIP3   OH265607   1.362   6.173  15.179  0.1048 -0.0037  0.2004
14731TIP3    H165608   1.448   6.154  15.141  0.2174  0.6039  0.1483
14731TIP3    H265609   1.375   6.250  15.233 -0.3349 -0.1142  0.4746
14732TIP3   OH265610   1.675   3.471   6.137 -0.0134  0.8008 -0.0558
14732TIP3    H165611   1.599   3.446   6.084 -0.9376 -0.6027  1.7621
14732TIP3    H265612   1.713   3.387   6.165  1.0290  1.4867  0.6614
14733TIP3   OH265613   3.733   4.717  11.151  0.7171  0.1602 -0.0065
14733TIP3    H165614   3.777   4.779  11.093  2.3071 -1.8029 -1.0776
14733TIP3    H265615   3.699   4.649  11.092  1.4324 -1.3517  1.2401
14734TIP3   OH265616   2.191   5.286   0.081  0.1136  0.5276  0.2707
14734TIP3    H165617   2.186   5.382   0.080 -0.0414  0.5178 -0.7595
14734TIP3    H265618   2.146   5.259   0.001 -0.0206 -0.4223  0.6549
14735TIP3   OH265619   4.721   4.300   0.731  0.7533  0.6400 -0.1775
14735TIP3    H165620   4.679   4.239   0.791  0.3997  1.1003  0.0513
14735TIP3    H265621   4.814   4.282   0.740  0.6120 -0.4306 -0.7291
14736TIP3   OH265622   2.457   5.603  12.032  0.3407  0.1218  0.3488
14736TIP3    H165623   2.421   5.691  12.042 -1.1381 -0.6111  1.8425
14736TIP3    H265624   2.402   5.563  11.964 -2.6330 -1.3463  3.3393
14737TIP3   OH265625   2.918   1.043  15.767  0.5540 -0.6861  0.5758
14737TIP3    H165626   2.846   1.039  15.830  0.5309 -0.1248  0.5855
14737TIP3    H265627   2.982   1.103  15.806 -0.8273  2.2141 -1.2849
14738TIP3   OH265628   6.044   1.056  17.073 -0.2134  0.6045 -0.0818
14738TIP3    H165629   6.068   1.147  17.089 -0.3300  0.9699 -1.8510
14738TIP3    H265630   6.095   1.031  16.996  0.1779 -0.9915  0.6469
14739TIP3   OH265631   3.160   0.826   6.085  0.2897  0.0485  0.2301
14739TIP3    H165632   3.221   0.823   6.011 -0.8654  0.2060 -0.7747
14739TIP3    H265633   3.138   0.919   6.094 -1.3167 -0.1925 -0.7668
14740TIP3   OH265634   1.775   5.570  14.560  0.3951  0.3576  0.2571
14740TIP3    H165635   1.751   5.625  14.635 -1.1420 -1.7613  1.3915
14740TIP3    H265636   1.812   5.491  14.599 -0.5372 -0.8394 -1.2032
14741TIP3   OH265637   6.328   0.650  11.564  0.0493  0.0119  0.4171
14741TIP3    H165638   6.235   0.631  11.581 -0.4531  1.3392 -0.5939
14741TIP3    H265639   6.333   0.657  11.469  1.0740  0.4635  0.4970
14742TIP3   OH265640   0.605   6.555   5.171  0.0924  0.0625 -0.9613
14742TIP3    H165641   0.696   6.537   5.150  0.0699  0.8455 -1.7365
14742TIP3    H265642   0.563   6.572   5.087 -1.3925 -2.9177 -0.9754
14743TIP3   OH265643   1.171   2.102   3.438  0.1680 -0.4325  0.2387
14743TIP3    H165644   1.135   2.129   3.354  2.1999 -0.6967 -0.7704
14743TIP3    H265645   1.133   2.015   3.453  1.0044 -1.0854 -1.2306
14744TIP3   OH265646   3.131   6.719  11.935  0.0019  0.2754 -0.3695
14744TIP3    H165647   3.070   6.792  11.936 -0.4756 -0.1237  0.4709
14744TIP3    H265648   3.217   6.759  11.951 -0.4363  0.5169  1.6744
14745TIP3   OH265649   0.875   5.317   2.897  0.1557  0.4641  0.6880
14745TIP3    H165650   0.964   5.353   2.899 -0.5682  2.2956  1.0173
14745TIP3    H265651   0.843   5.325   2.987  0.0669 -1.3695  0.8678
14746TIP3   OH265652   5.528   3.193  12.930  0.1761 -0.3334  0.1516
14746TIP3    H165653   5.496   3.135  12.861  0.8475  0.1740 -0.5989
14746TIP3    H265654   5.539   3.278  12.888  1.2402 -0.1752  0.7050
14747TIP3   OH265655   2.198   4.380  17.311 -0.3620  0.1504 -0.0478
14747TIP3    H165656   2.123   4.343  17.265 -0.2735 -0.7049  0.4661
14747TIP3    H265657   2.179   4.363  17.404  1.2776 -1.7403  0.0174
14748TIP3   OH265658   3.607   6.476   1.691 -0.0832  0.2514  0.3537
14748TIP3    H165659   3.559   6.529   1.755  0.5803 -0.2677  1.3006
14748TIP3    H265660   3.538   6.439   1.635 -0.7440  0.0703  1.2596
14749TIP3   OH265661   4.619   1.571  15.040  0.8554 -0.5563  0.2773
14749TIP3    H165662   4.575   1.572  14.955  0.3767 -1.2737  0.5118
14749TIP3    H265663   4.551   1.594  15.103  0.2516 -3.5757  0.8685
14750TIP3   OH265664   5.969   6.709   4.113  0.0386  0.5598 -0.0738
14750TIP3    H165665   5.882   6.703   4.074 -0.7041  0.4648  1.5141
14750TIP3    H265666   6.027   6.665   4.050 -1.6229 -2.7482  0.4580
14751TIP3   OH265667   4.477   6.190  14.361 -0.1199  0.2792 -0.6607
14751TIP3    H165668   4.445   6.216  14.274 -0.6213 -0.5366 -0.7405
14751TIP3    H265669   4.405   6.138  14.398 -0.2756  1.3712  0.6211
14752TIP3   OH265670   3.707   6.247  12.915  0.0385  0.1935  0.6590
14752TIP3    H165671   3.742   6.175  12.861 -0.2078 -0.3792  1.2523
14752TIP3    H265672   3.784   6.289  12.953  0.1485 -0.2552  0.9366
14753TIP3   OH265673   4.079   4.935  15.860 -0.1971 -0.4336  0.0027
14753TIP3    H165674   3.993   4.938  15.900 -1.0169  1.6992 -1.6858
14753TIP3    H265675   4.124   5.013  15.892 -0.1488  0.2449 -1.6000
14754TIP3   OH265676   3.950   5.658  13.942  0.0957 -0.0905  0.0831
14754TIP3    H165677   3.995   5.741  13.924  2.2120 -1.0658  0.5265
14754TIP3    H265678   3.949   5.652  14.037  1.0934 -1.1034  0.0531
14755TIP3   OH265679   1.280   2.885   1.487 -0.5470  0.4483  0.3854
14755TIP3    H165680   1.316   2.825   1.553 -1.5213 -3.2676 -2.1511
14755TIP3    H265681   1.350   2.892   1.422 -1.2528  0.2154 -0.4113
14756TIP3   OH265682   4.909   0.245  16.210 -0.0040  0.5167  0.0519
14756TIP3    H165683   4.866   0.212  16.131  0.2232  0.3997 -0.0253
14756TIP3    H265684   4.931   0.166  16.259  0.9930  0.5250 -0.3641
14757TIP3   OH265685   2.791   1.205  16.056 -0.2106  0.3651 -0.3484
14757TIP3    H165686   2.715   1.156  16.025  1.3871 -3.5951  1.2392
14757TIP3    H265687   2.846   1.215  15.979 -0.4360 -0.8120 -0.6871
14758TIP3   OH265688   6.046   3.831  13.792  0.0158  0.1826  0.3728
14758TIP3    H165689   6.061   3.900  13.727 -3.1008  0.6713  0.0194
14758TIP3    H265690   6.092   3.755  13.757 -1.2017  0.5507 -2.2568
14759TIP3   OH265691   2.321   4.862   3.761 -0.2412 -0.6026 -0.7068
14759TIP3    H165692   2.245   4.831   3.811  0.6173  2.0061  2.6073
14759TIP3    H265693   2.296   4.950   3.733  1.3936  0.1837  0.1921
14760TIP3   OH265694   6.452   3.074   3.322 -0.1378  0.1066 -0.2451
14760TIP3    H165695   6.445   3.139   3.393 -0.4293  0.1067 -0.2739
14760TIP3    H265696   6.517   3.111   3.263 -2.5239  1.9467 -1.9134
14761TIP3   OH265697   0.810   2.206   4.159 -0.5744 -0.6410  0.0343
14761TIP3    H165698   0.785   2.277   4.218 -0.6053  0.2190 -0.9986
14761TIP3    H265699   0.789   2.126   4.208 -2.7953  0.0286  0.2871
14762TIP3   OH265700   1.569   4.176  13.420  0.0219  0.6193 -0.1285
14762TIP3    H165701   1.558   4.261  13.461  0.5033  0.9071 -0.5792
14762TIP3    H265702   1.536   4.113  13.484 -0.9726  1.1845 -0.0597
14763TIP3   OH265703   2.756   1.081   4.055 -0.1903 -0.0191  0.0546
14763TIP3    H165704   2.743   1.105   4.147 -0.3017 -2.7452  0.8301
14763TIP3    H265705   2.841   1.120   4.033 -0.1781  0.7316  1.2663
14764TIP3   OH265706   3.349   2.363   1.644 -0.1191 -0.6950 -0.1947
14764TIP3    H165707   3.378   2.441   1.693  0.3759 -1.1682  0.2896
14764TIP3    H265708   3.254   2.373   1.636 -0.1157 -0.2642  0.2572
14765TIP3   OH265709   4.244   2.921   3.163 -0.0347  0.3326 -0.0697
14765TIP3    H165710   4.293   2.847   3.127 -0.0532  0.5856 -0.6186
14765TIP3    H265711   4.191   2.882   3.233  0.8740  0.0437  0.4810
14766TIP3   OH265712   2.049   2.203  11.701  0.4156 -0.4473 -0.2379
14766TIP3    H165713   2.114   2.266  11.733  0.3784  0.2662 -1.4813
14766TIP3    H265714   2.101   2.139  11.652  0.2032  0.0824 -1.1706
14767TIP3   OH265715   3.631   2.632  15.482 -0.0347  0.4795 -0.0154
14767TIP3    H165716   3.652   2.643  15.390  0.6329 -0.1134  0.0539
14767TIP3    H265717   3.536   2.630  15.485 -0.0790  1.5042 -0.5634
14768TIP3   OH265718   5.212   4.486   5.265 -0.1102 -0.3366  0.1552
14768TIP3    H165719   5.191   4.394   5.283 -0.2939 -0.5926 -1.2560
14768TIP3    H265720   5.303   4.486   5.238 -0.3600 -0.2385 -0.7135
14769TIP3   OH265721   6.559   2.227   1.580 -0.4610  0.0746 -0.0035
14769TIP3    H165722   6.482   2.231   1.523  0.1317  2.2076 -0.7313
14769TIP3    H265723   6.599   2.313   1.573  1.7728 -0.8289  0.7145
14770TIP3   OH265724   6.295   0.431  14.727 -0.5983  0.0611 -0.1583
14770TIP3    H165725   6.355   0.500  14.754 -0.6949 -0.0331  0.3011
14770TIP3    H265726   6.282   0.446  14.633  0.1295  0.0842 -0.2584
14771TIP3   OH265727   6.231   6.290  17.034 -0.1969 -0.1421 -0.2219
14771TIP3    H165728   6.295   6.260  17.099 -0.7223 -1.2318 -0.2002
14771TIP3    H265729   6.153   6.311  17.086 -0.1334  0.4102 -0.3431
14772TIP3   OH265730   5.335   1.291   5.833  0.0176 -0.2092 -0.3968
14772TIP3    H165731   5.335   1.247   5.748  0.6907  0.4384 -0.7446
14772TIP3    H265732   5.413   1.258   5.878 -0.3318 -0.5452 -0.0262
14773TIP3   OH265733   4.024   3.769  11.602  0.1501  0.4684 -0.1312
14773TIP3    H165734   4.018   3.834  11.532 -1.0138 -0.8324 -1.3243
14773TIP3    H265735   4.116   3.769  11.627  0.2698  2.2015 -0.4225
14774TIP3   OH265736   1.488   5.804  11.951 -0.7482 -0.6580 -0.3731
14774TIP3    H165737   1.528   5.888  11.927  0.4847 -0.9012  0.7053
14774TIP3    H265738   1.401   5.807  11.913 -1.4471  1.8998  1.1743
14775TIP3   OH265739   3.973   0.538  15.116 -0.0803 -0.2897  0.0833
14775TIP3    H165740   3.923   0.474  15.066 -0.1330  0.0402 -0.2929
14775TIP3    H265741   4.005   0.490  15.192 -1.8347 -0.2632  0.8895
14776TIP3   OH265742   5.662   4.648   3.396 -0.3936 -0.1935 -0.0511
14776TIP3    H165743   5.608   4.595   3.455 -2.2862 -0.1186 -1.6209
14776TIP3    H265744   5.633   4.738   3.411  0.1233 -0.0145 -0.0995
14777TIP3   OH265745   4.421   5.744   2.830 -0.5944  0.9526 -0.0185
14777TIP3    H165746   4.353   5.725   2.766 -0.4259  2.3936 -0.6810
14777TIP3    H265747   4.500   5.758   2.777 -0.1948  1.0619  0.5952
14778TIP3   OH265748   4.397   6.464  14.200 -0.3356 -0.0461 -0.3811
14778TIP3    H165749   4.398   6.379  14.156 -0.5683 -0.8682  1.1462
14778TIP3    H265750   4.487   6.478  14.228 -0.4347 -0.1030 -0.0378
14779TIP3   OH265751   3.470   5.433   4.660  0.2249  0.2853  0.1219
14779TIP3    H165752   3.437   5.414   4.571  1.1895  1.8137 -0.6021
14779TIP3    H265753   3.540   5.497   4.646  1.0440 -0.1674  1.9296
14780TIP3   OH265754   6.726   2.481  11.702  0.2776  0.0327  0.6316
14780TIP3    H165755   6.743   2.545  11.633 -0.7289 -0.2703  0.0933
14780TIP3    H265756   6.631   2.472  11.704  0.2935 -0.0026  2.0310
14781TIP3   OH265757   1.820   6.526  13.956  0.2030  0.6233  0.3876
14781TIP3    H165758   1.757   6.538  14.027  0.0127 -2.5359  0.9031
14781TIP3    H265759   1.811   6.434  13.931  0.9462  1.3357 -3.1245
14782TIP3   OH265760   2.575   3.980   3.102 -0.3698 -0.1041 -0.1985
14782TIP3    H165761   2.567   4.055   3.042  0.3306  1.0183  1.0515
14782TIP3    H265762   2.620   3.913   3.051  0.6166  0.9788 -0.7967
14783TIP3   OH265763   1.064   3.816  16.219  0.3347 -0.5927 -0.3543
14783TIP3    H165764   1.154   3.800  16.246  1.0276 -0.7256 -2.5305
14783TIP3    H265765   1.054   3.765  16.138 -1.2616  0.5133 -0.9043
14784TIP3   OH265766   1.194   1.739  14.785 -0.1899 -0.5060 -0.1414
14784TIP3    H165767   1.287   1.750  14.802 -0.2129 -0.8853  0.2461
14784TIP3    H265768   1.166   1.673  14.848 -0.1051 -2.7286 -2.3151
14785TIP3   OH265769   3.377   5.127   4.636 -0.5260 -0.0741 -0.0895
14785TIP3    H165770   3.459   5.091   4.604 -0.2406 -0.0738  0.6373
14785TIP3    H265771   3.315   5.111   4.565  0.5329  1.6747 -1.5037
14786TIP3   OH265772   0.321   6.310  11.075  0.4318  0.4479 -0.2776
14786TIP3    H165773   0.248   6.283  11.130 -0.0034  2.0685  0.0089
14786TIP3    H265774   0.280   6.365  11.007  1.2863  0.7651 -0.5457
14787TIP3   OH265775   4.601   6.408  14.483  0.0395 -0.9971  0.2698
14787TIP3    H165776   4.692   6.387  14.501  0.3432 -0.3926 -0.5171
14787TIP3    H265777   4.556   6.323  14.483  0.5064 -1.2590  1.0955
14788TIP3   OH265778   6.051   2.243  15.137 -0.3102 -0.0710 -0.6605
14788TIP3    H165779   6.020   2.255  15.047  1.1935 -0.5439 -1.2707
14788TIP3    H265780   6.089   2.155  15.137  0.1300  0.1116  0.3197
14789TIP3   OH265781   4.470   5.313   4.117  0.5968  0.0689 -0.3454
14789TIP3    H165782   4.398   5.365   4.155  0.3137 -0.5312 -0.0428
14789TIP3    H265783   4.473   5.235   4.171  0.5169 -0.5866 -1.2729
14790TIP3   OH265784   3.085   2.944   1.607 -0.0882 -0.1464  0.1993
14790TIP3    H165785   3.080   2.901   1.522  0.6324 -0.8490  0.4990
14790TIP3    H265786   3.171   2.921   1.641  0.4176  1.7150  0.2998
14791TIP3   OH265787   3.271   4.789   5.799  0.0534  0.4908  0.0485
14791TIP3    H165788   3.279   4.703   5.757 -0.1658  1.0060 -1.0742
14791TIP3    H265789   3.290   4.851   5.729 -1.8041  1.4245  0.3232
14792TIP3   OH265790   3.392   4.775  12.095 -0.4305  0.3185 -0.0970
14792TIP3    H165791   3.296   4.769  12.088 -0.2255 -0.9650 -3.6174
14792TIP3    H265792   3.421   4.685  12.111  0.2618  0.4122 -0.7824
14793TIP3   OH265793   1.591   5.649   0.939 -0.0109  0.4577  0.0467
14793TIP3    H165794   1.559   5.655   1.029  1.3601  2.0810  0.4844
14793TIP3    H265795   1.666   5.589   0.944  0.7822  1.4465  0.2335
14794TIP3   OH265796   0.482   6.321   1.000  0.1192 -0.3237 -0.5077
14794TIP3    H165797   0.436   6.403   1.017  0.5607 -0.2578  0.4340
14794TIP3    H265798   0.496   6.283   1.087  0.4509 -1.1011 -0.8929
14795TIP3   OH265799   6.137   2.861   4.174 -0.2959  0.1820 -0.0173
14795TIP3    H165800   6.084   2.858   4.253 -0.0322 -1.4617  0.1440
14795TIP3    H265801   6.124   2.949   4.139 -1.1393  0.6318  1.3503
14796TIP3   OH265802   6.425   2.839  15.577  0.3267  0.5421 -0.4865
14796TIP3    H165803   6.331   2.853  15.575  0.1583 -0.4127 -0.0095
14796TIP3    H265804   6.442   2.802  15.664  0.6119 -2.5055 -1.6951
14797TIP3   OH265805   5.146   4.104  11.867  0.0724  0.4406 -0.5319
14797TIP3    H165806   5.152   4.146  11.953 -1.6778 -1.0372  0.3733
14797TIP3    H265807   5.186   4.018  11.879  0.2633  0.3978 -1.3607
14798TIP3   OH265808   5.987   2.110   3.183  0.5869 -0.3711  0.1672
14798TIP3    H165809   6.075   2.133   3.153 -0.2613  0.3882 -1.9686
14798TIP3    H265810   5.943   2.194   3.197 -1.1062 -0.5110 -3.2014
14799TIP3   OH265811   4.512   1.888   2.546  0.1061 -0.2483 -0.6526
14799TIP3    H165812   4.510   1.892   2.641  1.4295 -1.5130 -0.5301
14799TIP3    H265813   4.455   1.814   2.523  0.0239 -0.1338 -0.8228
14800TIP3   OH265814   1.269   2.389   3.088  0.5344 -0.0698  0.0585
14800TIP3    H165815   1.345   2.385   3.030  0.6244 -1.4086  0.2300
14800TIP3    H265816   1.221   2.467   3.061  2.0452  0.8870  0.0506
14801TIP3   OH265817   4.394   0.799   5.142  0.1521  0.0217 -0.0232
14801TIP3    H165818   4.432   0.883   5.116 -0.3462  0.4981  0.7673
14801TIP3    H265819   4.320   0.787   5.083  0.6986 -0.2611 -0.6689
14802TIP3   OH265820   0.909   5.571   0.958 -0.5873  0.3363 -0.2099
14802TIP3    H165821   0.835   5.515   0.938 -0.1837 -0.4562  0.4352
14802TIP3    H265822   0.976   5.546   0.895  0.4470 -1.6824  1.5740
14803TIP3   OH265823   4.551   5.295  11.130  0.1914  0.4652 -0.3309
14803TIP3    H165824   4.620   5.247  11.175 -1.2929 -1.5179  0.0169
14803TIP3    H265825   4.525   5.364  11.191 -0.4646 -0.9570  1.0721
14804TIP3   OH265826   5.127   4.263   0.726 -0.3281 -0.3889  0.1578
14804TIP3    H165827   5.091   4.227   0.645 -1.2003 -0.7246  0.6798
14804TIP3    H265828   5.065   4.236   0.794 -0.8811  1.8208  0.6287
14805TIP3   OH265829   3.959   5.125   3.968 -0.2822  0.0171  0.0415
14805TIP3    H165830   3.989   5.211   3.998  0.4755 -0.9226  2.1356
14805TIP3    H265831   3.995   5.117   3.879  0.7149  1.3278  0.2967
14806TIP3   OH265832   2.782   5.618   2.998  0.8104  0.0256 -0.8973
14806TIP3    H165833   2.749   5.623   2.908  3.8732  2.2216 -2.0604
14806TIP3    H265834   2.711   5.653   3.052 -1.4776 -2.2031 -2.2165
14807TIP3   OH265835   4.443   1.096   5.459 -0.0662 -0.1027  0.6689
14807TIP3    H165836   4.419   1.087   5.551 -0.2602 -0.5028  0.5781
14807TIP3    H265837   4.511   1.031   5.445  0.2807  0.2619  0.6398
14808TIP3   OH265838   5.467   1.479   1.089 -0.2876 -0.0348 -0.3782
14808TIP3    H165839   5.407   1.529   1.034 -1.7311 -1.3982 -0.1363
14808TIP3    H265840   5.472   1.529   1.171 -0.7403  0.3461 -0.5766
14809TIP3   OH265841   5.915   5.632  16.626 -0.2666  0.0617  0.0987
14809TIP3    H165842   5.933   5.632  16.532 -1.5977 -0.7275 -0.1759
14809TIP3    H265843   5.967   5.705  16.660 -0.5451  0.9924 -1.3932
14810TIP3   OH265844   3.030   4.705   0.521 -0.3488  0.1350 -0.3423
14810TIP3    H165845   3.019   4.671   0.610  0.2203 -1.4613 -0.8488
14810TIP3    H265846   2.940   4.719   0.490 -0.8913 -3.7333 -1.0862
14811TIP3   OH265847   4.699   1.489  12.934  0.2414 -0.4224 -0.0266
14811TIP3    H165848   4.711   1.408  12.984 -1.1289 -1.6130 -1.4953
14811TIP3    H265849   4.612   1.520  12.959  0.3316  0.0295 -0.2593
14812TIP3   OH265850   1.733   5.088  15.455  0.2563 -0.7529  0.0655
14812TIP3    H165851   1.745   5.011  15.400 -2.8909 -0.0437 -1.8779
14812TIP3    H265852   1.669   5.061  15.521 -2.2645  0.4989 -1.7053
14813TIP3   OH265853   2.897   0.716   1.456  0.0469 -0.8703  0.0777
14813TIP3    H165854   2.891   0.690   1.547 -2.6066  0.1617  0.2846
14813TIP3    H265855   2.989   0.702   1.433  0.5387 -2.2187  2.5410
14814TIP3   OH265856   1.871   0.571   1.188  0.3660 -0.1375  0.4720
14814TIP3    H165857   1.788   0.524   1.198  0.3365 -0.0982  0.4047
14814TIP3    H265858   1.935   0.502   1.171  0.8309 -0.4941  3.2080
14815TIP3   OH265859   3.006   4.833  16.583  0.5043 -0.2992 -0.4678
14815TIP3    H165860   2.916   4.840  16.616  0.2684 -0.4597 -1.0621
14815TIP3    H265861   3.038   4.750  16.616  0.1607 -0.6049 -0.8921
14816TIP3   OH265862   5.905   5.873  12.606  0.7279 -0.2578 -0.4135
14816TIP3    H165863   5.973   5.811  12.632  3.5876  2.3066 -1.1087
14816TIP3    H265864   5.928   5.954  12.652 -1.1636  1.0450 -1.6279
14817TIP3   OH265865   1.398   2.711   1.659  0.2369  0.4518 -0.0125
14817TIP3    H165866   1.468   2.728   1.722  0.9882 -3.7999  0.5833
14817TIP3    H265867   1.444   2.691   1.577 -0.5022  1.3062 -0.6495
14818TIP3   OH265868   5.501   2.203  14.938  0.3777  0.1595 -0.8099
14818TIP3    H165869   5.542   2.206  14.851  0.5956 -1.2905 -0.7803
14818TIP3    H265870   5.417   2.159  14.923  0.7467 -0.7838 -0.1716
14819TIP3   OH265871   6.509   0.126  13.208 -0.8340  0.5779 -0.2473
14819TIP3    H165872   6.450   0.051  13.221  0.0029  0.1867  1.6043
14819TIP3    H265873   6.574   0.118  13.278  0.3824  2.0016 -1.1565
14820TIP3   OH265874   4.472   5.818   4.153  0.2510 -0.6500  0.1815
14820TIP3    H165875   4.554   5.784   4.189  0.8426  1.8183  1.4356
14820TIP3    H265876   4.404   5.763   4.191  1.0648  0.1051  2.9796
14821TIP3   OH265877   1.313   5.607   3.592  0.6694 -0.2087  0.1332
14821TIP3    H165878   1.312   5.553   3.671 -1.9427 -0.2454  0.1583
14821TIP3    H265879   1.373   5.678   3.613 -1.4284  0.9071  3.0214
14822TIP3   OH265880   2.851   0.564  13.073 -0.2586 -0.6191 -0.3130
14822TIP3    H165881   2.839   0.647  13.026 -1.1901 -0.5884 -0.0398
14822TIP3    H265882   2.936   0.573  13.117  1.9688 -1.6637 -4.0107
14823TIP3   OH265883   6.005   1.142  10.859  0.3548 -0.9193  0.4572
14823TIP3    H165884   5.931   1.168  10.915 -0.6092 -1.8993 -0.3028
14823TIP3    H265885   6.004   1.046  10.862 -1.6666 -1.2354 -3.5192
14824TIP3   OH265886   5.200   2.603   2.795 -0.6268 -0.3310 -0.1274
14824TIP3    H165887   5.236   2.541   2.731 -0.7951 -1.4242  0.8177
14824TIP3    H265888   5.144   2.660   2.743 -1.2496 -1.5772 -0.8769
14825TIP3   OH265889   4.229   6.436  16.989 -0.2476  0.1303  0.0751
14825TIP3    H165890   4.140   6.463  17.015 -0.7836 -0.7725 -0.7449
14825TIP3    H265891   4.252   6.366  17.050  0.4605  1.2522  1.1338
14826TIP3   OH265892   4.969   0.151  15.775  0.3621  0.1477  0.1108
14826TIP3    H165893   5.019   0.070  15.766 -0.3272 -0.4450  1.3826
14826TIP3    H265894   4.933   0.166  15.688  1.1125 -0.5072 -0.3252
14827TIP3   OH265895   1.078   0.650  16.230 -0.2114 -0.2201  0.1676
14827TIP3    H165896   1.115   0.627  16.315 -0.7071 -1.6476  0.0175
14827TIP3    H265897   1.066   0.566  16.185  0.2786  0.5218 -1.4238
14828TIP3   OH265898   1.989   4.611   2.028 -0.7685 -0.2129  0.2527
14828TIP3    H165899   1.959   4.698   2.004  1.6398  0.2222 -1.5407
14828TIP3    H265900   1.985   4.561   1.947  0.4490 -0.9528  0.6250
14829TIP3   OH265901   4.930   2.396   2.790  0.2685  0.4716  0.0259
14829TIP3    H165902   4.979   2.354   2.860  0.3852  0.0367 -0.3102
14829TIP3    H265903   4.987   2.467   2.761  0.1899  0.6955  0.4132
14830TIP3   OH265904   5.340   2.158   0.369 -0.1453 -0.3043 -0.1886
14830TIP3    H165905   5.350   2.070   0.334  2.3038  0.0734 -0.6313
14830TIP3    H265906   5.366   2.216   0.297  1.4217  0.6167  1.0518
14831TIP3   OH265907   1.156   0.862   6.920  0.4764  0.0358 -0.0101
14831TIP3    H165908   1.117   0.930   6.866  0.4872  0.5976  0.6754
14831TIP3    H265909   1.233   0.903   6.958  0.4132 -0.3210  0.5080
14832TIP3   OH265910   3.355   1.757   2.901 -0.2466  0.2872  0.2899
14832TIP3    H165911   3.345   1.800   2.816  2.8140  0.9881  0.1498
14832TIP3    H265912   3.321   1.820   2.964  0.4286  1.1839 -0.2151
14833TIP3   OH265913   1.014   5.110   4.995  0.3165 -0.4396  0.2289
14833TIP3    H165914   1.098   5.104   4.950  0.5195  1.3582  0.2901
14833TIP3    H265915   0.949   5.119   4.926  0.4374  0.5333  0.2354
14834TIP3   OH265916   1.099   6.445  16.767  0.0839 -0.6811 -0.2005
14834TIP3    H165917   1.189   6.415  16.778  0.5190  1.0128  1.2816
14834TIP3    H265918   1.052   6.369  16.733  1.9190 -1.7984 -0.3564
14835TIP3   OH265919   0.460   4.016   5.191 -0.0855 -0.3916  0.2055
14835TIP3    H165920   0.388   4.023   5.129  1.0009 -0.5271 -1.1204
14835TIP3    H265921   0.434   4.070   5.266 -0.6060  1.3498 -1.1743
14836TIP3   OH265922   6.227   3.569  14.365  0.0321 -0.3107 -0.3850
14836TIP3    H165923   6.135   3.562  14.390  0.2861  0.4583  0.8601
14836TIP3    H265924   6.237   3.659  14.333  0.5839 -0.0162  0.5804
14837TIP3   OH265925   2.372   6.644   0.240  0.3380 -1.0256  0.1073
14837TIP3    H165926   2.445   6.659   0.301  0.1264 -2.5345  0.7914
14837TIP3    H265927   2.364   6.725   0.191  1.7020 -0.4074  0.8572
14838TIP3   OH265928   2.345   2.005  10.936  0.4916 -0.4048 -0.6785
14838TIP3    H165929   2.315   2.095  10.932 -0.1407 -0.5842 -0.1551
14838TIP3    H265930   2.370   1.983  10.845  2.4393  0.8709 -0.5021
14839TIP3   OH265931   1.551   4.229  12.072 -0.3029  0.5936 -0.4803
14839TIP3    H165932   1.635   4.268  12.048  0.5666  0.0343  1.4360
14839TIP3    H265933   1.506   4.214  11.989  1.6036  0.6618 -1.5726
14840TIP3   OH265934   0.895   3.416   0.482 -0.1335  0.0439 -0.4250
14840TIP3    H165935   0.940   3.388   0.402 -0.1446  0.5910 -0.6269
14840TIP3    H265936   0.889   3.336   0.535  0.3406 -0.2117 -0.7439
14841TIP3   OH265937   6.161   6.505   4.633 -0.1808 -0.5205  0.0352
14841TIP3    H165938   6.233   6.444   4.616 -0.7393 -1.2349  0.2040
14841TIP3    H265939   6.092   6.451   4.671 -1.0253  0.0480 -0.6532
14842TIP3   OH265940   2.486   6.719   5.196  0.1199  0.3644  0.6708
14842TIP3    H165941   2.501   6.811   5.215  0.4501  0.5568 -0.4474
14842TIP3    H265942   2.573   6.684   5.175  0.0369 -0.2677  1.3274
14843TIP3   OH265943   5.444   4.524  11.121  0.3694  0.5734  0.6056
14843TIP3    H165944   5.469   4.555  11.035 -2.4969 -0.6840 -0.8088
14843TIP3    H265945   5.479   4.435  11.126  2.1738  1.2774  1.6159
14844TIP3   OH265946   0.219   0.608  11.352  0.0614  0.0413  0.4885
14844TIP3    H165947   0.234   0.638  11.263  0.2195 -4.1086 -1.0814
14844TIP3    H265948   0.306   0.603  11.391  0.2878 -0.5146 -0.0603
14845TIP3   OH265949   5.569   4.184   3.230 -0.1219 -0.9827  0.4317
14845TIP3    H165950   5.649   4.162   3.276 -0.5261  0.2986  1.7959
14845TIP3    H265951   5.588   4.266   3.185 -0.5625 -0.8643  0.4548
14846TIP3   OH265952   3.384   6.466  11.171 -0.1433 -0.2118 -0.4405
14846TIP3    H165953   3.294   6.496  11.156 -0.9053 -2.7163 -1.4038
14846TIP3    H265954   3.426   6.471  11.085  0.0497 -0.8122 -0.3861
14847TIP3   OH265955   1.044   3.264   5.740  0.1529  0.1692  0.2747
14847TIP3    H165956   1.064   3.326   5.670 -1.1604 -0.4989 -0.7419
14847TIP3    H265957   1.126   3.219   5.756  0.6081  0.7085 -0.4702
14848TIP3   OH265958   2.478   6.717   4.480  0.3888 -0.1181  0.1453
14848TIP3    H165959   2.484   6.812   4.481  0.1634 -0.0303 -1.9142
14848TIP3    H265960   2.555   6.687   4.529  1.0973  1.1092 -0.1916
14849TIP3   OH265961   0.238   1.854  16.984 -0.2556  0.3749 -0.2259
14849TIP3    H165962   0.213   1.905  16.907 -0.8757  0.4109 -0.0051
14849TIP3    H265963   0.278   1.918  17.044 -1.3045  0.6800  0.1765
14850TIP3   OH265964   1.055   1.091   6.754 -0.1555  0.2801 -0.1483
14850TIP3    H165965   0.994   1.162   6.734  0.4378  0.9838  0.4834
14850TIP3    H265966   1.121   1.097   6.684 -0.5676 -0.2131 -0.5900
14851TIP3   OH265967   6.503   0.196  12.087  0.8689 -0.0684  0.0085
14851TIP3    H165968   6.418   0.157  12.068  0.9190  0.6647 -1.9914
14851TIP3    H265969   6.546   0.135  12.147 -0.8951 -0.6377  0.7437
14852TIP3   OH265970   2.152   1.620   1.551  0.2050 -0.1411  0.1424
14852TIP3    H165971   2.206   1.699   1.555 -0.2700  0.2516 -0.9331
14852TIP3    H265972   2.118   1.618   1.462 -1.5924 -0.3432  0.7828
14853TIP3   OH265973   5.092   0.658  11.456 -0.0565  0.3002  0.0545
14853TIP3    H165974   5.063   0.734  11.506  0.6888  0.6027  0.0387
14853TIP3    H265975   5.098   0.689  11.366 -0.8002 -0.0765 -0.1293
14854TIP3   OH265976   4.635   2.734  11.719 -0.3632 -0.0003 -0.1479
14854TIP3    H165977   4.569   2.795  11.752  1.7118  1.9332  0.6327
14854TIP3    H265978   4.705   2.737  11.783 -0.0214 -3.0939 -0.2132
14855TIP3   OH265979   1.628   2.755   4.097 -0.3335 -0.6189  0.1733
14855TIP3    H165980   1.586   2.789   4.176 -0.6946 -1.6329  0.4292
14855TIP3    H265981   1.687   2.687   4.128 -1.2585 -1.7606 -0.5152
14856TIP3   OH265982   4.471   2.494  14.902  0.8000  0.2397  0.5216
14856TIP3    H165983   4.561   2.505  14.933  0.2977  3.7971  1.0597
14856TIP3    H265984   4.418   2.495  14.981  0.1363 -0.0278  0.0886
14857TIP3   OH265985   5.709   4.431   3.877 -0.0968 -0.1846 -0.3262
14857TIP3    H165986   5.717   4.510   3.822  1.6546  0.4377  0.7370
14857TIP3    H265987   5.752   4.455   3.959 -0.7262 -1.8324  0.5310
14858TIP3   OH265988   5.851   6.215   2.864 -0.0545  0.3033 -0.3873
14858TIP3    H165989   5.761   6.243   2.882  0.3917  2.0127 -0.6490
14858TIP3    H265990   5.862   6.135   2.915 -1.0096  1.2864  1.4692
14859TIP3   OH265991   3.469   2.860  15.662  0.4091 -0.2143  0.1950
14859TIP3    H165992   3.490   2.838  15.753  0.3523  1.3878  0.6257
14859TIP3    H265993   3.540   2.919  15.635 -0.8675  1.2989  0.0275
14860TIP3   OH265994   2.780   1.597  16.755 -0.6152 -0.1326 -0.1977
14860TIP3    H165995   2.757   1.667  16.694 -2.8294 -1.2157 -0.7010
14860TIP3    H265996   2.822   1.642  16.829  0.8810  1.3511 -1.8440
14861TIP3   OH265997   5.764   3.970   5.147  0.0621 -0.5828  0.2129
14861TIP3    H165998   5.716   3.973   5.230 -0.5904 -0.9355 -0.1372
14861TIP3    H265999   5.749   3.881   5.115 -0.7148 -0.0858 -0.8611
14862TIP3   OH266000   6.440   0.819   0.561  0.2346 -0.3245  0.2653
14862TIP3    H166001   6.444   0.913   0.578  0.1680  0.3442 -2.7928
14862TIP3    H266002   6.376   0.811   0.490 -0.9719 -2.9048  1.5138
14863TIP3   OH266003   6.569   5.800   6.184  0.1612  0.1656 -0.4535
14863TIP3    H166004   6.540   5.796   6.092 -0.4492 -1.8586 -0.2010
14863TIP3    H266005   6.488   5.798   6.235  0.5182  0.8917  0.1644
14864TIP3   OH266006   6.182   4.457   3.751 -0.6202  0.5109  0.2030
14864TIP3    H166007   6.100   4.472   3.703 -1.5144 -1.7693  0.8565
14864TIP3    H266008   6.221   4.381   3.708  1.6813  2.0970 -0.6669
14865TIP3   OH266009   5.176   4.297  16.172  0.3588  0.1407  0.1974
14865TIP3    H166010   5.146   4.241  16.100  0.6167 -0.2287  0.3708
14865TIP3    H266011   5.119   4.273  16.246  1.0275 -0.5147  0.5099
14866TIP3   OH266012   4.824   0.816   4.062 -0.1311  0.1074 -0.5741
14866TIP3    H166013   4.812   0.755   3.989  0.2980 -1.6038  0.7444
14866TIP3    H266014   4.791   0.770   4.138  0.7140  1.3126  0.5666
14867TIP3   OH266015   6.059   2.616   0.904  0.2764  0.1205  0.6775
14867TIP3    H166016   6.082   2.608   0.997  1.2963  1.5641  0.5810
14867TIP3    H266017   6.128   2.568   0.859 -0.8890 -1.6512  0.6740
14868TIP3   OH266018   1.392   3.047  11.323 -0.2679 -0.1079 -0.9000
14868TIP3    H166019   1.479   3.008  11.325  0.0455  0.5422 -1.3994
14868TIP3    H266020   1.407   3.138  11.296 -1.0038  0.2967  0.0146
14869TIP3   OH266021   5.505   3.885  14.486 -0.3781  0.2744  0.6620
14869TIP3    H166022   5.528   3.841  14.568  2.2282  0.7293  0.2741
14869TIP3    H266023   5.541   3.973  14.496 -0.1319  0.3700 -0.8996
14870TIP3   OH266024   5.310   0.775   5.516 -0.4371 -0.2029 -0.3470
14870TIP3    H166025   5.406   0.774   5.519 -0.4144 -1.5202 -0.7446
14870TIP3    H266026   5.284   0.748   5.604 -0.3686 -2.2993 -0.9101
14871TIP3   OH266027   4.129   2.626   3.792  0.6822  0.4469 -0.6913
14871TIP3    H166028   4.211   2.605   3.836  0.4156 -0.2394 -0.5116
14871TIP3    H266029   4.143   2.714   3.755  0.1266  2.1217  2.7270
14872TIP3   OH266030   5.851   4.161  16.982 -0.0068  0.4086 -0.7486
14872TIP3    H166031   5.824   4.135  16.894 -1.3902 -1.3722  0.1422
14872TIP3    H266032   5.848   4.256  16.981 -0.7852  0.3993 -2.3836
14873TIP3   OH266033   5.141   0.669   1.478 -0.1041 -0.1895 -0.2213
14873TIP3    H166034   5.096   0.671   1.393 -0.1863  1.5524 -0.1682
14873TIP3    H266035   5.162   0.577   1.491  2.3431 -0.2553 -3.4088
14874TIP3   OH266036   2.761   5.161   1.875 -0.4047 -0.0467  0.5186
14874TIP3    H166037   2.752   5.219   1.800 -1.2449 -1.2489 -0.3361
14874TIP3    H266038   2.683   5.177   1.928 -0.5622 -0.2849  0.3593
14875TIP3   OH266039   1.661   6.675  12.453 -0.1269 -0.3941 -0.3935
14875TIP3    H166040   1.755   6.672  12.440  0.4862  0.6410  3.0437
14875TIP3    H266041   1.638   6.588  12.485  0.1881  0.1404  1.3784
14876TIP3   OH266042   3.085   3.815  13.023  0.2469 -0.1537 -0.0249
14876TIP3    H166043   3.029   3.743  13.052 -0.1604  0.7937  1.7103
14876TIP3    H266044   3.115   3.789  12.936 -2.7653 -0.7803 -1.0003
14877TIP3   OH266045   0.699   3.945   4.783  0.0908  0.8854  0.4135
14877TIP3    H166046   0.706   4.020   4.842 -0.2335  1.1606  0.1028
14877TIP3    H266047   0.660   3.980   4.703  0.1611  0.4341  0.1754
14878TIP3   OH266048   2.061   3.013   0.151 -0.4854  0.4431 -0.2769
14878TIP3    H166049   2.105   3.017   0.237  0.0425  1.4037 -0.5749
14878TIP3    H266050   1.981   2.963   0.168  1.0297 -2.0409  0.1352
14879TIP3   OH266051   0.767   5.724   4.168  0.3690  0.6062  0.2336
14879TIP3    H166052   0.822   5.768   4.234  3.0876  0.5963 -1.8450
14879TIP3    H266053   0.817   5.646   4.143 -3.4544 -3.0136  2.4989
14880TIP3   OH266054   4.296   6.001  14.560  0.0180 -0.4285 -0.4538
14880TIP3    H166055   4.264   5.998  14.471 -0.1675 -1.5443 -0.3609
14880TIP3    H266056   4.274   5.915  14.597  0.8894 -0.3135  0.3782
14881TIP3   OH266057   4.410   4.343  16.469  0.1945 -0.2381  0.5594
14881TIP3    H166058   4.369   4.421  16.508 -1.4364 -0.8371  0.1445
14881TIP3    H266059   4.377   4.270  16.521  1.8217 -0.6724  1.0338
14882TIP3   OH266060   4.645   3.718  12.447 -0.2399 -0.4219 -0.4144
14882TIP3    H166061   4.683   3.676  12.524 -1.6799 -0.3522  0.3755
14882TIP3    H266062   4.551   3.702  12.456 -0.3149 -2.0500 -3.1373
14883TIP3   OH266063   1.965   2.533   0.947 -0.1386 -0.0838  0.1755
14883TIP3    H166064   1.987   2.577   0.865  0.3380 -0.0922  0.2942
14883TIP3    H266065   1.886   2.483   0.927 -0.6725  0.8141  0.0419
14884TIP3   OH266066   1.406   5.154   0.171  0.4209  0.6029 -0.1359
14884TIP3    H166067   1.496   5.187   0.170  1.0809 -1.0686  0.4376
14884TIP3    H266068   1.391   5.130   0.262  0.0519 -0.8065 -0.5532
14885TIP3   OH266069   0.896   5.798   2.754 -0.2331  0.0385  0.1043
14885TIP3    H166070   0.989   5.778   2.759  0.0381  0.9153 -1.1074
14885TIP3    H266071   0.892   5.885   2.715 -1.5569  0.0406  0.2051
14886TIP3   OH266072   6.604   0.335  15.088  0.3764 -0.2305 -0.2974
14886TIP3    H166073   6.693   0.370  15.084  0.3212 -0.1261 -0.6387
14886TIP3    H266074   6.574   0.356  15.176  0.3113  0.6795 -0.5237
14887TIP3   OH266075   3.614   2.483   5.399  0.3572 -0.4817 -0.2906
14887TIP3    H166076   3.695   2.435   5.381  0.4217  0.1266 -1.7840
14887TIP3    H266077   3.559   2.465   5.322  0.5220  2.0976 -1.0913
14888TIP3   OH266078   0.180   3.260   5.432 -0.1095  0.1910 -0.3858
14888TIP3    H166079   0.161   3.286   5.523 -0.9158 -0.8494 -0.2292
14888TIP3    H266080   0.181   3.342   5.383  1.2699  0.8679  0.7047
14889TIP3   OH266081   5.266   5.150  12.602  0.2851 -0.4115 -0.4702
14889TIP3    H166082   5.171   5.152  12.612  0.1213  0.2099 -1.8923
14889TIP3    H266083   5.293   5.241  12.617  0.6187 -0.5191 -0.4164
14890TIP3   OH266084   0.609   3.598  15.826  0.0938  0.4616  0.6032
14890TIP3    H166085   0.648   3.525  15.778 -0.4745 -0.4055  1.4307
14890TIP3    H266086   0.631   3.676  15.774 -0.0334 -0.3809 -0.7431
14891TIP3   OH266087   2.557   5.241   4.457 -0.0891  0.4655  0.7416
14891TIP3    H166088   2.574   5.335   4.466  0.8261  0.1213  3.5975
14891TIP3    H266089   2.462   5.233   4.462 -0.2160  1.2487 -0.1100
14892TIP3   OH266090   5.204   6.595  13.354  0.0253  0.1681  0.0666
14892TIP3    H166091   5.214   6.689  13.365 -2.3454  0.3017  1.9583
14892TIP3    H266092   5.293   6.560  13.365  0.8121  2.0826  0.2527
14893TIP3   OH266093   0.302   6.496  10.504 -0.2826 -0.1615 -0.2531
14893TIP3    H166094   0.302   6.563  10.435  0.0541  0.6002  0.4650
14893TIP3    H266095   0.386   6.451  10.493 -1.2884 -1.7647 -1.9238
14894TIP3   OH266096   4.787   1.781   6.134  0.2232  0.4264 -0.0512
14894TIP3    H166097   4.819   1.741   6.215  1.0390  1.1652  0.0077
14894TIP3    H266098   4.739   1.710   6.090  2.1777 -0.8674 -0.2519
14895TIP3   OH266099   1.420   2.016  15.461 -0.0417 -0.0231 -0.3231
14895TIP3    H166100   1.493   1.953  15.465  2.1257  2.2630 -1.1651
14895TIP3    H266101   1.384   2.018  15.549 -0.6771 -2.8883 -0.4192
14896TIP3   OH266102   2.791   0.971   3.694  0.0527 -0.3857 -0.1004
14896TIP3    H166103   2.733   0.964   3.618  1.5315  2.1899 -1.6200
14896TIP3    H266104   2.787   1.063   3.718 -0.3882 -1.1418  3.0661
14897TIP3   OH266105   2.798   0.282   2.712 -0.1686  0.9340  0.2240
14897TIP3    H166106   2.743   0.236   2.776  1.0775 -0.4600  0.3688
14897TIP3    H266107   2.792   0.374   2.737 -0.1538  0.4908  2.0373
14898TIP3   OH266108   1.810   3.978   6.560 -0.4418 -0.2360 -0.3715
14898TIP3    H166109   1.732   3.929   6.585  0.6357 -0.8996  1.9474
14898TIP3    H266110   1.832   4.029   6.638 -0.0960  2.0627 -1.9041
14899TIP3   OH266111   3.217   5.811   3.715  0.3941 -0.2037  0.2506
14899TIP3    H166112   3.291   5.765   3.675  0.1452 -0.9282  0.5877
14899TIP3    H266113   3.212   5.774   3.803  1.2294  1.6882  1.1577
14900TIP3   OH266114   5.877   0.446  13.109 -0.1609  0.2849 -0.7122
14900TIP3    H166115   5.889   0.419  13.200  1.2257  1.5486 -0.4824
14900TIP3    H266116   5.782   0.458  13.100 -0.2834  0.4869  0.6642
14901TIP3   OH266117   4.645   1.248   4.876 -0.0731 -0.4038 -0.4227
14901TIP3    H166118   4.685   1.326   4.914 -0.7507 -0.1268 -0.2589
14901TIP3    H266119   4.641   1.267   4.782  0.1663 -0.4282 -0.4379
14902TIP3   OH266120   0.296   0.787  13.074 -0.0366 -1.0380 -0.1621
14902TIP3    H166121   0.378   0.739  13.065 -1.3496 -3.1686 -1.7168
14902TIP3    H266122   0.264   0.764  13.161  1.6574  1.0344  1.0977
14903TIP3   OH266123   5.753   5.627   4.737  0.0263  0.0871 -0.2644
14903TIP3    H166124   5.837   5.650   4.776 -1.0210 -1.3696  3.2082
14903TIP3    H266125   5.691   5.691   4.771 -0.4253  0.9558 -2.5320
14904TIP3   OH266126   2.838   2.046   4.487 -0.0701  0.5745  0.6566
14904TIP3    H166127   2.755   2.001   4.503 -0.3319  1.2863  1.4261
14904TIP3    H266128   2.858   2.088   4.571  0.1720  1.8414 -0.0072
14905TIP3   OH266129   5.512   2.307   5.426 -0.1836 -0.4923  0.3523
14905TIP3    H166130   5.587   2.331   5.371 -0.5206 -1.7112 -0.6824
14905TIP3    H266131   5.539   2.226   5.469 -1.3482 -1.6036 -0.9717
14906TIP3   OH266132   1.455   6.739  16.252  0.3302  0.1187 -0.3271
14906TIP3    H166133   1.373   6.704  16.285 -0.4678  1.3661 -0.8930
14906TIP3    H266134   1.478   6.809  16.313  1.9776 -1.4087  0.8839
14907TIP3   OH266135   0.316   2.927   3.746 -0.0131  0.1472  0.1600
14907TIP3    H166136   0.244   2.865   3.750 -1.4068  1.7400  0.6726
14907TIP3    H266137   0.394   2.872   3.741 -1.2239 -1.6251 -0.2297
14908TIP3   OH266138   1.308   2.088  15.744  0.1624  0.1621  0.0757
14908TIP3    H166139   1.254   2.152  15.791  0.9091 -0.4897  1.8965
14908TIP3    H266140   1.396   2.125  15.746  0.2497  0.0038 -0.6232
14909TIP3   OH266141   0.660   4.428  11.102  0.1412  0.0668 -0.8435
14909TIP3    H166142   0.579   4.478  11.112 -1.3423 -2.2290 -0.5832
14909TIP3    H266143   0.729   4.494  11.098 -1.5711  2.0524  0.4858
14910TIP3   OH266144   2.172   3.031  13.564  0.3174 -0.4103  0.1634
14910TIP3    H166145   2.105   3.023  13.496  0.4650  1.0775 -0.1879
14910TIP3    H266146   2.170   2.947  13.609 -0.0916 -1.2769 -1.3909
14911TIP3   OH266147   0.354   1.983  15.356 -0.1759 -1.0763  0.5964
14911TIP3    H166148   0.438   1.984  15.402 -0.3300 -1.8871  0.9164
14911TIP3    H266149   0.362   1.910  15.294 -0.0291 -0.0867 -0.5635
14912TIP3   OH266150   3.332   0.621  13.007  0.0681  0.8914  0.1025
14912TIP3    H166151   3.338   0.539  12.959  0.4537  2.3875 -2.6425
14912TIP3    H266152   3.423   0.649  13.019 -0.0420  0.7542  1.3734
14913TIP3   OH266153   0.546   2.545   0.060  0.3619 -0.0064  0.2046
14913TIP3    H166154   0.617   2.584   0.009  3.2918 -0.7937  3.3109
14913TIP3    H266155   0.517   2.471   0.008  1.1732  0.8525 -1.5587
14914TIP3   OH266156   4.250   5.279  13.325 -0.0211  0.2543 -0.0899
14914TIP3    H166157   4.238   5.215  13.255 -3.3295  0.8736 -0.2354
14914TIP3    H266158   4.234   5.364  13.283 -0.4418  0.7692  1.0692
14915TIP3   OH266159   1.514   0.731  12.739 -0.0451  0.0629  0.4415
14915TIP3    H166160   1.467   0.654  12.772  2.7817 -2.2594 -0.5258
14915TIP3    H266161   1.464   0.757  12.661 -0.8910 -1.0434  0.5756
14916TIP3   OH266162   3.185   4.803  11.420  0.6229  0.6054 -0.2514
14916TIP3    H166163   3.134   4.878  11.453  0.0549 -0.1703  0.6962
14916TIP3    H266164   3.147   4.728  11.465  1.4727 -0.2038 -0.8734
14917TIP3   OH266165   2.895   4.462   6.123 -0.2734 -0.6809 -0.0015
14917TIP3    H166166   2.831   4.525   6.158  0.7032 -0.4459  1.4503
14917TIP3    H266167   2.961   4.517   6.080 -0.2815 -0.8315 -0.2070
14918TIP3   OH266168   1.875   5.231  10.579  0.6760  0.2032 -0.3611
14918TIP3    H166169   1.948   5.260  10.633  0.6556  0.2441 -0.3549
14918TIP3    H266170   1.798   5.244  10.634  0.4278  2.1618 -1.0950
14919TIP3   OH266171   1.879   1.715   4.430  0.1702  0.2607 -0.3038
14919TIP3    H166172   1.959   1.761   4.456  1.0032 -1.1237 -0.3648
14919TIP3    H266173   1.885   1.708   4.335 -0.7097  1.3382 -0.4707
14920TIP3   OH266174   0.447   5.003  11.555 -0.0664  0.1378  0.2244
14920TIP3    H166175   0.429   4.940  11.485  3.0192 -0.9687  0.2398
14920TIP3    H266176   0.370   5.001  11.610 -0.5142 -2.9401 -0.3403
14921TIP3   OH266177   5.468   4.572  11.433  0.2861  0.1757  0.1260
14921TIP3    H166178   5.536   4.637  11.418 -0.1249  0.4286 -0.6717
14921TIP3    H266179   5.385   4.618  11.419 -0.1239  0.1199  1.9834
14922TIP3   OH266180   0.864   3.719   4.757  0.1203  0.7432  0.4795
14922TIP3    H166181   0.828   3.805   4.780  0.9654  1.3424 -0.3391
14922TIP3    H266182   0.874   3.674   4.841  1.2304  2.0867  1.1167
14923TIP3   OH266183   5.923   6.666  11.487 -0.2851 -0.1604  0.0058
14923TIP3    H166184   6.001   6.706  11.448 -1.4386 -0.2906 -2.5927
14923TIP3    H266185   5.939   6.572  11.481 -0.9454 -0.2089 -1.2941
14924TIP3   OH266186   3.406   0.673   2.846  0.1951  0.5238  0.0823
14924TIP3    H166187   3.448   0.590   2.825 -1.4857 -0.3582  0.0685
14924TIP3    H266188   3.329   0.677   2.788  0.2889  2.1387  0.0106
14925TIP3   OH266189   0.382   0.771   2.271  0.1650  0.3095  0.4663
14925TIP3    H166190   0.435   0.692   2.286  1.0686  0.7120 -0.4585
14925TIP3    H266191   0.443   0.834   2.234 -0.7815  1.0886  0.1826
14926TIP3   OH266192   3.402   3.523  15.835  0.1415 -0.7789  0.8628
14926TIP3    H166193   3.331   3.570  15.880  0.9028  2.6584 -1.1178
14926TIP3    H266194   3.482   3.559  15.874  0.7605 -0.3359 -0.7265
14927TIP3   OH266195   1.409   6.076   1.527 -0.1004  0.6470  0.1311
14927TIP3    H166196   1.462   6.041   1.455  1.3210  1.5716  0.6911
14927TIP3    H266197   1.462   6.061   1.605 -1.3732  0.1830  0.9414
14928TIP3   OH266198   6.097   6.493   4.925  0.5343  0.0437 -0.0887
14928TIP3    H166199   6.063   6.572   4.884 -0.4388 -0.7102 -0.8005
14928TIP3    H266200   6.025   6.460   4.978  0.8319 -0.5023 -0.0082
14929TIP3   OH266201   3.736   1.015   2.922  0.1839  0.1854 -0.2151
14929TIP3    H166202   3.811   1.001   2.980 -0.3187 -0.6441  0.2651
14929TIP3    H266203   3.733   0.936   2.868 -1.3253 -0.5827  0.9206
14930TIP3   OH266204   3.420   2.621   2.634 -0.4233 -0.4720  0.0089
14930TIP3    H166205   3.497   2.653   2.681  0.1243 -0.6494 -0.7377
14930TIP3    H266206   3.346   2.662   2.678  0.2053  1.2155 -0.4178
14931TIP3   OH266207   3.032   0.838  14.929  0.1683 -0.3581 -0.0604
14931TIP3    H166208   3.126   0.825  14.938  0.4147  0.7842 -0.7613
14931TIP3    H266209   3.015   0.829  14.835 -0.0618  1.4893 -0.2320
14932TIP3   OH266210   5.169   5.031   4.152 -0.1382  0.1360  0.3168
14932TIP3    H166211   5.105   4.960   4.158 -0.4316  0.5203  2.0391
14932TIP3    H266212   5.244   5.002   4.203  0.2352  0.5737  0.0373
14933TIP3   OH266213   2.672   0.659  16.659 -0.3589 -0.3100  0.6435
14933TIP3    H166214   2.651   0.571  16.690  2.2372 -1.2419  0.0075
14933TIP3    H266215   2.600   0.713  16.691 -0.7157 -2.1742  3.3520
14934TIP3   OH266216   1.601   6.188   6.755  0.5306  0.0378  0.3590
14934TIP3    H166217   1.650   6.223   6.681  0.1689  0.5275  0.3512
14934TIP3    H266218   1.669   6.149   6.812  0.6475 -2.3631 -1.2561
14935TIP3   OH266219   2.525   0.005   1.017  0.1414 -0.0975 -0.8024
14935TIP3    H166220   2.601   0.052   0.983  1.2918 -2.5108 -1.8323
14935TIP3    H266221   2.516   0.035   1.108  2.5952 -0.0287 -0.5192
14936TIP3   OH266222   4.495   5.907   1.539  0.2001 -0.1173 -0.4104
14936TIP3    H166223   4.412   5.952   1.523  0.4911  1.0657  1.1359
14936TIP3    H266224   4.546   5.922   1.459 -1.4232 -1.8011 -1.8410
14937TIP3   OH266225   5.578   1.678   5.264  0.0341  0.6567 -0.1167
14937TIP3    H166226   5.537   1.710   5.344 -0.7398  1.5713 -0.8541
14937TIP3    H266227   5.630   1.752   5.233 -0.3969  0.6232 -0.9359
14938TIP3   OH266228   1.227   1.244  15.670  0.2830  0.1967  0.3809
14938TIP3    H166229   1.286   1.311  15.636  0.6347 -0.5083 -0.4165
14938TIP3    H266230   1.139   1.278  15.651  0.3943  1.2849  1.6470
14939TIP3   OH266231   2.970   4.662  16.323 -0.4464  0.2786 -0.7827
14939TIP3    H166232   3.036   4.732  16.328 -0.7537  0.4918  1.7161
14939TIP3    H266233   2.896   4.695  16.375 -0.8959 -1.5723 -0.1725
14940TIP3   OH266234   1.446   3.640   2.416  0.2519  0.4279 -0.2079
14940TIP3    H166235   1.541   3.641   2.428  0.1270  0.7253  0.8077
14940TIP3    H266236   1.419   3.553   2.444  0.3449 -0.0612 -1.5760
14941TIP3   OH266237   4.907   3.573   2.659  0.0194 -0.4950 -0.0091
14941TIP3    H166238   4.942   3.561   2.747 -1.6008 -1.3582  0.5455
14941TIP3    H266239   4.854   3.653   2.666  0.6801 -0.0136 -0.4616
14942TIP3   OH266240   1.175   6.325  15.061  0.0317  0.4073 -0.1108
14942TIP3    H166241   1.258   6.301  15.103  0.1628  0.9760 -0.0368
14942TIP3    H266242   1.108   6.289  15.119  0.2201 -0.8704 -0.6519
14943TIP3   OH266243   2.149   3.257   4.903 -0.3204 -0.0390  0.4128
14943TIP3    H166244   2.086   3.315   4.860 -2.2143 -1.2174  1.4447
14943TIP3    H266245   2.172   3.192   4.836  0.5931  0.9293 -0.2558
14944TIP3   OH266246   3.114   3.312   4.632 -0.1307  0.3348  0.5474
14944TIP3    H166247   3.174   3.351   4.568  1.1330  0.5988  1.8360
14944TIP3    H266248   3.115   3.374   4.706 -0.4163 -0.6683  1.4075
14945TIP3   OH266249   2.523   5.390  10.563 -0.0216 -0.3360  0.3962
14945TIP3    H166250   2.466   5.368  10.636 -0.1834 -0.7004  0.1657
14945TIP3    H266251   2.511   5.318  10.501  0.5910 -0.3559  0.2889
14946TIP3   OH266252   6.469   0.438   3.620 -0.2253  0.3096 -0.2417
14946TIP3    H166253   6.511   0.359   3.656  0.6383 -0.1447 -2.1308
14946TIP3    H266254   6.431   0.409   3.538 -0.6854  1.6792 -0.5263
14947TIP3   OH266255   0.559   3.115   3.121 -0.4199  0.1961  0.8247
14947TIP3    H166256   0.633   3.118   3.061 -0.6080  4.7121  0.4781
14947TIP3    H266257   0.593   3.146   3.204 -1.2329 -1.1651  1.7105
14948TIP3   OH266258   1.893   5.409  14.030  0.0927 -0.8678 -0.2066
14948TIP3    H166259   1.810   5.368  14.008  0.3267 -1.7271  0.4290
14948TIP3    H266260   1.955   5.376  13.965  0.2551 -1.4397  0.2323
14949TIP3   OH266261   2.550   3.916  16.771  0.1323 -0.4251 -0.2604
14949TIP3    H166262   2.565   3.823  16.754  0.6723 -0.1620 -1.3200
14949TIP3    H266263   2.458   3.921  16.797 -0.0390 -1.2031 -0.6862
14950TIP3   OH266264   2.906   4.340  15.195 -0.2141  0.2289 -1.0718
14950TIP3    H166265   2.949   4.321  15.278 -0.6709  2.5752 -0.2348
14950TIP3    H266266   2.959   4.408  15.155 -1.3778  0.9258 -1.4904
14951TIP3   OH266267   6.598   3.639   0.751  0.0930  0.2440  0.2935
14951TIP3    H166268   6.679   3.688   0.764  1.1143 -1.6326  1.5197
14951TIP3    H266269   6.535   3.680   0.811  0.1009  1.7017 -0.6493
14952TIP3   OH266270   5.184   0.445   2.637  0.3102 -0.3137  0.0441
14952TIP3    H166271   5.232   0.369   2.672  1.9763  1.0542  0.8840
14952TIP3    H266272   5.093   0.430   2.665  0.8373 -1.3596  1.3451
14953TIP3   OH266273   4.600   2.306   5.936 -0.7225 -1.0997  0.6015
14953TIP3    H166274   4.642   2.382   5.894 -3.5321 -0.4436 -1.2726
14953TIP3    H266275   4.578   2.337   6.024 -1.2974  0.1181  0.0599
14954TIP3   OH266276   3.651   3.480   3.954  0.1257  0.5546 -0.9425
14954TIP3    H166277   3.739   3.442   3.963  0.7916  1.9172 -1.3351
14954TIP3    H266278   3.659   3.566   3.995 -1.7380 -0.2400  1.2661
14955TIP3   OH266279   3.737   4.416   3.581 -0.3875 -0.2242 -0.1804
14955TIP3    H166280   3.688   4.498   3.574  0.1546  0.2107  0.8731
14955TIP3    H266281   3.791   4.414   3.502  0.0315  0.7506  0.0647
14956TIP3   OH266282   2.853   4.281   0.264 -0.0770  0.5217 -0.1062
14956TIP3    H166283   2.907   4.320   0.332 -1.2760  1.3243  0.4246
14956TIP3    H266284   2.775   4.338   0.259  0.1827  0.8036 -2.4973
14957TIP3   OH266285   0.664   1.813  10.613  0.3660  0.7940 -0.5076
14957TIP3    H166286   0.690   1.849  10.528  1.7782  0.9713 -0.0310
14957TIP3    H266287   0.745   1.812  10.664 -0.1129 -0.8259  0.3002
14958TIP3   OH266288   1.449   2.697   3.754 -0.5826  0.1500  0.3379
14958TIP3    H166289   1.436   2.607   3.726 -2.0778  0.4649 -0.0742
14958TIP3    H266290   1.401   2.749   3.689 -1.0991  1.1250  1.4788
14959TIP3   OH266291   2.418   3.271  14.411  0.2220 -0.0723  0.8928
14959TIP3    H166292   2.500   3.221  14.416  1.8393  2.3695  0.3586
14959TIP3    H266293   2.387   3.258  14.322  2.0513  1.8386 -0.1068
14960TIP3   OH266294   2.360   1.615  15.824  0.0876  0.6795 -0.0323
14960TIP3    H166295   2.271   1.598  15.855  0.3814 -0.0151  0.4516
14960TIP3    H266296   2.416   1.595  15.899  0.7968 -0.8559 -0.9243
14961TIP3   OH266297   0.613   0.997   5.596  0.5250  0.2725 -0.1035
14961TIP3    H166298   0.520   0.977   5.604  0.3121 -0.8318 -3.4991
14961TIP3    H266299   0.657   0.924   5.641 -0.2414  0.0376  0.2888
14962TIP3   OH266300   5.468   2.612  17.252  0.0016 -0.0292 -0.4241
14962TIP3    H166301   5.417   2.537  17.283 -0.9413  0.1335 -1.4944
14962TIP3    H266302   5.528   2.632  17.324 -2.2481  0.5117  1.4530
14963TIP3   OH266303   1.914   4.296   0.353 -0.6038  0.0449  0.2283
14963TIP3    H166304   1.821   4.282   0.369 -0.7698  2.2430  1.7245
14963TIP3    H266305   1.919   4.384   0.315  0.8004 -0.5373 -1.0506
14964TIP3   OH266306   0.205   3.903  14.187  0.1814  0.2633 -0.2890
14964TIP3    H166307   0.207   3.995  14.212 -0.9216  0.2621 -0.1877
14964TIP3    H266308   0.117   3.873  14.210  1.3414 -1.5711  2.3947
14965TIP3   OH266309   0.698   3.171  14.632 -0.4148 -0.3627  0.5489
14965TIP3    H166310   0.709   3.173  14.537 -0.9275  1.1895  0.4910
14965TIP3    H266311   0.785   3.191  14.667 -0.4494  0.1314  0.3653
14966TIP3   OH266312   2.561   5.630  17.177  0.4978 -0.0322  0.5280
14966TIP3    H166313   2.531   5.685  17.249 -1.0399 -2.6100  2.0024
14966TIP3    H266314   2.488   5.571  17.159  1.5885 -0.8112 -1.8015
14967TIP3   OH266315   1.777   5.404   5.030 -0.3387 -0.1584 -0.7066
14967TIP3    H166316   1.697   5.386   4.981 -0.6635  1.9784 -1.0634
14967TIP3    H266317   1.833   5.451   4.968 -0.0272  1.0075  0.4029
14968TIP3   OH266318   1.172   1.175  12.401  0.4482  0.1516 -0.8099
14968TIP3    H166319   1.172   1.232  12.478  2.0173 -0.9062  0.0247
14968TIP3    H266320   1.084   1.184  12.364 -0.6196  0.1044  1.5420
14969TIP3   OH266321   5.270   6.259   5.390 -0.1778 -0.4088  0.2738
14969TIP3    H166322   5.242   6.181   5.438 -1.1803 -1.0877 -1.3194
14969TIP3    H266323   5.275   6.328   5.456 -2.1054 -1.1398  1.2606
14970TIP3   OH266324   0.271   1.707   5.247 -0.1474  0.4284 -0.4981
14970TIP3    H166325   0.307   1.621   5.226  2.3155  0.8554  1.4482
14970TIP3    H266326   0.225   1.693   5.330 -0.1660  0.8914 -0.4304
14971TIP3   OH266327   4.067   2.074  13.511 -0.6097 -0.0794  0.3024
14971TIP3    H166328   4.115   2.024  13.446  1.7916  0.2502  1.7177
14971TIP3    H266329   4.073   2.022  13.591  0.1235  1.4368  1.2798
14972TIP3   OH266330   5.142   1.906   4.781  0.4486  0.6072  0.0227
14972TIP3    H166331   5.090   1.983   4.756  2.0450  0.9555 -2.5650
14972TIP3    H266332   5.203   1.939   4.846 -0.8921  0.7510  1.2636
14973TIP3   OH266333   3.523   5.999  11.544 -0.5133 -0.4994  0.4357
14973TIP3    H166334   3.480   6.076  11.507  0.0388 -0.5938 -0.4295
14973TIP3    H266335   3.479   5.985  11.628 -0.8002  0.5986  0.4843
14974TIP3   OH266336   1.975   1.610   5.621 -0.4904  0.4560 -0.0238
14974TIP3    H166337   1.926   1.584   5.543  0.2973 -0.4289 -0.2382
14974TIP3    H266338   2.056   1.648   5.587 -0.0916 -0.0430  0.3523
14975TIP3   OH266339   1.533   1.524  11.805  0.1908  0.1304  0.1566
14975TIP3    H166340   1.503   1.559  11.889 -1.0520  0.1421 -0.2652
14975TIP3    H266341   1.603   1.463  11.828 -0.0849  0.1875  1.2019
14976TIP3   OH266342   3.593   4.686   1.382  0.0092  0.1342 -0.0140
14976TIP3    H166343   3.503   4.661   1.362  0.1612  0.2886 -0.9534
14976TIP3    H266344   3.643   4.605   1.371  0.0125  0.0977  0.2843
14977TIP3   OH266345   4.685   2.748   5.852 -0.0589 -0.7533 -0.1921
14977TIP3    H166346   4.648   2.832   5.822  0.5884 -1.2142 -2.5357
14977TIP3    H266347   4.632   2.725   5.928 -2.1557  0.4155 -1.1790
14978TIP3   OH266348   6.687   6.297   1.637  0.1736  0.0806  0.2729
14978TIP3    H166349   6.631   6.235   1.684 -0.9562  0.2900 -0.7302
14978TIP3    H266350   6.654   6.295   1.547  0.1616  2.0758  0.1981
14979TIP3   OH266351   1.749   0.498  11.351  0.0192  0.9266 -0.1380
14979TIP3    H166352   1.703   0.533  11.275  0.2740  0.4102 -0.5403
14979TIP3    H266353   1.796   0.573  11.387  1.0080  0.9096 -1.3149
14980TIP3   OH266354   4.294   4.903  10.693  0.0762  0.2241  0.1632
14980TIP3    H166355   4.264   4.842  10.626  2.3191 -0.5532 -0.2316
14980TIP3    H266356   4.219   4.915  10.751 -0.9695 -1.5165 -0.7612
14981TIP3   OH266357   1.808   0.759   0.968  0.1933  0.3849 -0.1500
14981TIP3    H166358   1.790   0.693   1.035 -0.0790  2.6101  2.1501
14981TIP3    H266359   1.886   0.728   0.923 -0.0338 -1.5580  0.7001
14982TIP3   OH266360   2.024   0.237   2.947 -0.0337  0.3225 -0.0461
14982TIP3    H166361   2.102   0.281   2.981 -1.2401  0.3092  3.0556
14982TIP3    H266362   1.974   0.307   2.905 -1.2711  1.8757  3.6025
14983TIP3   OH266363   4.240   0.111   2.566 -0.0927 -0.2561 -0.6008
14983TIP3    H166364   4.203   0.040   2.619  1.0244  0.5917  1.4250
14983TIP3    H266365   4.239   0.187   2.624  1.1747  0.7479 -1.8316
14984TIP3   OH266366   5.808   6.171  12.679  0.0043  0.3708 -0.1234
14984TIP3    H166367   5.764   6.255  12.670  0.2008  0.2560 -4.7425
14984TIP3    H266368   5.738   6.106  12.669  0.0989 -0.0439  1.6449
14985TIP3   OH266369   4.176   5.870   4.994  0.1441  0.0841  0.2873
14985TIP3    H166370   4.138   5.955   4.972 -1.4463 -0.8569 -0.8037
14985TIP3    H266371   4.145   5.853   5.083 -3.6321 -1.3988 -1.1213
14986TIP3   OH266372   0.160   3.335   5.715  0.3043 -0.1169  0.9162
14986TIP3    H166373   0.197   3.347   5.802 -0.9685 -0.4952  1.5261
14986TIP3    H266374   0.146   3.240   5.707  0.0170 -0.0428  0.4716
14987TIP3   OH266375   5.329   6.158   3.850  0.5449 -0.5894 -0.2239
14987TIP3    H166376   5.382   6.206   3.787 -0.3212  0.2867 -0.3036
14987TIP3    H266377   5.329   6.213   3.928 -1.9747  0.5062 -0.9123
14988TIP3   OH266378   2.917   4.846   5.210 -0.4185 -0.3084  0.1174
14988TIP3    H166379   2.971   4.815   5.282 -0.6749  0.1266  0.4975
14988TIP3    H266380   2.977   4.852   5.136  0.3414  1.3508  0.8369
14989TIP3   OH266381   1.838   0.746   3.375 -0.0664  0.3259 -0.0829
14989TIP3    H166382   1.900   0.677   3.400 -1.1391 -1.6275 -2.3802
14989TIP3    H266383   1.808   0.782   3.459  2.2421 -0.3930  1.1484
14990TIP3   OH266384   1.359   1.730   0.486  0.1424  0.3151 -0.1886
14990TIP3    H166385   1.289   1.692   0.540  0.6843 -0.4919 -0.0337
14990TIP3    H266386   1.339   1.823   0.483  0.0598  0.3686  1.3455
14991TIP3   OH266387   6.577   0.463  17.207  0.4090  0.3203  0.0291
14991TIP3    H166388   6.581   0.509  17.123 -1.5237 -0.8312 -0.7840
14991TIP3    H266389   6.607   0.374  17.187 -0.8831 -0.2033  0.3198
14992TIP3   OH266390   1.308   3.321  11.358  0.1645 -0.0147 -0.1134
14992TIP3    H166391   1.253   3.395  11.382 -1.0920 -1.2753  0.9973
14992TIP3    H266392   1.300   3.315  11.263 -0.0438  1.0047 -0.1698
14993TIP3   OH266393   0.817   3.400  14.826  0.4197  0.4050 -0.3028
14993TIP3    H166394   0.766   3.328  14.863  2.1305 -1.0034 -0.5452
14993TIP3    H266395   0.804   3.473  14.887 -1.5095 -0.0118 -0.1509
14994TIP3   OH266396   2.975   3.745   3.531 -0.4680 -0.5113  0.1478
14994TIP3    H166397   2.974   3.701   3.616 -0.8732 -0.2905  0.2618
14994TIP3    H266398   2.990   3.837   3.553  0.4857 -0.5979 -0.0936
14995TIP3   OH266399   1.415   6.510   1.080 -0.5068 -0.7431  0.4157
14995TIP3    H166400   1.477   6.449   1.122  0.4990 -0.2930 -0.3817
14995TIP3    H266401   1.468   6.559   1.017 -1.5493  0.1292  0.1887
14996TIP3   OH266402   3.695   3.319  11.681  0.0660 -0.7507 -0.4265
14996TIP3    H166403   3.624   3.317  11.618  0.5870 -1.1394 -1.0094
14996TIP3    H266404   3.774   3.299  11.630  0.4684 -1.2754  0.3767
14997TIP3   OH266405   5.736   2.393  15.834 -0.4840 -0.0341  0.5064
14997TIP3    H166406   5.709   2.341  15.909 -0.9054 -0.1168  0.3015
14997TIP3    H266407   5.776   2.331  15.773 -2.2199 -0.3979 -0.3471
14998TIP3   OH266408   3.078   2.922  12.018 -0.0710  0.3805  0.0638
14998TIP3    H166409   3.068   3.017  12.019 -1.5788  0.2634  2.0780
14998TIP3    H266410   3.086   2.897  12.110 -0.9199 -1.5429 -0.3347
14999TIP3   OH266411   5.755   2.413   5.973  0.4718 -0.0038  0.2939
14999TIP3    H166412   5.705   2.362   6.036  0.2866 -0.7610 -0.4607
14999TIP3    H266413   5.743   2.368   5.889  2.1814 -0.0514  0.0393
15000TIP3   OH266414   0.640   3.130  13.346 -0.4736  0.4889  0.3702
15000TIP3    H166415   0.729   3.098  13.357 -0.3558  0.5535 -0.3490
15000TIP3    H266416   0.646   3.192  13.274 -1.1011  0.4823  0.3100
15001TIP3   OH266417   0.559   0.979   3.043 -0.0739 -0.2588 -0.1324
15001TIP3    H166418   0.528   0.902   3.091 -1.3933  0.5751  0.3977
15001TIP3    H266419   0.567   0.949   2.953  0.6636 -1.3432  0.2658
15002TIP3   OH266420   2.152   0.141   5.637  0.2582  0.5751  0.1598
15002TIP3    H166421   2.178   0.181   5.720  0.7730 -1.0898  0.8527
15002TIP3    H266422   2.152   0.047   5.655 -0.4865  0.2181 -1.4992
15003TIP3   OH266423   0.257   1.411   3.984  0.9554  0.1070  0.0902
15003TIP3    H166424   0.163   1.424   3.968  1.0048 -0.4571 -0.7301
15003TIP3    H266425   0.300   1.479   3.934  1.0040  0.0175  0.0097
15004TIP3   OH266426   5.906   4.378   3.041  0.0604 -0.2044 -0.1109
15004TIP3    H166427   5.970   4.428   3.091 -0.7142  1.7879 -1.0317
15004TIP3    H266428   5.827   4.377   3.095  0.3574 -1.3394  0.3401
15005TIP3   OH266429   0.635   0.843   3.717  0.1457  0.7019  0.0661
15005TIP3    H166430   0.583   0.862   3.795 -0.2134  0.4118 -0.0993
15005TIP3    H266431   0.684   0.764   3.740  1.6497  1.7865  0.7591
15006TIP3   OH266432   2.761   0.916  17.047  0.2870 -0.1405  0.6255
15006TIP3    H166433   2.736   0.847  16.985  0.9905  1.1787 -1.2147
15006TIP3    H266434   2.826   0.968  17.000  0.3469  1.3267  2.2442
15007TIP3   OH266435   2.444   0.882  15.117  0.0356 -0.1603 -0.2963
15007TIP3    H166436   2.409   0.938  15.186  0.5494  0.0297 -0.1827
15007TIP3    H266437   2.528   0.852  15.152  0.3982  0.1111 -0.9268
15008TIP3   OH266438   5.153   5.054   1.645  0.0313  0.1009 -0.0042
15008TIP3    H166439   5.158   5.118   1.716 -0.8861 -0.5153  0.6482
15008TIP3    H266440   5.086   4.992   1.674 -0.5462 -0.0323 -1.5223
15009TIP3   OH266441   0.604   1.367  14.486 -0.3852  0.5043  0.6481
15009TIP3    H166442   0.629   1.337  14.398  0.6091 -1.0819  1.4219
15009TIP3    H266443   0.622   1.461  14.485  0.3261  0.3842 -0.6193
15010TIP3   OH266444   0.792   1.534   3.399 -0.1464 -0.3125  0.3279
15010TIP3    H166445   0.789   1.572   3.487 -2.8900  1.7151 -0.5207
15010TIP3    H266446   0.704   1.548   3.364  0.7613 -1.3718 -2.6381
15011TIP3   OH266447   1.521   2.000  15.139 -0.0459 -0.2818 -0.1219
15011TIP3    H166448   1.577   1.925  15.120 -1.2789 -1.0537 -0.8459
15011TIP3    H266449   1.567   2.074  15.101  1.4358 -0.5458  1.0261
15012TIP3   OH266450   0.163   1.298   5.827  0.2536 -0.5189 -0.2977
15012TIP3    H166451   0.120   1.277   5.910  0.1555  0.7448 -0.0053
15012TIP3    H266452   0.091   1.311   5.766  0.3180 -1.1661 -0.5178
15013TIP3   OH266453   1.482   3.282  16.536 -0.0040 -0.5287  0.1337
15013TIP3    H166454   1.551   3.226  16.501 -1.1824 -1.4587 -0.7906
15013TIP3    H266455   1.405   3.226  16.540 -0.6412  0.3851  1.4825
15014TIP3   OH266456   0.607   1.151  16.936 -0.0464  0.4966  0.4137
15014TIP3    H166457   0.537   1.177  16.996 -2.0776 -0.8741 -1.2248
15014TIP3    H266458   0.614   1.056  16.948  2.6065  0.7216  1.5324
15015TIP3   OH266459   3.352   2.766   0.687 -0.2886 -0.3327  0.0295
15015TIP3    H166460   3.266   2.773   0.645 -0.2900  0.1766  0.1141
15015TIP3    H266461   3.360   2.845   0.739 -0.6155 -1.3164  1.6302
15016TIP3   OH266462   1.869   3.751  13.980  0.0034  0.1018 -0.4669
15016TIP3    H166463   1.780   3.716  13.988  0.5554 -1.2609  0.1236
15016TIP3    H266464   1.882   3.800  14.061 -0.7231  1.6165 -1.2326
15017TIP3   OH266465   5.703   4.084  14.535  0.5011 -0.6696 -0.5328
15017TIP3    H166466   5.731   4.048  14.619  0.1640  0.6312  0.1707
15017TIP3    H266467   5.781   4.083  14.480  0.9594 -0.6560  0.1174
15018TIP3   OH266468   2.454   1.759   3.481  0.1257 -0.7659 -0.2836
15018TIP3    H166469   2.536   1.722   3.449 -0.6437 -1.1142 -1.9499
15018TIP3    H266470   2.396   1.759   3.405 -1.1102  0.3961  0.6078
15019TIP3   OH266471   4.169   2.740   1.382 -0.2488  0.0395 -0.2285
15019TIP3    H166472   4.127   2.813   1.427 -1.1180 -1.2051  1.0942
15019TIP3    H266473   4.174   2.671   1.449  0.3804 -1.1622 -1.4697
15020TIP3   OH266474   3.540   4.402  16.118 -0.0634  0.6176  0.0386
15020TIP3    H166475   3.588   4.481  16.143 -0.2220  1.0435 -0.9928
15020TIP3    H266476   3.495   4.376  16.199 -1.8229  2.8606 -0.1302
15021TIP3   OH266477   0.523   0.233  12.532  0.2579 -0.1876  0.2834
15021TIP3    H166478   0.466   0.308  12.545 -0.2543 -0.8666  2.3718
15021TIP3    H266479   0.609   0.271  12.510 -0.7476  0.8525 -2.2728
15022TIP3   OH266480   4.253   6.290  11.939  0.0695 -0.0763  0.0809
15022TIP3    H166481   4.342   6.257  11.938 -0.2317 -0.8980  0.0554
15022TIP3    H266482   4.256   6.367  11.882  0.9190  0.3465  0.6735
15023TIP3   OH266483   1.195   5.298   2.043 -0.1707  0.2155 -0.1886
15023TIP3    H166484   1.227   5.375   2.089 -0.9201  0.2727  0.2525
15023TIP3    H266485   1.274   5.256   2.008  0.3398  0.5655  0.5304
15024TIP3   OH266486   4.382   2.233   2.667 -0.0081  0.0569  0.3478
15024TIP3    H166487   4.460   2.273   2.629 -0.5726  0.1608 -0.7288
15024TIP3    H266488   4.415   2.178   2.738  1.0432  0.0632 -0.1248
15025TIP3   OH266489   5.945   1.922  13.366 -0.3010 -0.3107  0.2671
15025TIP3    H166490   5.998   2.001  13.355 -0.6082  0.3297  2.6616
15025TIP3    H266491   6.007   1.850  13.361  0.3958  0.2663  0.4756
15026TIP3   OH266492   5.414   4.689  15.185  0.4433 -0.2795  0.3266
15026TIP3    H166493   5.495   4.735  15.208  0.6020  0.5655 -1.6634
15026TIP3    H266494   5.398   4.714  15.094 -0.0919 -3.3245 -0.5137
15027TIP3   OH266495   6.542   1.127  17.015  0.3604  0.2050 -0.2507
15027TIP3    H166496   6.518   1.209  17.057 -1.2043  0.0518 -0.7778
15027TIP3    H266497   6.477   1.116  16.945  2.9387  0.5479 -2.8984
15028TIP3   OH266498   5.828   4.755   2.129 -0.2539 -0.7878  0.5620
15028TIP3    H166499   5.767   4.762   2.057  0.7748 -0.9308 -0.3494
15028TIP3    H266500   5.782   4.703   2.195 -0.4568 -2.4606 -0.8331
15029TIP3   OH266501   2.474   5.426  11.543 -0.4091  0.2351  0.5815
15029TIP3    H166502   2.565   5.425  11.571  0.3135  1.1170 -1.4712
15029TIP3    H266503   2.464   5.511  11.499 -1.0503 -1.3217 -2.6145
15030TIP3   OH266504   1.650   6.749   3.979 -0.1619  0.6444  0.1122
15030TIP3    H166505   1.669   6.762   4.072  0.6457  0.2334  0.0209
15030TIP3    H266506   1.733   6.769   3.935 -0.5697  0.9461 -0.5327
15031TIP3   OH266507   5.892   2.373   3.056  0.6193  0.3994  0.7338
15031TIP3    H166508   5.892   2.334   2.969  0.1720 -0.6478  1.1823
15031TIP3    H266509   5.804   2.357   3.089  0.7740  0.8197  1.3612
15032TIP3   OH266510   5.737   4.604  14.152 -0.6254  0.1205 -0.2258
15032TIP3    H166511   5.681   4.574  14.224  2.4095 -0.2174  2.2037
15032TIP3    H266512   5.763   4.524  14.106 -0.2400  0.0165  0.1670
15033TIP3   OH266513   5.591   6.233  16.161  0.1939  0.5054  0.1997
15033TIP3    H166514   5.579   6.147  16.121 -0.0991  0.6686 -0.0638
15033TIP3    H266515   5.684   6.253  16.147  0.4391 -0.0920  0.9140
15034TIP3   OH266516   1.571   2.180  14.307  1.0253 -0.0570 -0.0007
15034TIP3    H166517   1.501   2.115  14.305  3.2122 -2.5863 -0.5959
15034TIP3    H266518   1.596   2.192  14.215  0.8118  1.5656  0.1110
15035TIP3   OH266519   2.836   6.365   5.047  0.2802  0.2787 -0.3503
15035TIP3    H166520   2.927   6.342   5.031  0.6702  0.6076  1.1960
15035TIP3    H266521   2.786   6.287   5.020  1.1277 -0.3551 -0.1242
15036TIP3   OH266522   5.332   2.357   2.898 -0.3106  0.4497  0.2697
15036TIP3    H166523   5.348   2.325   2.986  0.8752 -2.0987 -0.7689
15036TIP3    H266524   5.401   2.421   2.882  0.5239 -0.3404  0.6251
15037TIP3   OH266525   5.138   4.162   4.867 -0.3444 -0.5052  0.5879
15037TIP3    H166526   5.102   4.178   4.780  0.7897 -0.7884  0.0414
15037TIP3    H266527   5.068   4.185   4.927 -1.3305 -0.7935 -0.4177
15038TIP3   OH266528   3.797   4.753  12.622 -0.0943 -0.1379 -0.4273
15038TIP3    H166529   3.741   4.825  12.654  0.8824  0.6061 -0.3466
15038TIP3    H266530   3.861   4.741  12.692 -1.5346 -2.5962  0.5661
15039TIP3   OH266531   5.475   3.715   4.620 -0.5837  0.1555 -0.2204
15039TIP3    H166532   5.455   3.804   4.652 -1.4374 -0.4309  0.9794
15039TIP3    H266533   5.415   3.702   4.547 -0.3202  0.6302 -0.5299
15040TIP3   OH266534   0.793   4.641   1.319 -0.5804  0.0088  0.1769
15040TIP3    H166535   0.706   4.673   1.342 -0.0721 -0.3858  3.0529
15040TIP3    H266536   0.849   4.670   1.391  1.9517  1.1767 -2.0908
15041TIP3   OH266537   4.573   0.886   3.834  0.3394  0.2161 -0.3810
15041TIP3    H166538   4.495   0.879   3.890  0.1633  0.6979 -0.5589
15041TIP3    H266539   4.641   0.838   3.881 -0.0263 -0.0802 -0.1474
15042TIP3   OH266540   4.009   3.494  12.933 -0.0016  0.6399 -0.1729
15042TIP3    H166541   3.971   3.543  12.859  0.3814  1.2696  0.0431
15042TIP3    H266542   4.100   3.522  12.935 -0.4987  2.3635  1.9237
15043TIP3   OH266543   6.521   4.767  13.625  0.6807 -1.0376  0.0291
15043TIP3    H166544   6.450   4.830  13.639  1.8344  0.1965  0.5665
15043TIP3    H266545   6.494   4.717  13.548 -0.7703 -0.6337  0.2380
15044TIP3   OH266546   6.179   3.723   1.251 -0.1039  0.1423 -0.3872
15044TIP3    H166547   6.175   3.727   1.347 -0.2329 -1.7874 -0.2555
15044TIP3    H266548   6.197   3.812   1.223  0.9630  0.5630  1.4906
15045TIP3   OH266549   6.386   3.398   2.869 -0.7720 -0.2956  0.2284
15045TIP3    H166550   6.388   3.491   2.893  0.0877 -0.4595  0.8534
15045TIP3    H266551   6.469   3.363   2.902 -1.3888 -1.4411  0.6455
15046TIP3   OH266552   2.387   4.755  15.623  0.2679  0.9180 -0.6292
15046TIP3    H166553   2.332   4.784  15.695 -0.4612  0.8559 -1.1513
15046TIP3    H266554   2.359   4.665  15.606 -0.3339  1.2860 -1.6956
15047TIP3   OH266555   1.118   4.691  17.208  0.0118 -0.0885  0.1816
15047TIP3    H166556   1.038   4.676  17.258 -0.1619  1.5259  0.4458
15047TIP3    H266557   1.187   4.649  17.260 -0.3765  0.2997  1.0323
15048TIP3   OH266558   3.558   4.190   6.257 -0.0664  0.0088 -0.2302
15048TIP3    H166559   3.518   4.206   6.171 -0.1502  1.6322  0.0743
15048TIP3    H266560   3.489   4.147   6.308 -0.7759  0.9924 -0.3267
15049TIP3   OH266561   1.126   3.942   6.707 -0.2079  0.2500 -0.1070
15049TIP3    H166562   1.034   3.966   6.697  0.2020  1.3745 -1.4182
15049TIP3    H266563   1.142   3.879   6.636  0.6304  1.9767 -1.5279
15050TIP3   OH266564   1.573   0.421  13.531  0.3832 -0.6903  0.2442
15050TIP3    H166565   1.558   0.410  13.437  0.1045 -0.0368  0.2083
15050TIP3    H266566   1.662   0.389  13.545  1.4546  1.6323 -0.7081
15051TIP3   OH266567   1.898   0.797  11.737 -0.2878  0.8989 -0.4300
15051TIP3    H166568   1.948   0.872  11.770 -1.1516  0.6685  1.5482
15051TIP3    H266569   1.915   0.727  11.801  0.4853 -0.6334 -2.2002
15052TIP3   OH266570   6.384   3.284   3.833 -0.3577  0.5325 -0.0208
15052TIP3    H166571   6.469   3.330   3.834 -0.1693  0.2369 -0.9410
15052TIP3    H266572   6.329   3.335   3.893  0.5758  0.5036  0.8974
15053TIP3   OH266573   3.358   1.651  13.555 -0.3786  0.2527  0.2567
15053TIP3    H166574   3.363   1.588  13.627 -1.0957 -1.6373 -1.2742
15053TIP3    H266575   3.265   1.673  13.548 -0.2363  0.8832  0.2428
15054TIP3   OH266576   0.546   6.133   0.101  0.1853  0.0128  0.8942
15054TIP3    H166577   0.506   6.114   0.186 -0.0295  0.3620  0.8741
15054TIP3    H266578   0.624   6.184   0.122 -0.0313  0.3599  0.8688
15055TIP3   OH266579   0.958   1.283  11.222 -0.4406 -0.0820 -1.0085
15055TIP3    H166580   1.046   1.313  11.202 -0.2351 -0.8412 -1.2578
15055TIP3    H266581   0.942   1.315  11.311 -1.0290  2.5531 -1.9527
15056TIP3   OH266582   6.350   4.176   3.854  0.4037 -0.2647 -0.2324
15056TIP3    H166583   6.300   4.196   3.933  0.5047 -2.6464  0.5123
15056TIP3    H266584   6.441   4.199   3.876  0.5261 -1.4581  0.6088
15057TIP3   OH266585   5.732   6.228   2.163  0.9903 -0.2832 -0.3265
15057TIP3    H166586   5.814   6.277   2.170  0.8615 -0.0849 -0.2043
15057TIP3    H266587   5.754   6.140   2.192  0.8974  0.0597  0.8066
15058TIP3   OH266588   0.283   5.722  12.264  0.3661  0.2331  0.1842
15058TIP3    H166589   0.277   5.671  12.344  0.7985 -0.0567  0.0326
15058TIP3    H266590   0.214   5.687  12.207 -0.1169  0.6125  0.5149
15059TIP3   OH266591   2.332   3.719   1.391 -0.1384 -0.3494 -0.9243
15059TIP3    H166592   2.390   3.681   1.325  0.3438 -2.1051  0.4308
15059TIP3    H266593   2.285   3.644   1.427  1.0050  0.2410  2.0491
15060TIP3   OH266594   4.846   4.526  12.104  0.3601 -0.5632  0.0111
15060TIP3    H166595   4.874   4.565  12.187  1.1202 -0.9310 -0.0709
15060TIP3    H266596   4.776   4.466  12.128 -2.6834  2.5777 -0.0870
15061TIP3   OH266597   5.399   4.607   2.333 -0.3192  0.7479 -0.3881
15061TIP3    H166598   5.490   4.617   2.362 -0.7846  0.5965  1.2515
15061TIP3    H266599   5.401   4.534   2.272  0.2357 -1.5885  2.2038
15062TIP3   OH266600   1.746   0.978  11.591  0.2810 -0.1985 -0.6621
15062TIP3    H166601   1.704   0.898  11.561  0.2492 -0.2823 -0.3991
15062TIP3    H266602   1.818   0.948  11.647  0.7509 -0.0588 -1.1852
15063TIP3   OH266603   0.669   5.321  14.405  0.5864  0.2565  0.3887
15063TIP3    H166604   0.574   5.324  14.393  0.7476 -0.8156 -1.7553
15063TIP3    H266605   0.697   5.246  14.352  2.3477 -1.3011  3.3074
15064TIP3   OH266606   2.393   3.098  15.399  0.1870 -0.3133 -0.2400
15064TIP3    H166607   2.410   3.024  15.458 -1.8352 -0.7028 -0.0674
15064TIP3    H266608   2.380   3.173  15.458 -1.0380 -0.5388 -0.1897
15065TIP3   OH266609   4.704   0.924   3.295 -0.3188 -0.6774  0.3119
15065TIP3    H166610   4.649   0.869   3.349  0.9085 -1.6382  0.6191
15065TIP3    H266611   4.787   0.877   3.288  1.0967  1.4830  1.2984
15066TIP3   OH266612   0.400   6.575   2.969 -0.0334 -0.2677  0.0635
15066TIP3    H166613   0.439   6.488   2.978  3.0867  0.9585 -0.3031
15066TIP3    H266614   0.423   6.602   2.880  0.4980  1.5147  0.7043
15067TIP3   OH266615   1.570   0.313  13.289 -0.4916 -0.3022  0.2722
15067TIP3    H166616   1.517   0.279  13.217 -0.0932  0.2811 -0.3145
15067TIP3    H266617   1.630   0.375  13.247 -0.1726 -0.0413  1.0921
15068TIP3   OH266618   5.788   1.784  15.809 -0.2353  0.5629 -0.2028
15068TIP3    H166619   5.828   1.758  15.726 -0.7795  2.6734 -1.1662
15068TIP3    H266620   5.833   1.864  15.834 -1.3085  0.9282  0.6385
15069TIP3   OH266621   1.159   2.412  14.893  0.1471  0.3673 -0.5236
15069TIP3    H166622   1.129   2.321  14.894 -1.9572  0.9537  2.0937
15069TIP3    H266623   1.151   2.439  14.801 -1.8705 -1.3011 -0.9136
15070TIP3   OH266624   3.122   0.843   0.421  0.4368 -0.2204 -0.3121
15070TIP3    H166625   3.066   0.876   0.491 -1.0006 -2.4467 -0.3002
15070TIP3    H266626   3.177   0.777   0.462  0.4121 -0.7023 -1.0263
15071TIP3   OH266627   0.654   6.202  10.814 -0.4242 -0.2074 -0.3055
15071TIP3    H166628   0.673   6.249  10.896  1.2590 -1.0261 -0.1678
15071TIP3    H266629   0.565   6.170  10.825 -1.3689  2.2409 -0.0912
15072TIP3   OH266630   5.193   3.805   1.057  0.2571 -0.4442  0.2812
15072TIP3    H166631   5.250   3.792   1.133  0.5352 -2.0935 -0.1849
15072TIP3    H266632   5.243   3.771   0.983  0.5397  2.3094 -0.9215
15073TIP3   OH266633   6.742   2.428  11.988 -0.3398  0.1028 -0.2414
15073TIP3    H166634   6.766   2.476  11.908 -0.9522  0.4257 -0.2296
15073TIP3    H266635   6.754   2.336  11.964  0.4246  0.2300 -0.3950
15074TIP3   OH266636   3.846   2.990  16.991  0.0002  0.3363  0.2445
15074TIP3    H166637   3.939   2.971  16.975 -0.4119 -2.4743  0.7029
15074TIP3    H266638   3.818   3.035  16.911  1.6484  0.8807 -0.0755
15075TIP3   OH266639   3.937   2.463   3.885 -0.4875  0.3263  0.1477
15075TIP3    H166640   4.007   2.506   3.836 -1.4326  1.0821 -0.5860
15075TIP3    H266641   3.919   2.383   3.835  0.3905 -0.2827  0.7897
15076TIP3   OH266642   1.363   0.136  11.795 -0.1947  0.4923 -0.0105
15076TIP3    H166643   1.423   0.063  11.806 -1.5429 -0.6315  0.1835
15076TIP3    H266644   1.294   0.102  11.737 -0.8422  1.6133  0.0676
15077TIP3   OH266645   2.498   5.437  16.431 -0.0859  0.3495 -0.0179
15077TIP3    H166646   2.509   5.398  16.518 -0.3203  0.8364  0.2344
15077TIP3    H266647   2.518   5.366  16.370  1.4764  0.3721  0.4245
15078TIP3   OH266648   0.562   1.355   2.672 -0.3868  0.0349  0.1700
15078TIP3    H166649   0.468   1.343   2.658 -0.3718 -0.0124  0.1041
15078TIP3    H266650   0.600   1.270   2.648 -0.6066 -1.0477  3.1970
15079TIP3   OH266651   0.964   4.154  11.094 -0.4808  0.0022  0.0740
15079TIP3    H166652   0.931   4.064  11.087 -0.1228 -0.1501  0.3119
15079TIP3    H266653   0.959   4.189  11.005 -0.5811 -0.2674 -0.0272
15080TIP3   OH266654   2.768   5.662  16.933 -0.4969 -0.3119 -1.0344
15080TIP3    H166655   2.854   5.645  16.895 -1.0471 -0.3035 -2.3175
15080TIP3    H266656   2.731   5.730  16.878 -1.9139 -1.3374 -1.3869
15081TIP3   OH266657   0.499   3.316  13.793  0.1996  0.1571 -0.2969
15081TIP3    H166658   0.444   3.343  13.867 -1.8083  0.0685 -1.6817
15081TIP3    H266659   0.513   3.397  13.744 -2.4653 -0.4502 -2.2883
15082TIP3   OH266660   2.203   5.772   3.472  0.7529  0.6391 -0.4623
15082TIP3    H166661   2.109   5.790   3.468  0.7263  0.3087 -1.6865
15082TIP3    H266662   2.210   5.687   3.517  0.7780  2.5665  3.6936
15083TIP3   OH266663   6.035   6.252  14.014 -0.0117 -0.0363  0.3487
15083TIP3    H166664   6.063   6.212  14.096 -1.2610 -0.7969  0.4216
15083TIP3    H266665   5.984   6.328  14.041 -1.2073 -0.8091  0.3174
15084TIP3   OH266666   0.547   4.588   5.569 -0.5924  0.2920  0.8914
15084TIP3    H166667   0.466   4.639   5.577  0.3307  1.9324  0.2237
15084TIP3    H266668   0.611   4.634   5.623  0.6718  0.8141 -0.9208
15085TIP3   OH266669   6.427   6.705  11.777  0.2171  0.1964 -0.3510
15085TIP3    H166670   6.491   6.766  11.742 -0.5891  0.6019 -1.1671
15085TIP3    H266671   6.478   6.630  11.808  1.0277  0.1268 -1.7708
15086TIP3   OH266672   4.645   4.584   5.427 -0.1997  0.0427  0.2758
15086TIP3    H166673   4.624   4.530   5.503 -0.4556  0.7846  0.7313
15086TIP3    H266674   4.602   4.540   5.354 -0.5284 -0.2893  0.6664
15087TIP3   OH266675   5.511   2.186   5.141 -0.3238 -0.5583 -0.2898
15087TIP3    H166676   5.589   2.218   5.186  0.2536  0.2926 -1.8322
15087TIP3    H266677   5.492   2.102   5.183  2.5107 -1.7089 -1.0525
15088TIP3   OH266678   1.793   2.807   1.329 -0.4365  0.1713 -0.7180
15088TIP3    H166679   1.722   2.802   1.392  1.9974 -0.4740  2.1966
15088TIP3    H266680   1.826   2.717   1.323  1.3731  0.7665 -0.3723
15089TIP3   OH266681   2.722   0.912   0.494  0.0114  0.4751  0.0756
15089TIP3    H166682   2.772   0.955   0.425 -0.3257  1.5107  0.4590
15089TIP3    H266683   2.713   0.821   0.464  1.6699  0.3801 -0.2369
15090TIP3   OH266684   4.616   2.532   4.499 -0.4178 -0.1822 -0.2779
15090TIP3    H166685   4.575   2.454   4.536  1.1864 -0.2908  1.4206
15090TIP3    H266686   4.554   2.603   4.517 -1.0413 -0.7568 -0.1422
15091TIP3   OH266687   2.477   0.986   0.416  0.2940 -0.2591 -0.0993
15091TIP3    H166688   2.554   0.971   0.470  0.8833  1.0288 -0.5470
15091TIP3    H266689   2.501   1.058   0.358 -1.0712 -0.1673 -0.6057
15092TIP3   OH266690   4.890   6.311  14.108 -0.2685  0.2028 -0.0928
15092TIP3    H166691   4.814   6.370  14.113  0.8460  1.5683  2.1079
15092TIP3    H266692   4.851   6.223  14.109 -1.8620  0.8641  0.2819
15093TIP3   OH266693   0.940   4.158  14.251  0.2430  0.0209  0.0159
15093TIP3    H166694   0.905   4.166  14.163 -0.0444 -1.5824 -0.0404
15093TIP3    H266695   0.984   4.242  14.267 -0.3646  0.6252 -1.3379
15094TIP3   OH266696   5.550   4.728   4.496 -0.1915  0.1830 -0.3112
15094TIP3    H166697   5.617   4.685   4.549  0.8650  1.7172 -0.3215
15094TIP3    H266698   5.467   4.703   4.537  0.5229  0.1416  1.1640
15095TIP3   OH266699   4.575   0.888   1.878 -0.5713  0.0102 -0.3737
15095TIP3    H166700   4.515   0.875   1.952 -0.0244 -1.2267 -0.1190
15095TIP3    H266701   4.517   0.904   1.804 -1.1934 -0.2488  0.0417
15096TIP3   OH266702   1.839   5.001  14.943  0.2367  0.9502  0.0526
15096TIP3    H166703   1.851   5.012  15.037 -0.2495 -0.9886  0.3900
15096TIP3    H266704   1.925   4.976  14.910  0.0772  0.0676  0.2727
15097TIP3   OH266705   1.647   1.430  15.659  0.2829  0.3935  0.3496
15097TIP3    H166706   1.562   1.448  15.621  0.9170 -0.2004 -1.4165
15097TIP3    H266707   1.637   1.346  15.704  0.3715 -0.5793 -1.3807
15098TIP3   OH266708   3.723   0.268  16.924 -0.8606 -0.3163 -0.0928
15098TIP3    H166709   3.702   0.226  17.007 -0.8399  0.5741  0.3611
15098TIP3    H266710   3.639   0.278  16.880 -0.7030 -2.6366 -1.1081
15099TIP3   OH266711   3.412   1.947   6.584  0.4975  0.4522  0.1135
15099TIP3    H166712   3.487   1.888   6.586  0.8886  0.6088 -3.6932
15099TIP3    H266713   3.336   1.890   6.596  0.9843 -0.4839 -1.1082
15100TIP3   OH266714   2.219   3.372   0.473  0.5438 -0.3065  0.1396
15100TIP3    H166715   2.160   3.347   0.544  0.0847 -0.9561 -0.4485
15100TIP3    H266716   2.192   3.460   0.449 -0.7076 -0.8621 -0.6098
15101TIP3   OH266717   0.871   4.536  14.847  0.3730  0.1603 -0.5875
15101TIP3    H166718   0.891   4.552  14.939 -1.8863 -0.2555  0.0290
15101TIP3    H266719   0.776   4.540  14.842  0.4477  0.4259 -2.9775
15102TIP3   OH266720   0.620   3.625  14.427 -0.1205 -0.4379  0.6705
15102TIP3    H166721   0.664   3.701  14.466  1.9936 -0.8941 -0.6536
15102TIP3    H266722   0.540   3.661  14.390  0.9950  1.2783 -0.2374
15103TIP3   OH266723   2.816   5.653   5.687  0.1104  0.4484 -0.1082
15103TIP3    H166724   2.844   5.703   5.763  0.2124 -0.9968  0.8283
15103TIP3    H266725   2.772   5.717   5.631 -0.4431  1.4283  1.4026
15104TIP3   OH266726   5.676   3.986  12.184  0.2216  0.4673  0.0684
15104TIP3    H166727   5.732   4.054  12.147  1.2555  0.2746  1.2419
15104TIP3    H266728   5.693   3.909  12.131  0.4553  0.6268 -0.0909
15105TIP3   OH266729   5.531   1.874  16.921 -0.2811 -0.2600 -0.2517
15105TIP3    H166730   5.487   1.826  16.992  0.8671 -0.8781  0.0806
15105TIP3    H266731   5.576   1.946  16.965 -1.3499  0.6660 -0.6492
15106TIP3   OH266732   1.406   1.147   4.571  0.0063 -0.6114  0.1383
15106TIP3    H166733   1.318   1.178   4.591  0.4964  1.2985 -0.4272
15106TIP3    H266734   1.449   1.139   4.657 -0.3749 -0.4896  0.3427
15107TIP3   OH266735   5.990   5.056   0.697  0.6621 -0.2338 -0.1974
15107TIP3    H166736   5.999   5.144   0.733 -1.1896  0.1454 -0.5898
15107TIP3    H266737   5.988   5.069   0.602 -0.5560 -0.5869 -0.2304
15108TIP3   OH266738   4.534   4.768  14.339  0.2762 -0.2826  0.2156
15108TIP3    H166739   4.439   4.759  14.349  0.0730 -0.1684 -1.3948
15108TIP3    H266740   4.557   4.842  14.396 -0.6537 -0.0560  0.3133
15109TIP3   OH266741   2.285   4.291   0.926 -0.1056  1.1426  0.1843
15109TIP3    H166742   2.318   4.300   1.016 -0.0706 -0.9981  0.4399
15109TIP3    H266743   2.327   4.211   0.894  0.4614  2.2520 -2.0294
15110TIP3   OH266744   0.672   0.262   5.527 -0.6877  0.1424  0.5094
15110TIP3    H166745   0.672   0.334   5.464 -0.4170  0.7750  1.2030
15110TIP3    H266746   0.581   0.252   5.553 -0.8714 -0.4544 -0.3393
15111TIP3   OH266747   3.530   4.875  17.108 -0.3361  0.3792  0.7375
15111TIP3    H166748   3.436   4.860  17.096  0.3303 -2.3947 -2.2878
15111TIP3    H266749   3.555   4.931  17.034  0.6302 -0.1313  0.6652
15112TIP3   OH266750   0.252   5.546   5.325 -0.0404  0.0079  0.2039
15112TIP3    H166751   0.311   5.471   5.331 -1.7110 -1.2828  1.2241
15112TIP3    H266752   0.253   5.584   5.413 -0.2684  0.3464  0.0591
15113TIP3   OH266753   0.792   5.556   3.439 -0.4730  0.2642  0.0863
15113TIP3    H166754   0.714   5.591   3.398  0.3316  0.1052 -1.6859
15113TIP3    H266755   0.844   5.633   3.462 -0.1396  0.3388 -0.8644
15114TIP3   OH266756   4.069   5.444   6.197  0.5274  0.2032  0.0674
15114TIP3    H166757   4.004   5.470   6.261  1.0494  0.0995  0.6530
15114TIP3    H266758   4.100   5.527   6.159  0.7990  0.3194  0.5360
15115TIP3   OH266759   1.042   3.477  16.545 -0.4814  0.1922 -0.1327
15115TIP3    H166760   1.043   3.505  16.454 -1.6021 -0.8123 -0.4942
15115TIP3    H266761   1.049   3.381  16.541 -0.4068  0.1422  0.8416
15116TIP3   OH266762   6.550   2.467   2.562 -0.5036 -0.4986  0.2246
15116TIP3    H166763   6.470   2.497   2.606 -1.0795 -0.8463 -0.5636
15116TIP3    H266764   6.524   2.386   2.517  0.6596 -1.4159  1.1357
15117TIP3   OH266765   4.429   1.689  14.067  0.2211 -0.6738 -0.6483
15117TIP3    H166766   4.406   1.602  14.101  0.5175  0.0142  1.4496
15117TIP3    H266767   4.483   1.728  14.136  0.4936  1.0037 -1.7600
15118TIP3   OH266768   1.571   4.621  16.341  0.3855 -0.0486  0.1947
15118TIP3    H166769   1.524   4.582  16.267  0.7749 -1.1593  0.5030
15118TIP3    H266770   1.502   4.651  16.400  0.0719 -0.0281 -0.1779
15119TIP3   OH266771   0.159   1.789   4.972  0.5310 -0.0640 -0.2512
15119TIP3    H166772   0.153   1.884   4.968  2.4875  0.0915 -0.8083
15119TIP3    H266773   0.189   1.770   5.061 -1.8330 -0.3567  0.5416
15120TIP3   OH266774   6.450   0.250  14.506 -0.0358 -0.0327  0.2023
15120TIP3    H166775   6.403   0.260  14.589 -0.4740 -1.4113  0.1467
15120TIP3    H266776   6.538   0.221  14.531  0.5054  1.5441  0.2549
15121TIP3   OH266777   6.168   3.637   0.791  0.4576 -0.1408  0.3284
15121TIP3    H166778   6.154   3.566   0.854 -1.7190 -1.4605 -1.4681
15121TIP3    H266779   6.100   3.701   0.811 -0.4359 -0.7020 -0.7589
15122TIP3   OH266780   1.995   1.772  15.387 -0.3859  0.3526 -0.3247
15122TIP3    H166781   2.043   1.852  15.365 -1.1053  0.9891  0.3677
15122TIP3    H266782   2.062   1.704  15.388  0.2835  0.9869 -0.6822
15123TIP3   OH266783   1.346   5.003   3.803  0.6023 -0.3187  0.4793
15123TIP3    H166784   1.336   4.986   3.897  0.4584 -1.1331  0.3160
15123TIP3    H266785   1.311   5.092   3.792 -0.2042 -0.5515  1.0511
15124TIP3   OH266786   5.198   4.522  11.273  0.2641 -0.2058  0.5822
15124TIP3    H166787   5.278   4.526  11.221 -0.0995 -0.5245 -0.0154
15124TIP3    H266788   5.145   4.454  11.231 -1.4113  1.7003 -0.6223
15125TIP3   OH266789   0.509   5.971   4.450 -0.0957  0.3526 -0.2923
15125TIP3    H166790   0.557   5.994   4.370 -0.0917 -0.0843 -0.4133
15125TIP3    H266791   0.577   5.965   4.517 -0.3135  3.2474  0.3526
15126TIP3   OH266792   6.369   1.397   4.231 -0.2355  0.0801 -0.2679
15126TIP3    H166793   6.382   1.308   4.266 -1.0634  0.0542  0.0037
15126TIP3    H266794   6.390   1.455   4.304 -0.3092  0.0843 -0.2498
15127TIP3   OH266795   5.881   0.284  12.331  0.9121 -0.2439  0.4223
15127TIP3    H166796   5.957   0.299  12.387  1.7616 -2.4426 -0.0385
15127TIP3    H266797   5.913   0.304  12.242  0.7228 -0.4531  0.3068
15128TIP3   OH266798   2.783   1.617  10.371 -0.1900 -0.4684 -0.1010
15128TIP3    H166799   2.856   1.560  10.346  1.5635  1.3631  0.6185
15128TIP3    H266800   2.769   1.598  10.464  0.5642  0.3974  0.2046
15129TIP3   OH266801   0.857   5.557   1.521  0.6929 -0.4180  0.0279
15129TIP3    H166802   0.818   5.495   1.582 -0.2650 -0.9562 -1.0850
15129TIP3    H266803   0.924   5.507   1.475  0.6404 -0.3438 -0.1320
15130TIP3   OH266804   5.785   1.077  13.821  0.3709 -0.3511  0.0118
15130TIP3    H166805   5.813   1.142  13.756 -2.1395  1.0577  0.2130
15130TIP3    H266806   5.866   1.053  13.867  1.4944  2.3661 -0.3258
15131TIP3   OH266807   0.709   6.124   5.804 -0.4064 -0.2197 -0.0695
15131TIP3    H166808   0.745   6.211   5.820  1.3193 -0.5790 -1.6041
15131TIP3    H266809   0.625   6.124   5.849 -1.0827  2.6879 -1.1021
15132TIP3   OH266810   5.245   0.860   5.260  0.2297  0.2502  0.2610
15132TIP3    H166811   5.282   0.826   5.341  0.8654  0.7265  0.1734
15132TIP3    H266812   5.315   0.911   5.220 -0.4052  0.8921 -0.0725
15133TIP3   OH266813   5.606   4.149  14.255 -0.0877 -0.6099  0.3087
15133TIP3    H166814   5.561   4.133  14.172 -0.7091  0.1847  0.4794
15133TIP3    H266815   5.590   4.070  14.307 -2.1106  0.0188  0.7176
15134TIP3   OH266816   4.738   4.295  16.837 -0.5814 -0.4334  0.5134
15134TIP3    H166817   4.828   4.271  16.860 -0.2818  0.1287 -0.0500
15134TIP3    H266818   4.687   4.216  16.855  0.1536 -1.0248  0.0633
15135TIP3   OH266819   4.539   4.861   0.449 -0.1053 -0.9252  0.4833
15135TIP3    H166820   4.490   4.907   0.381 -0.8678 -2.2650  0.0871
15135TIP3    H266821   4.491   4.880   0.530  1.2544  1.3278  0.8552
15136TIP3   OH266822   5.000   4.022   5.513 -0.1477  0.4719 -0.1816
15136TIP3    H166823   5.041   4.108   5.509 -2.3735  1.5524 -1.4491
15136TIP3    H266824   4.911   4.038   5.541 -1.1495 -1.1644 -2.1102
15137TIP3   OH266825   1.420   5.499   2.561 -0.0021 -0.6836  0.7558
15137TIP3    H166826   1.389   5.588   2.541 -2.0961 -1.2628  1.1863
15137TIP3    H266827   1.497   5.513   2.616 -0.3025  0.8901  0.8380
15138TIP3   OH266828   0.360   6.459   1.355 -0.3163  0.5269  0.1659
15138TIP3    H166829   0.357   6.517   1.279 -0.3344 -1.7007 -1.6464
15138TIP3    H266830   0.269   6.444   1.378 -0.5420 -1.6501 -1.7939
15139TIP3   OH266831   1.978   1.532  16.546  0.2387 -0.2239  0.1866
15139TIP3    H166832   1.885   1.550  16.535  0.3518  0.0249 -0.4135
15139TIP3    H266833   1.982   1.461  16.610 -0.3281  0.2697  0.7788
15140TIP3   OH266834   3.592   1.840  13.285  0.0443  0.0385 -0.0698
15140TIP3    H166835   3.583   1.933  13.306 -0.8634 -0.0739  0.0826
15140TIP3    H266836   3.684   1.830  13.260 -0.0128  1.1015 -0.7547
15141TIP3   OH266837   2.046   1.961  13.501  0.1636  0.2767 -0.2061
15141TIP3    H166838   2.051   1.932  13.592 -1.0659  0.9102  0.0885
15141TIP3    H266839   1.963   1.925  13.469  0.4259  0.3378 -0.9770
15142TIP3   OH266840   4.880   3.768   3.606 -0.2621 -0.5166 -0.2939
15142TIP3    H166841   4.802   3.782   3.552 -0.8202 -0.1970  0.5704
15142TIP3    H266842   4.848   3.718   3.681  0.0531  0.9021  0.8208
15143TIP3   OH266843   5.948   1.632  13.154  0.7004 -0.1495 -0.2615
15143TIP3    H166844   5.854   1.628  13.138  0.5291  0.6106  0.4968
15143TIP3    H266845   5.986   1.656  13.070  0.3829 -1.9371 -0.9783
15144TIP3   OH266846   3.980   6.193   1.375 -0.0745  0.1126 -0.1495
15144TIP3    H166847   4.001   6.258   1.308  0.8186 -1.3176 -1.3203
15144TIP3    H266848   3.986   6.241   1.458 -0.8484  1.8381 -1.0304
15145TIP3   OH266849   3.455   3.092  11.181 -0.1998  0.1793 -0.1689
15145TIP3    H166850   3.521   3.082  11.249 -0.4191  0.3016  0.0663
15145TIP3    H266851   3.454   3.187  11.163 -1.3665  0.3990  0.9075
15146TIP3   OH266852   1.647   5.061  16.889  0.1799 -0.2038 -0.6387
15146TIP3    H166853   1.650   5.104  16.975 -0.1067 -0.5148 -0.4672
15146TIP3    H266854   1.579   4.994  16.899  1.0560 -1.1254 -0.6891
15147TIP3   OH266855   2.214   4.447  12.838 -0.1528  0.3671 -0.4147
15147TIP3    H166856   2.179   4.394  12.766  0.1142 -1.0017  0.4313
15147TIP3    H266857   2.286   4.497  12.798  0.5063 -0.9556 -0.9588
15148TIP3   OH266858   3.313   3.434  14.619  0.3262  0.1747  0.2420
15148TIP3    H166859   3.356   3.509  14.660 -0.6856  0.4193  0.8982
15148TIP3    H266860   3.324   3.448  14.525  0.5123  0.9350  0.3709
15149TIP3   OH266861   3.368   4.863  16.367 -0.7207  0.2407 -0.1787
15149TIP3    H166862   3.438   4.801  16.348 -0.1566  1.0583 -0.8254
15149TIP3    H266863   3.316   4.867  16.287 -2.1258 -1.1100  0.6163
15150TIP3   OH266864   6.639   5.819  16.090  0.2181 -0.1973  0.4172
15150TIP3    H166865   6.689   5.900  16.105  0.3652 -0.0938 -0.5533
15150TIP3    H266866   6.617   5.788  16.178  0.6113  0.6185  0.8187
15151TIP3   OH266867   5.103   2.550  14.458 -0.4189 -0.0838 -0.4009
15151TIP3    H166868   5.018   2.579  14.426 -1.5010 -1.5912  0.9113
15151TIP3    H266869   5.083   2.500  14.538  1.7872  0.3817  0.5287
15152TIP3   OH266870   1.122   6.421   1.181  0.4492  0.0352 -0.3349
15152TIP3    H166871   1.031   6.447   1.195  0.2257 -0.5747 -0.6385
15152TIP3    H266872   1.173   6.498   1.208 -0.1783  0.6159 -0.7686
15153TIP3   OH266873   1.149   1.660  13.576  0.1872 -0.3687  0.2575
15153TIP3    H166874   1.192   1.639  13.493 -2.6758  1.9057 -2.0519
15153TIP3    H266875   1.063   1.618  13.570 -0.0298 -0.2962  2.1738
15154TIP3   OH266876   4.172   1.750   3.528  0.2039  0.4264 -0.4519
15154TIP3    H166877   4.171   1.686   3.456 -1.3837  1.7662 -1.7069
15154TIP3    H266878   4.194   1.833   3.486 -2.0906  1.5037  0.2903
15155TIP3   OH266879   6.633   6.687  16.725 -0.2003  0.3632  0.4247
15155TIP3    H166880   6.554   6.647  16.764 -0.1148  0.7471  1.0046
15155TIP3    H266881   6.626   6.780  16.746  0.7268  0.3056  1.0478
15156TIP3   OH266882   6.270   0.111  13.494 -0.3299 -0.0143 -0.3726
15156TIP3    H166883   6.264   0.207  13.493 -0.0007  0.0211  0.3965
15156TIP3    H266884   6.363   0.094  13.508 -0.4278 -0.4428 -0.2522
15157TIP3   OH266885   4.831   2.645   5.449  0.4260  0.4786  0.7678
15157TIP3    H166886   4.792   2.693   5.521  1.2666  2.1269  0.1740
15157TIP3    H266887   4.925   2.655   5.462  0.6217 -0.6567  0.3669
15158TIP3   OH266888   5.679   0.034   3.098  0.4447  0.0684 -0.0600
15158TIP3    H166889   5.738   0.010   3.169  0.6564 -3.3054 -1.2419
15158TIP3    H266890   5.726   0.012   3.018 -0.7485  1.4472 -1.2074
15159TIP3   OH266891   3.840   3.718  16.634 -0.0842 -0.7531  0.0020
15159TIP3    H166892   3.772   3.658  16.664 -1.5078 -0.4127 -2.2655
15159TIP3    H266893   3.916   3.663  16.618 -0.3489 -1.4141  0.9629
15160TIP3   OH266894   1.163   6.630   0.374 -0.2610  0.2447 -0.0832
15160TIP3    H166895   1.191   6.695   0.310  0.2362  1.1093  0.9929
15160TIP3    H266896   1.097   6.578   0.328 -0.6053  1.4493 -0.9930
15161TIP3   OH266897   5.245   1.933   5.543  0.5880 -0.0682  0.4397
15161TIP3    H166898   5.186   1.990   5.495  0.2999 -0.5150  0.2577
15161TIP3    H266899   5.217   1.940   5.634  1.2531  0.9262  0.5925
15162TIP3   OH266900   4.442   1.739  16.192  0.6425  0.1394  0.2251
15162TIP3    H166901   4.379   1.701  16.253  0.2086  0.6876  0.1297
15162TIP3    H266902   4.511   1.674  16.185  1.2061  0.4778  2.0820
15163TIP3   OH266903   0.208   4.514   2.981  0.1406 -0.3940 -0.2381
15163TIP3    H166904   0.159   4.501   3.063 -1.1711 -1.4507 -1.1461
15163TIP3    H266905   0.244   4.603   2.989 -2.8029  0.8968  0.0817
15164TIP3   OH266906   0.417   6.066   1.191  0.3226 -0.2553 -0.3389
15164TIP3    H166907   0.485   6.125   1.223 -0.4027 -1.4494  4.0073
15164TIP3    H266908   0.466   5.991   1.156  1.2635  0.1514  0.0519
15165TIP3   OH266909   3.520   2.047  11.429 -0.3981 -0.0373 -0.1745
15165TIP3    H166910   3.520   1.989  11.505  1.0531  0.9407  0.6103
15165TIP3    H266911   3.438   2.097  11.437  0.0930  0.6000  1.2088
15166TIP3   OH266912   2.700   4.636  12.773 -0.2125  0.0975 -0.3487
15166TIP3    H166913   2.761   4.651  12.700 -0.5968 -0.7111 -0.8452
15166TIP3    H266914   2.720   4.707  12.835  0.5407  0.4368 -0.9550
15167TIP3   OH266915   5.593   0.907  10.797 -0.2445 -0.0010 -0.5103
15167TIP3    H166916   5.590   0.862  10.713 -0.5101  2.2390 -1.7527
15167TIP3    H266917   5.502   0.930  10.816 -0.0368  0.6098 -0.2309
15168TIP3   OH266918   5.605   1.600  12.875 -0.4181 -0.1918 -0.1493
15168TIP3    H166919   5.607   1.686  12.916  0.0954 -0.8550  1.2588
15168TIP3    H266920   5.635   1.540  12.943 -1.1452 -1.5412 -0.9793
15169TIP3   OH266921   5.348   3.255  16.714  0.1133  0.9380 -0.6214
15169TIP3    H166922   5.439   3.258  16.742 -0.1293 -1.3230  0.6365
15169TIP3    H266923   5.323   3.163  16.723 -2.4460  1.5774 -0.4464
15170TIP3   OH266924   3.976   0.036   2.000 -0.4694 -0.0098  0.0582
15170TIP3    H166925   3.907  -0.003   2.053 -1.0959 -0.4467 -1.0506
15170TIP3    H266926   3.940   0.119   1.968  0.2720  0.7438  1.0940
15171TIP3   OH266927   4.096   4.443  17.247 -0.7152  0.0355  0.0942
15171TIP3    H166928   4.173   4.497  17.228 -1.1113  0.8503  0.7378
15171TIP3    H266929   4.132   4.366  17.291 -0.1910 -0.0017 -0.3803
15172TIP3   OH266930   6.530   0.018  15.746 -0.2649 -0.2606 -0.3214
15172TIP3    H166931   6.531   0.063  15.661  0.7332 -0.0517 -0.2158
15172TIP3    H266932   6.527  -0.075  15.724 -1.3729 -0.1894 -0.5531
15173TIP3   OH266933   5.727   1.021  12.179  0.1220  0.3302 -0.3077
15173TIP3    H166934   5.719   1.050  12.270 -1.0938  1.1812 -0.6579
15173TIP3    H266935   5.696   1.096  12.128  2.0025  0.3448 -1.5023
15174TIP3   OH266936   5.104   1.045   0.225 -0.7422  0.8933  0.1322
15174TIP3    H166937   5.113   1.015   0.315 -0.1911 -1.2361 -0.5754
15174TIP3    H266938   5.036   0.989   0.188  1.8499 -1.2278 -1.8547
15175TIP3   OH266939   5.237   4.818   0.028 -0.2634  0.3133  0.3870
15175TIP3    H166940   5.175   4.752  -0.002 -0.0169 -0.3705  1.3350
15175TIP3    H266941   5.322   4.787  -0.004 -0.3391  1.0151 -0.5280
15176TIP3   OH266942   5.812   3.807   4.600 -0.6461 -0.4420  0.0263
15176TIP3    H166943   5.763   3.755   4.537 -1.2375 -0.5043  0.5213
15176TIP3    H266944   5.865   3.743   4.647  0.9463 -0.2253 -1.3866
15177TIP3   OH266945   0.427   5.130  14.950  0.3989  0.3476 -0.4919
15177TIP3    H166946   0.497   5.127  15.016  1.4671 -0.6006 -1.6161
15177TIP3    H266947   0.353   5.086  14.992  0.6937  0.7196  0.4569
15178TIP3   OH266948   6.344   4.491   4.572  1.0119 -0.0666  0.2469
15178TIP3    H166949   6.300   4.478   4.488  2.5132  1.9172 -0.9281
15178TIP3    H266950   6.380   4.405   4.594 -0.2640 -0.8531 -0.5892
15179TIP3   OH266951   1.275   4.257   5.150  0.1786  0.2018  0.1874
15179TIP3    H166952   1.199   4.272   5.207 -1.7634  2.5102 -2.7281
15179TIP3    H266953   1.346   4.305   5.192 -0.8614  0.8128  1.3249
15180TIP3   OH266954   1.783   1.301   3.648  0.3938  0.6321  0.0528
15180TIP3    H166955   1.747   1.213   3.632  1.8293  0.0183  0.0339
15180TIP3    H266956   1.736   1.357   3.586 -1.7488  0.2214  1.1906
15181TIP3   OH266957   5.438   4.318  16.141 -0.1815 -0.0437 -0.0095
15181TIP3    H166958   5.460   4.382  16.074  0.7350  2.4340  2.4430
15181TIP3    H266959   5.343   4.322  16.148 -0.1858  0.5382 -0.3647
15182TIP3   OH266960   3.645   0.240  14.777  0.1172  0.1225  0.3984
15182TIP3    H166961   3.679   0.183  14.708  0.4712  1.3607 -0.4930
15182TIP3    H266962   3.550   0.231  14.771  0.1724 -0.3840  0.2722
15183TIP3   OH266963   3.847   6.701   4.041  0.5103  0.2013 -0.6222
15183TIP3    H166964   3.772   6.641   4.041 -0.8221  1.7760 -1.6837
15183TIP3    H266965   3.887   6.690   4.128 -0.6753 -0.9936 -0.1932
15184TIP3   OH266966   4.442   1.081   6.065  0.6112 -0.1440 -0.6186
15184TIP3    H166967   4.523   1.119   6.030  0.8204 -0.1194 -0.1180
15184TIP3    H266968   4.433   1.119   6.152  2.4455 -3.3859  1.2156
15185TIP3   OH266969   3.256   0.954  17.071 -0.4652  0.5734  0.0831
15185TIP3    H166970   3.183   0.893  17.063  0.7450 -0.7609 -1.3443
15185TIP3    H266971   3.314   0.914  17.136 -1.2200  1.9285  1.6750
15186TIP3   OH266972   4.857   6.257  14.468 -0.2474 -0.4345 -0.8454
15186TIP3    H166973   4.917   6.225  14.400 -1.4841 -1.0002 -1.7027
15186TIP3    H266974   4.816   6.178  14.503 -0.5409 -0.0464 -0.3087
15187TIP3   OH266975   0.556   4.237  16.267 -0.4064  1.1929  0.2505
15187TIP3    H166976   0.605   4.259  16.188  0.2027 -0.2347  0.2013
15187TIP3    H266977   0.473   4.283  16.257  0.0355  1.8045 -0.7656
15188TIP3   OH266978   2.167   1.457  17.231 -0.5285  0.5858 -0.1881
15188TIP3    H166979   2.192   1.378  17.183 -3.9518 -1.0209  0.4092
15188TIP3    H266980   2.192   1.529  17.173  4.3664 -0.5825 -0.0413
15189TIP3   OH266981   2.264   4.828  15.171 -0.9470  0.2050 -0.2905
15189TIP3    H166982   2.316   4.748  15.181 -0.8020  0.2065 -1.0195
15189TIP3    H266983   2.199   4.823  15.241  1.4355  1.2943  2.1665
15190TIP3   OH266984   1.721   0.758   1.608  0.5802  0.4449 -0.3493
15190TIP3    H166985   1.662   0.704   1.555  0.3097  0.1477  0.2445
15190TIP3    H266986   1.688   0.847   1.596  0.6639  0.4129 -0.8584
15191TIP3   OH266987   4.658   3.456   4.035 -0.0647  0.1465 -0.1104
15191TIP3    H166988   4.735   3.413   4.072 -0.0502 -0.0212 -0.3321
15191TIP3    H266989   4.599   3.384   4.011  0.2020  0.2092 -1.0095
15192TIP3   OH266990   2.253   0.397  16.490 -0.1621 -0.0401  0.4384
15192TIP3    H166991   2.242   0.373  16.582  1.9837 -2.8887  0.0885
15192TIP3    H266992   2.216   0.324  16.441  0.6220  0.4377 -0.9327
15193TIP3   OH266993   0.544   2.592  15.568 -0.6051  0.3457  0.2639
15193TIP3    H166994   0.501   2.530  15.510 -0.7984  0.3946  0.3558
15193TIP3    H266995   0.473   2.643  15.606 -0.4352  0.8224 -0.0358
15194TIP3   OH266996   6.556   3.102  12.071  0.0593 -0.7701 -0.5624
15194TIP3    H166997   6.470   3.101  12.030  0.4115 -0.1433 -1.3515
15194TIP3    H266998   6.616   3.073  12.002  0.4443 -1.5536  0.0839
15195TIP3   OH266999   6.330   0.142   3.686  0.5241  0.0183 -0.1616
15195TIP3    H167000   6.380   0.215   3.723 -0.5378 -0.3228  2.1401
15195TIP3    H267001   6.356   0.066   3.739 -0.8145 -0.5979 -0.3409
15196TIP3   OH267002   3.413   0.610   3.791  0.2180  0.0279 -0.1081
15196TIP3    H167003   3.333   0.653   3.759 -0.3845 -0.4787  0.6740
15196TIP3    H267004   3.448   0.671   3.856  1.9419  1.4909 -2.2571
15197TIP3   OH267005   0.108   0.048  13.200 -0.1600  0.1418 -0.0599
15197TIP3    H167006   0.068  -0.011  13.136  1.0491 -0.3641 -0.3723
15197TIP3    H267007   0.128   0.127  13.150  1.3770 -0.4928 -0.4979
15198TIP3   OH267008   5.732   2.567   1.600  0.1759  0.4243 -0.3704
15198TIP3    H167009   5.657   2.520   1.636  0.8708  0.2073  0.8646
15198TIP3    H267010   5.712   2.578   1.508 -0.5105 -1.3566 -0.4703
15199TIP3   OH267011   4.649   3.181  11.039 -0.4042  0.2744 -0.3376
15199TIP3    H167012   4.622   3.197  10.949 -0.4879 -2.4257 -0.8716
15199TIP3    H267013   4.743   3.202  11.041 -0.8332  2.3592 -0.4541
15200TIP3   OH267014   6.371   2.341   3.602 -0.0657  0.1584  0.0423
15200TIP3    H167015   6.388   2.247   3.607  0.5967  0.2925  0.3658
15200TIP3    H267016   6.276   2.347   3.590 -0.3262 -0.5275  1.4697
15201TIP3   OH267017   6.758   0.258  13.041  0.0818 -0.4933 -0.5040
15201TIP3    H167018   6.752   0.336  12.986 -1.4714 -0.0798  0.1813
15201TIP3    H267019   6.670   0.248  13.077  1.0132 -0.7117  1.9289
15202TIP3   OH267020   1.417   3.559  16.560  0.4833  0.0052  0.5826
15202TIP3    H167021   1.352   3.533  16.625 -0.2093  0.0303 -0.0769
15202TIP3    H267022   1.457   3.477  16.532 -0.5258 -0.2222 -0.2837
15203TIP3   OH267023   4.891   5.620  13.259 -0.2548  0.1330  0.1201
15203TIP3    H167024   4.973   5.667  13.249  0.5229 -0.5878  2.4069
15203TIP3    H267025   4.904   5.538  13.210  0.5932 -0.1782  0.8399
15204TIP3   OH267026   1.245   2.992   3.890  0.2924  0.6587  0.2896
15204TIP3    H167027   1.292   3.067   3.925 -0.5525  0.9023  0.9227
15204TIP3    H267028   1.220   3.019   3.801  0.9737  0.6838  0.1004
15205TIP3   OH267029   3.193   0.230  11.560 -0.8656 -0.1393  0.7274
15205TIP3    H167030   3.164   0.221  11.469  0.2284 -0.5699  0.4055
15205TIP3    H267031   3.116   0.265  11.606 -1.4870 -0.0696 -0.3214
15206TIP3   OH267032   6.116   0.279  14.001 -0.2238 -0.3169 -0.3824
15206TIP3    H167033   6.067   0.336  13.942  0.6012  1.1673  0.3228
15206TIP3    H267034   6.055   0.258  14.071  0.1791  1.7894  0.6660
15207TIP3   OH267035   6.671   6.709   4.815 -0.3479 -0.3795 -0.7049
15207TIP3    H167036   6.708   6.770   4.879 -2.0569 -0.1473  0.1204
15207TIP3    H267037   6.667   6.758   4.734 -0.4045  0.1511 -0.3854
15208TIP3   OH267038   0.732   5.188   0.600 -0.0809  0.0976 -0.0026
15208TIP3    H167039   0.778   5.176   0.517 -1.4114 -2.7883 -0.4476
15208TIP3    H267040   0.802   5.195   0.665  1.0133 -0.7357 -1.0363
15209TIP3   OH267041   1.720   6.300   1.859  0.1952  0.5205  0.5604
15209TIP3    H167042   1.739   6.291   1.765 -1.2259 -0.7249  0.3471
15209TIP3    H267043   1.793   6.257   1.903  0.9202  1.1913  0.0504
15210TIP3   OH267044   2.729   4.546  14.923  0.4438 -0.2072 -0.1588
15210TIP3    H167045   2.699   4.571  14.836 -1.1736 -0.6996  0.2278
15210TIP3    H267046   2.822   4.525  14.911  0.6746  1.3382 -1.4155
15211TIP3   OH267047   2.941   4.066   4.309 -0.3409 -0.0311 -0.0015
15211TIP3    H167048   3.028   4.028   4.295 -0.2622  0.3381 -0.5404
15211TIP3    H267049   2.899   4.065   4.223 -1.1571 -0.8763  0.3918
15212TIP3   OH267050   4.312   3.630  14.141 -0.1645  0.0233  0.3032
15212TIP3    H167051   4.377   3.649  14.209 -0.2404  0.2403  0.3134
15212TIP3    H267052   4.276   3.545  14.166 -0.1035  0.0450  0.4649
15213TIP3   OH267053   2.464   5.754  16.039 -0.1670 -0.3629 -0.2294
15213TIP3    H167054   2.448   5.708  16.121 -0.1570  0.1505  0.0627
15213TIP3    H267055   2.541   5.809  16.056 -1.2640  1.1553  0.0092
15214TIP3   OH267056   4.272   6.459   1.761 -0.1081  0.2682  0.1197
15214TIP3    H167057   4.334   6.498   1.822 -0.3634 -1.1441  1.3522
15214TIP3    H267058   4.187   6.471   1.803 -0.5709  1.2446 -1.0510
15215TIP3   OH267059   2.883   0.417   0.474  0.2805  0.0771  0.0381
15215TIP3    H167060   2.891   0.447   0.384 -0.9473 -0.5549 -0.3079
15215TIP3    H267061   2.970   0.429   0.511  0.8188  0.3094 -1.2416
15216TIP3   OH267062   2.894   2.449   1.811 -0.2110 -0.3114  0.0480
15216TIP3    H167063   2.813   2.408   1.783 -0.9155  0.9076  0.2248
15216TIP3    H267064   2.885   2.541   1.784  1.4231 -0.3078 -0.5903
15217TIP3   OH267065   3.061   1.873  16.915  0.4383 -0.8288 -0.2153
15217TIP3    H167066   3.017   1.958  16.906  1.6475 -0.1154  0.3966
15217TIP3    H267067   2.989   1.809  16.920 -0.5205  0.2573  0.3194
15218TIP3   OH267068   3.760   0.123   3.831  0.2878 -0.3829  0.6776
15218TIP3    H167069   3.794   0.066   3.900  0.5776  0.5613  1.3315
15218TIP3    H267070   3.666   0.126   3.847  0.5757  1.7162  2.5690
15219TIP3   OH267071   3.665   2.462   5.019 -0.1134  0.3550  0.5176
15219TIP3    H167072   3.676   2.451   4.925  1.2160 -0.2251  0.7162
15219TIP3    H267073   3.708   2.545   5.039 -1.8138  1.2968  0.4016
15220TIP3   OH267074   0.189   5.948  12.446 -0.1488 -0.4769  0.3223
15220TIP3    H167075   0.262   5.904  12.404 -0.8907 -0.7634 -0.6884
15220TIP3    H267076   0.220   6.038  12.460  0.6291 -0.7707  0.5400
15221TIP3   OH267077   4.296   1.331   3.492 -0.1652  0.0179  0.0153
15221TIP3    H167078   4.331   1.274   3.424 -2.0164 -0.6689 -0.4135
15221TIP3    H267079   4.370   1.345   3.552  1.1612 -0.3410 -1.4687
15222TIP3   OH267080   4.600   2.540  13.819 -0.1006  0.1613  0.0782
15222TIP3    H167081   4.518   2.583  13.843  0.3196  0.8934  0.2549
15222TIP3    H267082   4.610   2.558  13.726 -0.6886 -0.8921 -0.2065
15223TIP3   OH267083   1.251   0.220   1.752  0.6773  0.3201 -0.2087
15223TIP3    H167084   1.185   0.156   1.779 -1.9255  2.2917 -1.4754
15223TIP3    H267085   1.276   0.264   1.833 -1.4482  1.1740  0.0455
15224TIP3   OH267086   6.531   5.839  12.979  0.0381 -0.6431  0.3140
15224TIP3    H167087   6.578   5.923  12.972 -0.4596 -0.1910  1.8782
15224TIP3    H267088   6.593   5.781  13.023  0.4823 -1.2082 -1.0118
15225TIP3   OH267089   0.100   4.096   4.109 -0.3381 -0.1011 -0.0816
15225TIP3    H167090   0.128   4.055   4.027 -1.4352 -0.3022 -0.3683
15225TIP3    H267091   0.106   4.190   4.091  1.5438 -0.1082  0.3595
15226TIP3   OH267092   6.555   4.369  12.764 -0.2163 -0.6798  0.4684
15226TIP3    H167093   6.541   4.300  12.828 -1.8451 -0.3652  0.4951
15226TIP3    H267094   6.522   4.448  12.806 -1.9398 -0.5751 -0.9495
15227TIP3   OH267095   4.324   0.846  13.050  0.0294  0.2233  0.2882
15227TIP3    H167096   4.363   0.790  13.117  1.2596  0.4235 -0.2453
15227TIP3    H267097   4.330   0.934  13.087 -2.5425  0.0103  1.4396
15228TIP3   OH267098   5.992   4.899  16.932 -0.5253 -0.3530  0.1402
15228TIP3    H167099   5.997   4.887  16.837 -0.7478  0.3318  0.0359
15228TIP3    H267100   5.975   4.812  16.967 -0.1687 -0.6524 -0.4273
15229TIP3   OH267101   4.571   4.988  12.775  0.0578 -0.1777  0.6599
15229TIP3    H167102   4.508   5.008  12.705 -0.7037  0.2667  1.4456
15229TIP3    H267103   4.518   4.945  12.842  0.1632  1.8378  2.1252
15230TIP3   OH267104   5.993   1.310  16.325 -0.3536 -0.3016 -0.4727
15230TIP3    H167105   6.034   1.340  16.406  0.3628 -1.9328 -0.1785
15230TIP3    H267106   5.913   1.362  16.317 -2.0855 -2.1149  2.9258
15231TIP3   OH267107   0.821   5.180  12.656 -0.2321 -0.2375  0.0761
15231TIP3    H167108   0.777   5.224  12.729  1.2547 -0.7351  1.3249
15231TIP3    H267109   0.881   5.245  12.621  0.7840 -0.7098  0.8748
15232TIP3   OH267110   5.991   5.946   4.590 -0.0042 -0.1340 -0.8312
15232TIP3    H167111   6.062   5.882   4.590  0.5571  0.4514  0.7101
15232TIP3    H267112   5.921   5.904   4.639  0.7557  0.7632  1.1615
15233TIP3   OH267113   4.211   4.794   4.332 -0.9254  0.2832 -0.4593
15233TIP3    H167114   4.164   4.837   4.260 -0.5522 -0.1916 -1.0004
15233TIP3    H267115   4.254   4.866   4.378  0.3116  0.4724 -1.8044
15234TIP3   OH267116   3.792   1.136  14.891 -0.2481  0.5357 -0.1162
15234TIP3    H167117   3.802   1.206  14.826 -1.3437  0.3456 -0.5146
15234TIP3    H267118   3.822   1.057  14.846 -0.3635  0.5189 -0.1652
15235TIP3   OH267119   0.298   0.250   2.983  0.2325 -0.0780 -0.2827
15235TIP3    H167120   0.322   0.269   2.893 -1.6313  0.0038 -0.7935
15235TIP3    H267121   0.330   0.326   3.033 -0.9199  1.0879 -1.2614
15236TIP3   OH267122   4.275   3.506  17.241  0.2604 -0.2648 -0.3390
15236TIP3    H167123   4.194   3.486  17.288  1.0713 -0.2120  1.1413
15236TIP3    H267124   4.335   3.435  17.264  0.8032 -0.0535 -1.0330
15237TIP3   OH267125   4.736   0.645  10.462 -0.2530  0.8085 -0.2372
15237TIP3    H167126   4.682   0.567  10.450  1.4865 -0.5530  0.3925
15237TIP3    H267127   4.691   0.713  10.412 -2.1265 -0.4243 -0.3470
15238TIP3   OH267128   6.035   1.427   2.498 -0.1318 -0.2536 -0.4465
15238TIP3    H167129   6.073   1.380   2.424 -2.3173  0.8454 -2.3881
15238TIP3    H267130   5.948   1.455   2.468 -0.9228  0.7274  2.3529
15239TIP3   OH267131   3.180   1.663   3.289 -0.3545  0.1769 -0.2370
15239TIP3    H167132   3.196   1.708   3.372 -0.9496  1.4919 -0.7994
15239TIP3    H267133   3.203   1.572   3.306  1.8456  0.8236  0.6943
15240TIP3   OH267134   5.123   2.762   5.452 -0.1159  0.6937 -0.3675
15240TIP3    H167135   5.163   2.702   5.389  0.1621  1.3810 -0.8679
15240TIP3    H267136   5.048   2.799   5.406  0.0866  1.1973 -0.3095
15241TIP3   OH267137   3.378   1.992  12.699 -0.5834 -0.2712 -0.1786
15241TIP3    H167138   3.367   2.079  12.737 -0.7071  0.3810 -1.6416
15241TIP3    H267139   3.469   1.969  12.718 -0.4819  0.2769  0.0141
15242TIP3   OH267140   2.758   3.265   1.963 -0.2029 -0.5434  0.3319
15242TIP3    H167141   2.843   3.285   2.002  0.7361 -0.5953 -1.5404
15242TIP3    H267142   2.779   3.226   1.878 -2.1105 -0.7566 -0.1014
15243TIP3   OH267143   1.178   1.748   4.800  0.1914 -0.9368 -0.3196
15243TIP3    H167144   1.228   1.815   4.846  1.0366  0.4701 -3.0712
15243TIP3    H267145   1.086   1.769   4.820  0.5056  0.0181  0.1656
15244TIP3   OH267146   4.346   1.613  15.217 -0.0863 -0.7143 -0.2481
15244TIP3    H167147   4.419   1.653  15.264  0.8427 -0.6353 -1.6777
15244TIP3    H267148   4.268   1.652  15.255  0.7422  2.0700 -1.1554
15245TIP3   OH267149   4.359   4.196   0.461  0.0861 -0.0922 -0.7731
15245TIP3    H167150   4.394   4.159   0.542  0.4671  0.2326 -0.7834
15245TIP3    H267151   4.284   4.141   0.439  0.2899 -0.4920 -0.4743
15246TIP3   OH267152   5.686   0.148   1.308 -0.4385  0.3499  0.5002
15246TIP3    H167153   5.763   0.197   1.281 -0.3831 -1.2396 -2.7065
15246TIP3    H267154   5.619   0.215   1.324  0.2715  1.6107 -1.4525
15247TIP3   OH267155   4.513   3.892   1.152 -0.1502 -0.0241 -0.2280
15247TIP3    H167156   4.509   3.957   1.081 -1.3039  1.5568  1.1901
15247TIP3    H267157   4.427   3.851   1.152 -0.9776  1.5355  1.5452
15248TIP3   OH267158   1.922   6.604   1.266  0.8678 -0.1158  0.7056
15248TIP3    H167159   1.956   6.514   1.261 -0.7054 -0.7478  0.7398
15248TIP3    H267160   1.967   6.642   1.341 -0.1527 -1.6907  2.2191
15249TIP3   OH267161   2.243   0.900   0.763  0.0575  0.0181 -0.6043
15249TIP3    H167162   2.235   0.981   0.813  0.2348 -0.2964 -0.0602
15249TIP3    H267163   2.332   0.901   0.729 -0.1396  0.3461 -1.1147
15250TIP3   OH267164   2.017   2.159   1.554  0.3774 -0.0205  0.2592
15250TIP3    H167165   1.984   2.231   1.501  1.1958  0.5639  0.5378
15250TIP3    H267166   2.012   2.191   1.644  0.1504 -0.5484  0.4375
15251TIP3   OH267167   0.210   5.026  14.670 -0.3993 -0.3067  0.1787
15251TIP3    H167168   0.165   5.006  14.587 -0.5719  0.6477  0.0260
15251TIP3    H267169   0.293   5.065  14.643 -0.7339  0.6109  0.4387
15252TIP3   OH267170   0.840   5.449  12.890 -0.1841  0.2729 -0.2180
15252TIP3    H167171   0.907   5.411  12.945 -0.3078  0.0394 -0.2275
15252TIP3    H267172   0.880   5.456  12.803  0.9859  3.1430  0.4227
15253TIP3   OH267173   1.555   1.797  15.533  0.4177  0.0102  0.0214
15253TIP3    H167174   1.533   1.729  15.470 -0.6714 -0.6349  1.0493
15253TIP3    H267175   1.644   1.775  15.561 -0.1899 -1.4973  0.9066
15254TIP3   OH267176   6.710   5.966   1.559 -0.4389  0.1748 -0.1074
15254TIP3    H167177   6.663   6.005   1.633 -0.2009  0.1127  0.0749
15254TIP3    H267178   6.726   5.876   1.585 -1.0141 -0.0634 -0.5442
15255TIP3   OH267179   0.106   0.604  12.110 -0.5821  0.0193 -0.0612
15255TIP3    H167180   0.055   0.649  12.043  0.0293  1.4244  0.3776
15255TIP3    H267181   0.163   0.672  12.146  2.6335 -1.7207 -1.4746
15256TIP3   OH267182   1.110   2.924  12.037  0.7661  0.0189  0.1675
15256TIP3    H167183   1.201   2.895  12.025  1.0503  0.4114  1.2544
15256TIP3    H267184   1.089   2.900  12.127 -0.5320 -0.9017 -0.3654
15257TIP3   OH267185   2.755   5.071   0.270 -0.1402 -0.1283 -0.1078
15257TIP3    H167186   2.664   5.061   0.243 -0.5479  1.8161  0.3798
15257TIP3    H267187   2.794   4.985   0.258 -1.7538 -0.7161 -1.3845
15258TIP3   OH267188   5.533   2.337   4.894  0.1791 -0.0768  0.4163
15258TIP3    H167189   5.557   2.293   4.976  0.6764 -0.3484  0.1313
15258TIP3    H267190   5.568   2.425   4.903 -0.0338 -0.0131  0.6214
15259TIP3   OH267191   4.947   3.806   5.883 -0.8370  0.8644 -0.4358
15259TIP3    H167192   4.866   3.805   5.935 -0.5683  1.3898  0.0043
15259TIP3    H267193   4.976   3.897   5.886 -0.7138  0.8720 -1.3606
15260TIP3   OH267194   4.513   3.710  14.403 -0.2474 -0.0619  0.0511
15260TIP3    H167195   4.517   3.805  14.394  0.3254  0.2192  2.5469
15260TIP3    H267196   4.429   3.693  14.445 -0.5773 -0.7362 -0.8392
15261TIP3   OH267197   3.739   1.605  17.339  0.2207 -0.4733  0.0450
15261TIP3    H167198   3.770   1.541  17.403 -0.6125  0.5754  1.5617
15261TIP3    H267199   3.819   1.645  17.306  0.7154 -1.7218 -0.3406
15262TIP3   OH267200   4.836   5.203  13.875 -0.0976  1.0993  0.4341
15262TIP3    H167201   4.873   5.249  13.950  1.2927  0.0095  0.4753
15262TIP3    H267202   4.796   5.271  13.822  2.1514  2.4521  0.3081
15263TIP3   OH267203   1.544   2.003   3.399  0.5568 -0.3727  0.4005
15263TIP3    H167204   1.570   1.969   3.313  1.4872 -3.0574  1.6457
15263TIP3    H267205   1.494   1.932   3.439 -0.2468  0.9945  1.9611
15264TIP3   OH267206   1.435   4.413  15.336  0.9340  0.1343  0.2707
15264TIP3    H167207   1.395   4.488  15.381 -0.1746  0.8765 -1.8026
15264TIP3    H267208   1.371   4.342  15.346  0.6889  0.2981 -0.1054
15265TIP3   OH267209   1.558   4.222  17.126 -0.1269 -0.2625  0.1785
15265TIP3    H167210   1.594   4.275  17.054 -0.3856 -0.2805  0.0321
15265TIP3    H267211   1.536   4.286  17.194  2.2624 -0.4543  1.1994
15266TIP3   OH267212   1.481   6.640  15.984 -0.2158  0.7968  0.4828
15266TIP3    H167213   1.455   6.666  16.073  0.5643 -1.1978  1.3602
15266TIP3    H267214   1.576   6.635  15.987 -0.2611 -0.7364 -0.0088
15267TIP3   OH267215   4.950   3.941  15.734 -0.1096 -0.2884  0.0750
15267TIP3    H167216   4.904   3.867  15.694  1.0147 -0.6652 -0.5606
15267TIP3    H267217   5.032   3.904  15.766  0.8336  0.7999 -0.9675
15268TIP3   OH267218   1.133   1.408  12.556  0.7989 -0.1858  0.3231
15268TIP3    H167219   1.044   1.443  12.568  1.0759  1.0895 -1.0907
15268TIP3    H267220   1.190   1.483  12.569  1.6486 -0.8309  0.4123
15269TIP3   OH267221   1.056   5.771  16.774  0.4871 -0.3910  0.3774
15269TIP3    H167222   1.146   5.803  16.767  1.4574 -3.0646 -0.4870
15269TIP3    H267223   1.047   5.709  16.701 -1.7507 -0.9110  1.0235
15270TIP3   OH267224   1.361   6.444  13.625 -0.3006  0.2188 -0.3730
15270TIP3    H167225   1.274   6.480  13.640  0.2496  2.1618 -1.4174
15270TIP3    H267226   1.419   6.520  13.631  1.1835 -0.8359 -0.8396
15271TIP3   OH267227   1.188   0.120  11.141 -0.0719 -0.9143  0.1441
15271TIP3    H167228   1.211   0.049  11.081 -1.5138 -0.3316 -1.1641
15271TIP3    H267229   1.110   0.089  11.187 -0.4155 -0.3979 -0.0733
15272TIP3   OH267230   1.200   4.631  16.935  0.1909 -0.2741  0.0963
15272TIP3    H167231   1.107   4.612  16.923  0.0691  0.4665 -0.1881
15272TIP3    H267232   1.210   4.643  17.029  0.0313 -0.5183  0.1456
15273TIP3   OH267233   0.622   3.920  12.420  0.5368 -0.0033  0.2081
15273TIP3    H167234   0.664   3.932  12.505  0.7449  1.7389 -0.1017
15273TIP3    H267235   0.677   3.970  12.359 -0.8351  0.6249 -0.5489
15274TIP3   OH267236   0.008   2.841  12.547  0.3426 -0.0304 -0.0582
15274TIP3    H167237   0.078   2.780  12.524 -1.2785 -1.8063 -0.5351
15274TIP3    H267238  -0.050   2.791  12.604 -0.7837  1.2620 -0.0126
15275TIP3   OH267239   6.574   2.594   4.554  0.3644 -0.2595 -0.6864
15275TIP3    H167240   6.522   2.549   4.620 -0.3347  1.0153 -0.3498
15275TIP3    H267241   6.525   2.580   4.472  0.6049 -0.8218 -0.7407
15276TIP3   OH267242   1.750   0.763  12.406  0.3964 -0.0606  0.8559
15276TIP3    H167243   1.789   0.830  12.463  0.9650 -0.6935  1.2195
15276TIP3    H267244   1.690   0.812  12.350  0.5875  0.7179  1.3135
15277TIP3   OH267245   0.803   2.319   2.366  0.1795  0.5416 -0.2387
15277TIP3    H167246   0.764   2.402   2.393 -1.6491  0.0834 -1.2391
15277TIP3    H267247   0.804   2.265   2.445  1.6868  1.5998  0.4903
15278TIP3   OH267248   2.115   4.821   3.153 -0.4880  0.0240 -0.0122
15278TIP3    H167249   2.197   4.870   3.157  0.0223 -0.5897 -1.8230
15278TIP3    H267250   2.134   4.737   3.194 -0.3375  0.0403 -0.0502
15279TIP3   OH267251   6.729   6.634   0.128 -0.3483 -0.0401  0.6619
15279TIP3    H167252   6.745   6.668   0.216 -1.8189  0.5935  0.7144
15279TIP3    H267253   6.708   6.711   0.075  2.7851 -0.1070 -0.8661
15280TIP3   OH267254   4.524   2.481   0.236  0.3504  0.0970  0.1475
15280TIP3    H167255   4.506   2.550   0.172 -0.5860  0.0377  0.3298
15280TIP3    H267256   4.468   2.504   0.311 -0.0971 -0.9427  0.1424
15281TIP3   OH267257   1.926   3.589  10.770  0.5068 -0.1046 -0.7215
15281TIP3    H167258   1.948   3.633  10.688 -0.8306 -1.0233 -1.6157
15281TIP3    H267259   1.977   3.508  10.769 -0.4769 -0.7378 -1.2980
15282TIP3   OH267260   5.398   0.992   1.126 -0.2732  0.3166 -0.2891
15282TIP3    H167261   5.310   1.000   1.090 -0.5863 -1.4082 -0.0174
15282TIP3    H267262   5.405   0.900   1.151  1.4049  0.5525  0.2405
15283TIP3   OH267263   5.519   5.139  11.115  0.5586 -0.5720 -0.3229
15283TIP3    H167264   5.547   5.075  11.181  1.5184  0.4177  0.2552
15283TIP3    H267265   5.543   5.224  11.152  1.9923 -0.0255 -2.3153
15284TIP3   OH267266   2.566   5.402  15.822 -0.3449 -0.4520  0.2750
15284TIP3    H167267   2.609   5.421  15.905 -0.1658  2.2800 -0.3594
15284TIP3    H267268   2.609   5.459  15.759 -1.9139 -0.8793 -1.2673
15285TIP3   OH267269   3.255   1.143  15.433  0.0775 -0.2719  0.2421
15285TIP3    H167270   3.349   1.158  15.428 -0.0862  0.4554 -0.9344
15285TIP3    H267271   3.220   1.224  15.471 -0.3496  0.6475 -2.0004
15286TIP3   OH267272   5.889   3.337   2.252 -0.0250  0.2654  0.5472
15286TIP3    H167273   5.808   3.386   2.267 -1.3467 -2.2786  2.5964
15286TIP3    H267274   5.954   3.384   2.305 -0.8736  0.6870  1.2609
15287TIP3   OH267275   4.292   0.232  13.273  0.3870  0.5902  0.3602
15287TIP3    H167276   4.302   0.137  13.266  1.3909  0.6817  0.3850
15287TIP3    H267277   4.256   0.245  13.361 -0.7629  0.1761 -0.0391
15288TIP3   OH267278   6.341   3.024  13.085 -0.3939  0.2209 -0.5306
15288TIP3    H167279   6.286   3.068  13.020 -0.3696  0.2784 -0.5120
15288TIP3    H267280   6.281   3.003  13.157 -0.2050  1.1206 -0.1032
15289TIP3   OH267281   1.345   2.181   5.567 -0.1948 -0.5467  0.3898
15289TIP3    H167282   1.395   2.248   5.614 -0.4089 -0.2710  0.2204
15289TIP3    H267283   1.409   2.111   5.551  0.2333 -0.0346 -0.1635
15290TIP3   OH267284   1.778   5.115   2.962  0.0224  0.3156  0.2519
15290TIP3    H167285   1.861   5.076   2.937 -0.9106 -1.2009 -0.6417
15290TIP3    H267286   1.751   5.065   3.040 -1.4636 -1.3497 -1.2440
15291TIP3   OH267287   1.665   5.244   0.104 -0.0731 -0.2089  0.1163
15291TIP3    H167288   1.652   5.324   0.155 -2.3303 -0.3496 -0.1468
15291TIP3    H267289   1.750   5.210   0.134  0.5109  1.7680  0.8919
15292TIP3   OH267290   0.689   2.652   1.723 -0.6623  0.6744  0.0147
15292TIP3    H167291   0.705   2.727   1.666 -0.1325 -1.0087 -2.2068
15292TIP3    H267292   0.776   2.629   1.757 -0.8672  1.2286  0.9276
15293TIP3   OH267293   4.888   0.930   4.316 -0.0869 -0.1264  0.3876
15293TIP3    H167294   4.844   1.014   4.298 -1.6357 -0.8936  0.4071
15293TIP3    H267295   4.904   0.893   4.230  0.5587  0.1613  0.3805
15294TIP3   OH267296   6.591   3.078   3.594  0.6799  0.2533  0.3182
15294TIP3    H167297   6.524   3.018   3.560  2.2240 -0.4090 -1.7600
15294TIP3    H267298   6.582   3.072   3.689 -1.2842 -0.8489  0.1278
15295TIP3   OH267299   1.864   2.969  16.037  0.9401 -0.6719 -0.4399
15295TIP3    H167300   1.800   2.937  16.101  1.7189 -1.0236  0.1703
15295TIP3    H267301   1.836   3.059  16.020  1.2759 -0.2326  1.1478
15296TIP3   OH267302   0.074   5.604  17.107  0.8101  0.2779  0.1833
15296TIP3    H167303   0.105   5.638  17.023  0.8529 -2.1063 -0.8767
15296TIP3    H267304   0.037   5.679  17.152  0.0419  1.5226 -2.3405
15297TIP3   OH267305   5.016   0.943  16.119 -0.2459  0.0962 -0.0552
15297TIP3    H167306   5.059   0.866  16.156  0.1566  0.0130 -0.6705
15297TIP3    H267307   4.945   0.963  16.180 -0.4435 -0.8419  0.0332
15298TIP3   OH267308   1.029   5.452  14.016 -0.2391 -0.2184 -0.3153
15298TIP3    H167309   0.933   5.449  14.017 -0.3469  1.7284  1.2028
15298TIP3    H267310   1.055   5.392  14.087 -0.3309 -0.5757 -0.5806
15299TIP3   OH267311   4.618   5.453   2.683 -0.1915  0.5952  0.0309
15299TIP3    H167312   4.591   5.544   2.695 -1.5126  0.4060 -1.2211
15299TIP3    H267313   4.538   5.407   2.657  0.4617 -0.9209  0.5765
15300TIP3   OH267314   3.735   2.980   0.893  0.1234 -0.2393 -0.3835
15300TIP3    H167315   3.763   2.930   0.970 -1.3322  0.1366  0.4353
15300TIP3    H267316   3.816   3.006   0.850  1.0052 -0.0372  1.3128
15301TIP3   OH267317   0.371   3.688  11.310 -0.0570 -0.0244  0.6609
15301TIP3    H167318   0.309   3.647  11.370  0.7787 -0.9316  0.9245
15301TIP3    H267319   0.332   3.678  11.223 -0.3946 -0.3518  0.8519
15302TIP3   OH267320   2.070   1.366  15.094  0.0170  0.0320 -0.3828
15302TIP3    H167321   2.064   1.286  15.041  0.7642 -0.1259 -0.2371
15302TIP3    H267322   2.161   1.369  15.122 -0.0573  0.8296 -0.2117
15303TIP3   OH267323   2.107   1.743   0.024  0.3369  0.2474  0.1018
15303TIP3    H167324   2.192   1.777  -0.005  1.7480 -3.6859 -0.8927
15303TIP3    H267325   2.127   1.684   0.096 -1.7930  0.3259  0.8505
15304TIP3   OH267326   2.971   0.325   2.309 -0.0627 -0.6671 -0.0250
15304TIP3    H167327   3.004   0.413   2.293 -1.1237 -0.4307 -1.0477
15304TIP3    H267328   2.997   0.305   2.399 -0.7385  1.1221  0.6165
15305TIP3   OH267329   1.219   2.555  12.518 -0.1681  0.0889  0.2471
15305TIP3    H167330   1.197   2.642  12.551  0.9606  0.0424  1.1752
15305TIP3    H267331   1.230   2.567  12.424  0.4903  1.0652  0.4342
15306TIP3   OH267332   3.200   4.639  15.467 -0.7785 -0.2669  0.3436
15306TIP3    H167333   3.132   4.589  15.420  0.8648 -1.2865 -1.0548
15306TIP3    H267334   3.254   4.573  15.509  0.8331  0.3341 -0.6897
15307TIP3   OH267335   0.391   0.353  15.291 -0.3062  0.3882 -0.4744
15307TIP3    H167336   0.404   0.317  15.204  1.9827  0.7155 -0.3244
15307TIP3    H267337   0.387   0.277  15.349  1.0162  0.2204 -0.5700
15308TIP3   OH267338   6.254   6.249  15.978  0.0657 -0.2035  0.3132
15308TIP3    H167339   6.273   6.164  16.019  0.8733  0.1940  0.7744
15308TIP3    H267340   6.206   6.226  15.898  0.1354 -1.0898  0.5119
15309TIP3   OH267341   1.327   2.408   4.551 -0.2237  0.2464  0.7176
15309TIP3    H167342   1.315   2.487   4.603 -0.6864  0.0275  0.9547
15309TIP3    H267343   1.240   2.367   4.550  0.1033 -0.4636  0.9393
15310TIP3   OH267344   3.111   2.388   4.782  0.3968 -0.3184  0.4557
15310TIP3    H167345   3.123   2.464   4.725 -0.2080 -1.6664 -1.5910
15310TIP3    H267346   3.180   2.395   4.847  1.0476  1.3676 -0.3570
15311TIP3   OH267347   5.606   6.647   4.806  0.3396 -0.4231  0.1777
15311TIP3    H167348   5.616   6.664   4.900  0.8244 -1.4936  0.3316
15311TIP3    H267349   5.575   6.730   4.770  0.8363  0.2109  1.1715
15312TIP3   OH267350   5.991   3.387   0.824  0.3409  0.2926 -0.0497
15312TIP3    H167351   5.966   3.421   0.739 -0.5691 -0.5461 -0.1397
15312TIP3    H267352   6.044   3.310   0.805 -1.6517 -1.2026  0.0632
15313TIP3   OH267353   3.282   5.683  12.753  0.0613  0.1576  0.6963
15313TIP3    H167354   3.200   5.668  12.707 -0.1033 -0.0760  1.0630
15313TIP3    H267355   3.261   5.669  12.845  0.6623 -0.5704  0.7327
15314TIP3   OH267356   2.733   3.494   6.528 -0.2770  0.3839 -0.1096
15314TIP3    H167357   2.745   3.481   6.623  1.6475  2.5861  0.0575
15314TIP3    H267358   2.730   3.405   6.492  1.3928 -0.5555  1.8063
15315TIP3   OH267359   3.196   6.421  14.084  0.3699  0.1114  0.2295
15315TIP3    H167360   3.222   6.513  14.092 -0.1288  0.1997  0.9856
15315TIP3    H267361   3.278   6.373  14.095  1.1913  0.4973 -3.2496
15316TIP3   OH267362   0.301   5.385  11.323 -0.4809  0.1043  0.3784
15316TIP3    H167363   0.270   5.303  11.284 -0.0909  0.0847  0.1006
15316TIP3    H267364   0.383   5.362  11.365  0.1732  0.5557 -0.6010
15317TIP3   OH267365   5.135   1.997  13.796 -0.1534  0.7919 -0.0170
15317TIP3    H167366   5.167   1.907  13.808  0.4796  1.2108  1.6614
15317TIP3    H267367   5.042   1.993  13.820  0.1570  0.8066  1.2319
15318TIP3   OH267368   6.408   5.337   1.142 -0.1456 -0.4190 -0.1908
15318TIP3    H167369   6.361   5.344   1.058 -1.1741 -0.9906  0.3246
15318TIP3    H267370   6.356   5.277   1.194  0.2105  0.3201  1.0546
15319TIP3   OH267371   4.024   4.321  12.204  0.1830  0.1242  0.0044
15319TIP3    H167372   4.095   4.256  12.197  0.8371  0.8884 -0.6675
15319TIP3    H267373   3.951   4.282  12.156  0.7708  0.1299 -0.9261
15320TIP3   OH267374   2.876   0.494   0.165 -0.4969 -0.0896 -0.1624
15320TIP3    H167375   2.932   0.438   0.111 -1.6961  0.0460 -1.5989
15320TIP3    H267376   2.788   0.480   0.132 -1.2221  0.3824  1.4593
15321TIP3   OH267377   0.281   6.428   4.128 -0.1629  0.1424  0.0149
15321TIP3    H167378   0.248   6.422   4.218 -1.0646  0.7706 -0.2693
15321TIP3    H267379   0.203   6.422   4.073  0.3084  0.5013 -0.7072
15322TIP3   OH267380   1.745   3.849   5.633  0.4233 -0.1690  0.0664
15322TIP3    H167381   1.824   3.826   5.681  0.2227 -0.9745  0.0121
15322TIP3    H267382   1.677   3.854   5.699  0.4889  0.4426  0.1000
15323TIP3   OH267383   3.958   1.132   0.736 -0.5680 -0.0057 -0.1674
15323TIP3    H167384   4.013   1.093   0.803 -1.2798 -2.5740 -0.9710
15323TIP3    H267385   3.872   1.092   0.749 -1.0305  0.3779 -1.8161
15324TIP3   OH267386   3.500   5.408   6.360  0.0262 -0.1343  0.8668
15324TIP3    H167387   3.530   5.430   6.272 -1.4309 -0.4535  0.2680
15324TIP3    H267388   3.448   5.484   6.387 -2.0817 -1.2533  0.1898
15325TIP3   OH267389   0.644   4.808   4.332  0.2333 -0.0572 -0.1042
15325TIP3    H167390   0.678   4.867   4.400  2.4205 -2.1577  0.7501
15325TIP3    H267391   0.597   4.740   4.381 -0.9701  0.1151 -0.9727
15326TIP3   OH267392   1.041   3.423   2.511  0.2521  0.3513  0.4243
15326TIP3    H167393   1.061   3.351   2.452 -0.0293  0.4814  0.1645
15326TIP3    H267394   1.005   3.491   2.454  1.0006  0.9014  0.5846
15327TIP3   OH267395   5.491   0.399   4.183  0.4065  0.5069  0.6237
15327TIP3    H167396   5.449   0.358   4.107  1.4095 -1.2574  0.9594
15327TIP3    H267397   5.561   0.453   4.145  0.3436  0.3206  0.2358
15328TIP3   OH267398   2.686   4.692  15.201  0.0463  0.0849  0.0415
15328TIP3    H167399   2.772   4.729  15.182 -0.3142 -0.0774 -2.2227
15328TIP3    H267400   2.694   4.600  15.176 -0.8645  0.1506 -0.5384
15329TIP3   OH267401   6.019   0.450   2.628  0.0425  0.0804  0.5097
15329TIP3    H167402   6.009   0.523   2.689  1.0336  0.6607  0.0063
15329TIP3    H267403   6.083   0.481   2.563 -2.0310  0.0555 -1.6848
15330TIP3   OH267404   1.784   2.679   3.146  0.9257 -0.1778 -0.0920
15330TIP3    H167405   1.805   2.771   3.131 -0.5712  0.2248  0.1181
15330TIP3    H267406   1.869   2.636   3.156  1.6272  1.2886  0.4686
15331TIP3   OH267407   1.492   2.392   4.346 -0.3086  0.1364 -0.0988
15331TIP3    H167408   1.431   2.404   4.419 -0.2923  1.4087 -0.2663
15331TIP3    H267409   1.456   2.444   4.275  0.1420 -0.3798 -0.7217
15332TIP3   OH267410   4.239   3.072  12.745 -0.2392 -0.2162 -0.2949
15332TIP3    H167411   4.333   3.083  12.731 -0.5437  2.0064 -0.8929
15332TIP3    H267412   4.229   2.979  12.765  2.1456 -0.3994  0.3542
15333TIP3   OH267413   0.313   6.094   4.869  0.1289  0.5045  0.1668
15333TIP3    H167414   0.239   6.078   4.811  1.1559 -0.1148 -1.0168
15333TIP3    H267415   0.388   6.103   4.811  1.2712 -0.5568  1.4052
15334TIP3   OH267416   6.317   1.167   4.420  0.2292 -0.0856  0.4045
15334TIP3    H167417   6.230   1.174   4.380  0.8063 -0.0502 -0.8631
15334TIP3    H267418   6.299   1.174   4.514 -1.0785  0.5750  0.1443
15335TIP3   OH267419   4.094   0.462   0.396  0.4523 -0.4836  0.3632
15335TIP3    H167420   4.162   0.525   0.375 -0.5562  0.4930 -0.1222
15335TIP3    H267421   4.092   0.402   0.321  2.2302 -1.9011  1.3577
15336TIP3   OH267422   6.027   2.195  13.317 -0.3460 -0.3078 -0.2668
15336TIP3    H167423   5.934   2.192  13.339 -0.1615  1.7214  1.1052
15336TIP3    H267424   6.059   2.275  13.359  1.6709 -0.0285 -2.1432
15337TIP3   OH267425   1.210   5.761   4.175  0.3389  0.3522 -0.2492
15337TIP3    H167426   1.302   5.759   4.202  0.3864 -0.4156 -0.4453
15337TIP3    H267427   1.161   5.775   4.256  0.4180 -2.9195  0.5316
15338TIP3   OH267428   1.036   1.417   0.720  0.0758  0.2212 -0.0406
15338TIP3    H167429   1.099   1.468   0.771  1.0843 -0.6142 -0.4437
15338TIP3    H267430   0.990   1.364   0.786  0.9674 -0.4174  0.0856
15339TIP3   OH267431   3.019   4.311   3.414 -0.0553 -0.5822 -0.0824
15339TIP3    H167432   3.023   4.264   3.330  0.6291  0.1916 -0.4980
15339TIP3    H267433   3.021   4.403   3.389  2.7262 -0.3020  0.8593
15340TIP3   OH267434   0.849   2.592  15.161  0.0824 -0.5179  0.3497
15340TIP3    H167435   0.920   2.528  15.152 -0.3920 -0.7928 -1.7541
15340TIP3    H267436   0.840   2.631  15.074 -1.2367  0.7363  1.0011
15341TIP3   OH267437   2.964   3.962  14.663  0.4411 -0.4356  0.1226
15341TIP3    H167438   3.021   4.034  14.690 -1.1774  1.4781 -1.2881
15341TIP3    H267439   2.887   3.970  14.719 -0.2881 -0.2470 -0.8781
15342TIP3   OH267440   1.356   6.318   2.343  0.3406  0.2841 -0.1250
15342TIP3    H167441   1.305   6.364   2.276 -1.0639 -0.9845  0.0088
15342TIP3    H267442   1.299   6.318   2.420  0.4378 -1.3108 -0.0103
15343TIP3   OH267443   3.445   0.178   4.544  0.0302  0.4075 -0.2112
15343TIP3    H167444   3.422   0.254   4.491 -1.5772  2.8580  3.5868
15343TIP3    H267445   3.464   0.213   4.630  1.2985 -3.3786  1.2682
15344TIP3   OH267446   6.666   2.606   4.204 -0.1356  0.5646  0.2374
15344TIP3    H167447   6.690   2.533   4.146  3.0331  0.4575  1.4568
15344TIP3    H267448   6.627   2.565   4.281 -0.3159  0.3418  0.0269
15345TIP3   OH267449   2.003   6.372  15.986 -0.1950  0.0118  0.0149
15345TIP3    H167450   1.947   6.399  16.058 -1.4844 -1.4132 -0.3961
15345TIP3    H267451   2.091   6.371  16.023 -0.6399  0.7064  1.1448
15346TIP3   OH267452   6.484   5.544  13.456  0.0377  0.3267 -0.3591
15346TIP3    H167453   6.520   5.459  13.480 -0.9154  0.3343  1.2609
15346TIP3    H267454   6.422   5.564  13.526 -1.5314  1.2709 -1.9370
15347TIP3   OH267455   1.620   4.851   2.195 -0.3550 -0.0054 -0.1209
15347TIP3    H167456   1.671   4.821   2.120  0.1191 -1.9719  0.9212
15347TIP3    H267457   1.532   4.865   2.161 -0.3107 -1.5258 -0.9438
15348TIP3   OH267458   3.094   1.187   0.204 -0.8533 -0.1273  0.5653
15348TIP3    H167459   3.088   1.271   0.159  1.0345 -0.2667 -0.0302
15348TIP3    H267460   3.061   1.124   0.140  1.1802 -0.2420 -0.4482
15349TIP3   OH267461   3.613   5.358  13.655  0.1396 -0.1752 -0.2321
15349TIP3    H167462   3.559   5.364  13.734  0.4306 -0.0080 -0.0404
15349TIP3    H267463   3.552   5.373  13.583  0.0986  1.0688  0.0294
15350TIP3   OH267464   3.691   5.370   1.146 -0.1455 -0.1908  0.0846
15350TIP3    H167465   3.622   5.319   1.189 -1.2144  0.5072 -0.7494
15350TIP3    H267466   3.703   5.446   1.203 -1.8745  0.9596 -1.0043
15351TIP3   OH267467   6.024   6.148  14.781  0.1606  0.1820  0.2870
15351TIP3    H167468   5.951   6.095  14.812  0.4956  0.2934  1.3019
15351TIP3    H267469   6.048   6.108  14.697  0.9061 -1.7850  1.3708
15352TIP3   OH267470   5.940   2.780  13.040 -0.4003 -0.3722  0.6273
15352TIP3    H167471   5.882   2.846  13.002  0.7898  0.3631  0.0143
15352TIP3    H267472   5.969   2.728  12.966  2.0064  1.1220  0.4057
15353TIP3   OH267473   5.442   6.650  15.946  0.0011  0.2265  0.0993
15353TIP3    H167474   5.427   6.721  16.009 -1.8882  0.3395 -0.4322
15353TIP3    H267475   5.385   6.579  15.975  0.2773 -0.2862 -0.6006
15354TIP3   OH267476   1.765   1.930   5.109  0.0355  0.4568  0.2110
15354TIP3    H167477   1.817   1.852   5.127  0.5294  1.0170  1.3547
15354TIP3    H267478   1.796   1.994   5.173  1.0351  2.2635 -1.9259
15355TIP3   OH267479   3.514   5.146   3.318 -0.0468  0.7691  0.3841
15355TIP3    H167480   3.419   5.156   3.315 -0.1014  0.2538  0.3551
15355TIP3    H267481   3.531   5.060   3.281  0.4036  0.6838  0.7747
15356TIP3   OH267482   5.616   2.951   5.072 -0.0168 -0.1995 -0.3626
15356TIP3    H167483   5.677   2.908   5.012  0.5420  0.5843 -0.3742
15356TIP3    H267484   5.651   2.932   5.159 -0.6132 -1.0178 -0.2969
15357TIP3   OH267485   5.149   1.442  14.209  0.7047 -0.7030 -0.3569
15357TIP3    H167486   5.110   1.401  14.286  0.7516  0.2626  0.1947
15357TIP3    H267487   5.074   1.460  14.151  0.4040  0.4521  0.3700
15358TIP3   OH267488   2.691   2.692   4.743  0.2326  0.4957 -0.4210
15358TIP3    H167489   2.652   2.760   4.797 -1.4730 -1.2070  0.5847
15358TIP3    H267490   2.744   2.641   4.804 -0.5169 -0.5560 -0.6336
15359TIP3   OH267491   6.473   1.592   2.280  0.5599 -0.1210 -0.6234
15359TIP3    H167492   6.440   1.679   2.258  1.1616  0.1990 -0.2856
15359TIP3    H267493   6.499   1.554   2.196  0.0064 -0.0990 -0.8087
15360TIP3   OH267494   5.641   5.465   0.844  0.2698  0.2131 -0.0416
15360TIP3    H167495   5.623   5.470   0.751 -2.1841 -1.4719  0.2475
15360TIP3    H267496   5.588   5.536   0.883  0.0382 -0.0823  0.1901
15361TIP3   OH267497   6.064   5.722   5.909 -0.0352 -0.5216  0.0982
15361TIP3    H167498   6.002   5.653   5.884 -0.4133 -0.6543  1.2981
15361TIP3    H267499   6.074   5.710   6.004  1.0136  0.1703  0.0808
15362TIP3   OH267500   3.147   1.474  13.745  0.0115  0.0814 -0.2260
15362TIP3    H167501   3.209   1.525  13.798 -1.3984  0.5692  1.0437
15362TIP3    H267502   3.162   1.383  13.770  1.0181  0.0679 -0.8346
15363TIP3   OH267503   3.636   1.929  13.000 -0.2077 -0.4417  0.1927
15363TIP3    H167504   3.657   1.928  12.907  1.2778  1.1564  0.4667
15363TIP3    H267505   3.562   1.869  13.008  1.0236 -2.3586 -1.6582
15364TIP3   OH267506   3.603   4.742  15.189  0.8665  0.2707 -0.5054
15364TIP3    H167507   3.627   4.779  15.104  0.7532 -0.6106 -0.9292
15364TIP3    H267508   3.651   4.795  15.253  0.0668  1.6926 -1.0235
15365TIP3   OH267509   3.826   5.642  12.954  0.9426 -0.3512 -0.2739
15365TIP3    H167510   3.758   5.646  12.888 -0.1849  1.9308  0.9209
15365TIP3    H267511   3.799   5.571  13.012 -0.7330  0.8038  0.4297
15366TIP3   OH267512   0.923   0.912  15.788 -0.2006  0.1989 -0.2525
15366TIP3    H167513   0.995   0.907  15.725  0.1366  1.4671 -0.0028
15366TIP3    H267514   0.953   0.862  15.864  0.3888  0.6565 -0.1818
15367TIP3   OH267515   4.950   1.493   3.825  0.6325 -0.0180  0.3203
15367TIP3    H167516   4.886   1.449   3.880 -0.6675  0.6889 -0.5653
15367TIP3    H267517   5.007   1.539   3.886 -0.1732 -0.0413  1.1110
15368TIP3   OH267518   1.493   5.127   3.198 -0.6731  0.2093  0.0179
15368TIP3    H167519   1.530   5.050   3.154  0.3980 -0.2074  1.5517
15368TIP3    H267520   1.449   5.092   3.276 -0.2716  1.1171  0.6763
15369TIP3   OH267521   6.574   1.170  13.235  0.5576  0.2356 -0.4442
15369TIP3    H167522   6.601   1.250  13.189  1.3969  0.0228 -0.3420
15369TIP3    H267523   6.541   1.113  13.166  1.3442  0.1110 -0.7367
15370TIP3   OH267524   4.958   2.976  14.068  0.0411  0.0236 -0.0497
15370TIP3    H167525   5.026   2.909  14.075 -1.0341 -1.2566 -1.1247
15370TIP3    H267526   4.975   3.035  14.141  1.2411 -1.2392  0.7551
15371TIP3   OH267527   4.391   5.443   6.027 -0.5076  0.3140  0.1199
15371TIP3    H167528   4.477   5.483   6.013  0.1440 -1.4301 -1.1925
15371TIP3    H267529   4.333   5.517   6.048  0.9480  1.7347 -0.6784
15372TIP3   OH267530   0.744   4.328   1.885 -0.0636  0.2716  0.0179
15372TIP3    H167531   0.740   4.262   1.816 -0.4242 -1.4947  1.6233
15372TIP3    H267532   0.663   4.378   1.875 -0.1625 -0.0234 -0.7512
15373TIP3   OH267533   0.705   2.352  14.501 -0.0612 -0.1590  0.7350
15373TIP3    H167534   0.711   2.429  14.557  1.0129  1.1557 -1.0746
15373TIP3    H267535   0.794   2.338  14.469 -0.3099 -1.9618  0.7498
15374TIP3   OH267536   3.283   2.915  10.844 -0.2307  0.1859 -0.5552
15374TIP3    H167537   3.338   2.899  10.767  1.4931  0.2501  0.6108
15374TIP3    H267538   3.341   2.904  10.918 -1.1366  2.7395  0.6843
15375TIP3   OH267539   4.579   5.182  11.785  0.1908  0.0728  0.6500
15375TIP3    H167540   4.633   5.162  11.861  1.8682  0.5538 -0.3491
15375TIP3    H267541   4.515   5.111  11.781  2.8808 -2.5032 -0.0198
15376TIP3   OH267542   0.409   5.532   4.046  0.7875  0.1661 -0.4282
15376TIP3    H167543   0.324   5.567   4.073  0.1097 -0.1958 -1.9571
15376TIP3    H267544   0.409   5.543   3.950  1.8927 -1.0834 -0.5850
15377TIP3   OH267545   0.113   6.170  14.449 -0.5153 -0.6090 -0.4862
15377TIP3    H167546   0.043   6.232  14.468 -0.8341 -1.0784 -0.1033
15377TIP3    H267547   0.177   6.220  14.399 -0.4263  0.2205  0.4495
15378TIP3   OH267548   6.064   4.222   6.533 -0.1803  0.1770  0.6296
15378TIP3    H167549   6.093   4.267   6.454 -3.0391  0.2868 -0.4820
15378TIP3    H267550   6.054   4.131   6.506  0.7708 -0.2058  1.4828
15379TIP3   OH267551   4.451   0.615  14.262 -0.5195  0.4937  0.1890
15379TIP3    H167552   4.387   0.647  14.326 -1.3892 -0.5717 -0.1236
15379TIP3    H267553   4.434   0.665  14.183 -0.1212  1.0897  0.4695
15380TIP3   OH267554   2.671   2.864  14.741  0.2908  0.0046 -0.6392
15380TIP3    H167555   2.636   2.905  14.819  0.7993  0.8526 -0.8391
15380TIP3    H267556   2.595   2.829  14.695  0.0957 -1.7284  0.8855
15381TIP3   OH267557   1.292   3.845   5.154  0.2862 -0.5371 -0.1635
15381TIP3    H167558   1.353   3.916   5.172 -0.7819  0.3149  0.2610
15381TIP3    H267559   1.342   3.765   5.170  0.9211  0.1395  1.4865
15382TIP3   OH267560   3.372   0.799  11.650  0.4080 -0.3042  0.2862
15382TIP3    H167561   3.467   0.787  11.654  0.2109 -1.7541  2.9937
15382TIP3    H267562   3.339   0.715  11.616  0.0864  0.8747 -2.6561
15383TIP3   OH267563   1.106   1.785  12.685  0.2708 -0.2541  0.2201
15383TIP3    H167564   1.017   1.779  12.722 -0.9023 -0.8859 -2.4602
15383TIP3    H267565   1.127   1.879  12.689 -1.0685  0.0898 -0.2551
15384TIP3   OH267566   0.145   6.580  11.545  0.2174 -0.2151 -0.1240
15384TIP3    H167567   0.159   6.673  11.562  0.4284 -0.3327  0.3653
15384TIP3    H267568   0.201   6.535  11.609 -1.9431 -0.6902  1.5800
15385TIP3   OH267569   5.334   6.547  13.924  0.6266 -0.7905  0.5415
15385TIP3    H167570   5.370   6.620  13.974  0.0655 -1.5431  2.1306
15385TIP3    H267571   5.267   6.509  13.981 -0.4733 -1.3502 -1.0471
15386TIP3   OH267572   6.230   4.456  12.748 -0.7722  0.6293  0.1494
15386TIP3    H167573   6.265   4.487  12.664 -2.7124  2.2054 -0.1540
15386TIP3    H267574   6.294   4.484  12.813 -0.5800  1.8449 -0.5436
15387TIP3   OH267575   0.279   2.624  16.654  0.3278 -0.7213 -0.1560
15387TIP3    H167576   0.322   2.685  16.594  0.0131 -0.3272  0.0144
15387TIP3    H267577   0.192   2.661  16.668  0.7236 -0.2721  1.3017
15388TIP3   OH267578   6.450   6.512  12.299  0.0343 -0.0891 -0.3864
15388TIP3    H167579   6.356   6.496  12.305  0.1325 -0.6501 -0.2725
15388TIP3    H267580   6.472   6.495  12.208  0.2161 -1.1018 -0.1723
15389TIP3   OH267581   4.930   2.883  13.286 -0.2692 -0.1362  0.1098
15389TIP3    H167582   4.994   2.822  13.250  1.7490  0.6180  2.2038
15389TIP3    H267583   4.854   2.828  13.306 -0.5881 -0.9781 -2.8378
15390TIP3   OH267584   0.374   1.927   1.174  0.0467 -0.1489 -0.1226
15390TIP3    H167585   0.299   1.869   1.189  0.6004 -1.1576 -1.1703
15390TIP3    H267586   0.388   1.969   1.259 -2.2768  0.7770 -0.1165
15391TIP3   OH267587   4.458   6.235  14.075  0.1970  0.0824 -0.1077
15391TIP3    H167588   4.526   6.268  14.016 -0.9871  0.0639 -1.5534
15391TIP3    H267589   4.449   6.143  14.053  0.8006 -0.3101  1.2104
15392TIP3   OH267590   5.013   4.468  14.386 -0.4734  0.2248  0.0108
15392TIP3    H167591   4.945   4.461  14.319 -0.8920 -0.1203  0.4649
15392TIP3    H267592   5.054   4.382  14.387 -0.2870  0.3133  0.0100
15393TIP3   OH267593   2.260   0.808   0.124 -0.4836  0.0078  0.3234
15393TIP3    H167594   2.318   0.813   0.200 -2.1279  0.1152  1.6498
15393TIP3    H267595   2.316   0.778   0.052  1.2260  0.3282  1.4600
15394TIP3   OH267596   4.377   6.407   5.207  0.3075  0.8563  0.0755
15394TIP3    H167597   4.411   6.456   5.283 -0.3187  0.7812  0.4083
15394TIP3    H267598   4.426   6.442   5.133  2.3469 -0.4273  0.7285
15395TIP3   OH267599   2.137   5.585   0.577 -0.0008 -0.6687  0.1402
15395TIP3    H167600   2.124   5.675   0.606 -2.1716 -0.6413 -0.6716
15395TIP3    H267601   2.166   5.538   0.655 -1.3756  0.2463  1.2481
15396TIP3   OH267602   0.125   2.039  13.963  0.0207  0.5671  0.3914
15396TIP3    H167603   0.209   2.067  13.928 -1.0948  2.6186 -0.8414
15396TIP3    H267604   0.128   2.065  14.055  0.8148  0.4015  0.4199
15397TIP3   OH267605   4.282   2.159   4.508 -0.1576  0.3341  0.1105
15397TIP3    H167606   4.258   2.090   4.570 -0.3612 -0.0955 -0.4280
15397TIP3    H267607   4.224   2.144   4.433  0.7910  0.1786 -0.6121
15398TIP3   OH267608   4.997   2.060  16.525  0.1732 -0.5707  0.0863
15398TIP3    H167609   5.036   2.075  16.611 -1.2099 -1.9456  1.0237
15398TIP3    H267610   4.918   2.008  16.543 -1.1105  0.5451 -1.8515
15399TIP3   OH267611   6.697   5.194   4.114 -0.0530  0.0033  0.1182
15399TIP3    H167612   6.748   5.140   4.175 -0.9262 -0.1420  0.7442
15399TIP3    H267613   6.646   5.252   4.171 -1.7840 -0.9380 -0.4135
15400TIP3   OH267614   1.457   2.196  17.154  0.2322 -0.2404 -0.4285
15400TIP3    H167615   1.509   2.239  17.223  2.1363 -0.5999 -1.5581
15400TIP3    H267616   1.366   2.216  17.177  0.9090  3.8356 -0.4850
15401TIP3   OH267617   5.101   4.106   4.289  0.5520 -0.0640 -0.3806
15401TIP3    H167618   5.187   4.145   4.305 -0.1737  1.0565  0.9804
15401TIP3    H267619   5.040   4.179   4.299 -0.6498 -1.0853 -0.1231
15402TIP3   OH267620   0.522   1.641  13.272  0.6426  0.1517 -0.0197
15402TIP3    H167621   0.482   1.657  13.187  1.3127  1.6540 -0.0938
15402TIP3    H267622   0.456   1.669  13.335  1.1091  1.5829 -0.1225
15403TIP3   OH267623   4.682   0.143   5.347 -0.0802  0.1731 -0.1650
15403TIP3    H167624   4.682   0.075   5.415  1.5964 -1.4739 -1.7117
15403TIP3    H267625   4.713   0.222   5.393 -1.6753 -0.1268  1.5767
15404TIP3   OH267626   5.070   3.650   1.641 -0.4093  0.0246  0.0956
15404TIP3    H167627   5.141   3.592   1.613 -0.7726 -0.6846  0.5907
15404TIP3    H267628   5.050   3.622   1.730 -0.8812  0.6386  0.1899
15405TIP3   OH267629   5.938   6.740  15.346  0.0249 -0.6882  0.0257
15405TIP3    H167630   5.902   6.672  15.404  0.5578  0.0221  1.2269
15405TIP3    H267631   5.950   6.816  15.403  1.5060 -0.2725 -0.7949
15406TIP3   OH267632   0.695   5.852   6.069 -0.3918  0.4695 -0.1965
15406TIP3    H167633   0.672   5.938   6.104 -1.7722  0.3624 -0.7921
15406TIP3    H267634   0.764   5.820   6.128 -0.8511  1.3726  0.8645
15407TIP3   OH267635   0.672   6.592  13.447  0.3683  0.0218 -0.0656
15407TIP3    H167636   0.669   6.657  13.518  1.9566  0.5828 -0.4625
15407TIP3    H267637   0.700   6.642  13.370 -1.7340 -0.4852 -1.2555
15408TIP3   OH267638   1.181   4.308  14.692  0.7114 -0.4864 -0.2029
15408TIP3    H167639   1.225   4.383  14.652  1.8747 -0.7725  0.5209
15408TIP3    H267640   1.156   4.339  14.779  0.1879 -0.5851 -0.3147
15409TIP3   OH267641   6.687   2.124  12.529 -0.6019  0.3132 -0.3676
15409TIP3    H167642   6.665   2.192  12.592 -1.4020  0.2103 -0.5345
15409TIP3    H267643   6.634   2.049  12.554 -0.2289 -0.0322 -0.5989
15410TIP3   OH267644   1.238   4.882  12.716  0.0751 -0.5076 -0.0560
15410TIP3    H167645   1.199   4.968  12.733 -0.1985 -0.4934 -0.7017
15410TIP3    H267646   1.191   4.821  12.772 -0.1533 -0.3279 -0.0551
15411TIP3   OH267647   2.440   2.941   2.324 -0.2299 -0.6549  0.1219
15411TIP3    H167648   2.384   2.995   2.269 -0.3090 -0.0199  0.8047
15411TIP3    H267649   2.529   2.968   2.302 -0.2912  0.8834  1.5163
15412TIP3   OH267650   1.267   0.298   2.664 -0.0528  0.1070  0.0337
15412TIP3    H167651   1.271   0.286   2.759 -1.7774 -2.1954 -0.0957
15412TIP3    H267652   1.332   0.237   2.629  0.6934  1.0654 -0.3062
15413TIP3   OH267653   0.886   0.439   5.662  0.6379  0.0422  1.0031
15413TIP3    H167654   0.805   0.389   5.663  0.6419  0.0155  0.3886
15413TIP3    H267655   0.936   0.402   5.590  0.4886  1.1729  0.3007
15414TIP3   OH267656   0.701   5.212   4.205 -0.4417  0.1680  0.1504
15414TIP3    H167657   0.760   5.203   4.131  1.2274  2.5567  1.0745
15414TIP3    H267658   0.626   5.156   4.183  0.2406  0.3280 -3.0088
15415TIP3   OH267659   0.940   0.787   3.645  0.4249 -0.0162 -0.2402
15415TIP3    H167660   1.026   0.828   3.640  1.3824 -1.7226  1.0073
15415TIP3    H267661   0.897   0.811   3.563  1.5469  1.9777 -0.3151
15416TIP3   OH267662   2.858   4.003   5.702 -0.0652 -0.2932  0.0637
15416TIP3    H167663   2.824   3.931   5.648 -1.4488  0.1354  0.3306
15416TIP3    H267664   2.867   3.965   5.789  0.1470 -0.4026 -0.0040
15417TIP3   OH267665   3.582   2.076   2.143  0.1504 -0.3926  0.8512
15417TIP3    H167666   3.634   2.007   2.102 -0.5147 -0.0082 -0.7204
15417TIP3    H267667   3.638   2.153   2.140 -0.4362  0.0190 -0.8319
15418TIP3   OH267668   3.715   2.576   3.270  0.0839  0.0071 -0.3128
15418TIP3    H167669   3.675   2.492   3.245 -0.9355  0.6892 -1.0939
15418TIP3    H267670   3.809   2.563   3.258 -0.0560 -1.0567 -0.3149
15419TIP3   OH267671   1.143   2.852  17.179  0.2707 -0.2151 -0.8948
15419TIP3    H167672   1.221   2.853  17.233 -1.3265 -0.2400  1.5779
15419TIP3    H267673   1.147   2.934  17.129  0.4201  1.3210  1.4821
15420TIP3   OH267674   6.220   4.765  13.860  0.5000 -0.6473 -0.1484
15420TIP3    H167675   6.256   4.823  13.793 -0.1896  1.1787  0.9896
15420TIP3    H267676   6.125   4.768  13.847  0.4570 -1.6546 -0.1593
15421TIP3   OH267677   3.534   4.394  13.847 -0.7079  0.2097 -0.0106
15421TIP3    H167678   3.580   4.479  13.845  0.1132 -0.2076  0.3965
15421TIP3    H267679   3.447   4.413  13.812 -0.7530  1.3501  0.6548
15422TIP3   OH267680   6.366   3.471  11.520 -0.0956 -0.7332 -0.3863
15422TIP3    H167681   6.308   3.448  11.447  0.8633 -2.9854 -0.5392
15422TIP3    H267682   6.364   3.393  11.576  0.2256  0.4391  1.3212
15423TIP3   OH267683   0.545   6.684  16.180  0.0289 -0.3777  0.0261
15423TIP3    H167684   0.469   6.627  16.167  0.2853 -0.7032 -0.0598
15423TIP3    H267685   0.545   6.703  16.274  0.4487 -1.2438  0.2069
15424TIP3   OH267686   1.731   4.304  11.360 -0.3484  0.1232  0.6463
15424TIP3    H167687   1.815   4.260  11.371  0.1604  0.6710 -0.8275
15424TIP3    H267688   1.751   4.397  11.370 -0.4033  0.4067 -1.4305
15425TIP3   OH267689   0.553   0.830  14.442 -0.2377  0.3674  0.6196
15425TIP3    H167690   0.531   0.741  14.413 -0.3549  0.3387  0.7987
15425TIP3    H267691   0.478   0.858  14.494  0.1873  0.2356  1.3087
15426TIP3   OH267692   2.916   1.169  11.122  0.6774 -0.3355 -0.2902
15426TIP3    H167693   2.943   1.091  11.073  0.6590  0.5940 -1.8272
15426TIP3    H267694   2.952   1.243  11.073 -1.0705  0.7412 -0.0470
15427TIP3   OH267695   3.111   4.118   2.231 -0.0487  0.1871 -0.0652
15427TIP3    H167696   3.024   4.133   2.195 -0.5138  0.0538  0.9586
15427TIP3    H267697   3.165   4.188   2.195 -0.5953  0.3127 -0.6550
15428TIP3   OH267698   5.716   2.083   3.271 -0.3936  0.0931 -0.2471
15428TIP3    H167699   5.788   2.038   3.316  1.0956  2.9019  0.3685
15428TIP3    H267700   5.731   2.064   3.179 -0.0112 -0.9159  0.0038
15429TIP3   OH267701   3.634   6.521   4.057  0.2980 -0.3543 -0.4135
15429TIP3    H167702   3.573   6.510   3.984 -0.9615 -4.0547  0.9564
15429TIP3    H267703   3.579   6.554   4.129  1.1785  1.6285 -0.5866
15430TIP3   OH267704   4.414   3.773  12.895  0.5290  0.0535  0.6526
15430TIP3    H167705   4.488   3.720  12.865  0.3538 -0.3621  0.9354
15430TIP3    H267706   4.454   3.838  12.954  0.7532  0.2813  0.2547
15431TIP3   OH267707   2.635   0.899  11.105 -0.4711 -0.0788 -0.3421
15431TIP3    H167708   2.624   0.979  11.052  1.4386  0.0674 -0.5618
15431TIP3    H267709   2.723   0.869  11.085 -0.8118 -1.7274  0.4932
15432TIP3   OH267710   2.273   6.719   1.663  0.0433 -0.6898  0.4230
15432TIP3    H167711   2.325   6.748   1.738 -0.5974 -0.9435  0.9694
15432TIP3    H267712   2.235   6.636   1.690 -2.6696  0.6276  1.0267
15433TIP3   OH267713   1.552   6.272   3.607  0.1537 -0.0274 -0.6614
15433TIP3    H167714   1.492   6.254   3.536  0.8481 -0.4175 -1.1524
15433TIP3    H267715   1.496   6.293   3.682 -0.5758  0.0217 -1.2216
15434TIP3   OH267716   6.756   2.695  16.750  0.1256 -0.7411  0.2456
15434TIP3    H167717   6.699   2.628  16.713  0.1056 -1.3146  1.2753
15434TIP3    H267718   6.722   2.710  16.838  0.8492 -0.2327  0.4473
15435TIP3   OH267719   3.450   3.899   2.684 -0.6933  0.3042 -0.3781
15435TIP3    H167720   3.542   3.917   2.700 -0.8713  1.0297 -0.1184
15435TIP3    H267721   3.429   3.950   2.606 -0.8450  0.0462 -0.5078
15436TIP3   OH267722   2.008   3.787  12.459 -0.2343  0.0996  0.0511
15436TIP3    H167723   1.928   3.746  12.428 -1.8062  2.3315  0.8842
15436TIP3    H267724   1.989   3.813  12.549  0.8448  2.0377 -0.2068
15437TIP3   OH267725   5.672   5.179   1.348  0.2965  0.1041 -0.6806
15437TIP3    H167726   5.670   5.173   1.253  1.4824 -2.4384 -0.6428
15437TIP3    H267727   5.763   5.199   1.369  0.3235 -0.6074 -0.0749
15438TIP3   OH267728   3.601   3.204  15.314  0.4623 -0.4984 -0.2550
15438TIP3    H167729   3.542   3.206  15.239 -1.7635  0.2000  1.4116
15438TIP3    H267730   3.608   3.295  15.342  3.5578 -0.3185 -1.1993
15439TIP3   OH267731   1.979   0.772   1.357 -0.3313  0.4658  0.4861
15439TIP3    H167732   1.935   0.693   1.324  1.0196  0.0240 -0.3504
15439TIP3    H267733   1.919   0.843   1.336 -0.0712  0.0607 -1.9308
15440TIP3   OH267734   5.402   1.739   2.906  1.0511 -0.3073  0.0590
15440TIP3    H167735   5.479   1.742   2.963  0.5515  0.5863  0.7089
15440TIP3    H267736   5.432   1.695   2.826  2.7274  1.6539 -0.4530
15441TIP3   OH267737   5.260   0.329  15.652 -0.7486 -0.1726  0.0744
15441TIP3    H167738   5.205   0.407  15.649 -1.6907 -0.8307 -0.4751
15441TIP3    H267739   5.318   0.342  15.727 -1.4531  0.6775  0.4819
15442TIP3   OH267740   6.140   4.768  15.902 -0.0013 -0.1024  0.3046
15442TIP3    H167741   6.139   4.859  15.932 -0.6232 -0.5633  1.7532
15442TIP3    H267742   6.220   4.762  15.849  1.5540  0.6031  2.4133
15443TIP3   OH267743   0.654   5.478   5.290  0.1109 -0.1876  0.5365
15443TIP3    H167744   0.559   5.482   5.278  0.2586 -0.3386 -0.9178
15443TIP3    H267745   0.688   5.472   5.201  1.4279 -1.4584  1.0914
15444TIP3   OH267746   1.353   0.425   1.914 -0.0531 -0.4643 -0.3010
15444TIP3    H167747   1.331   0.494   1.851 -2.2137 -1.1748 -0.4248
15444TIP3    H267748   1.419   0.464   1.971 -1.0436  1.6484 -0.4977
15445TIP3   OH267749   1.375   6.008   4.473 -0.2001 -0.5104 -0.3161
15445TIP3    H167750   1.339   6.091   4.441 -1.4488 -1.2042 -0.8014
15445TIP3    H267751   1.420   6.031   4.554 -2.3148  0.3489  0.7017
15446TIP3   OH267752   3.103   2.542   2.324 -0.0526  0.2478  0.0746
15446TIP3    H167753   3.198   2.530   2.318 -0.0747  0.5856 -1.1103
15446TIP3    H267754   3.070   2.516   2.238 -0.9326  1.0724  0.1472
15447TIP3   OH267755   1.217   0.391   3.735 -0.1356  0.1240  0.4326
15447TIP3    H167756   1.170   0.309   3.723 -0.2162  0.4195 -1.6210
15447TIP3    H267757   1.309   0.368   3.723 -0.1030  0.2250  0.4829
15448TIP3   OH267758   3.552   1.950  16.173  0.2247 -0.1379  0.0317
15448TIP3    H167759   3.628   2.007  16.178  0.4535 -0.4752  0.5138
15448TIP3    H267760   3.487   2.000  16.123  0.0957  0.9246  1.1997
15449TIP3   OH267761   3.625   2.951   5.006  0.0743  0.2821  0.0507
15449TIP3    H167762   3.596   3.017   5.069 -0.5218 -0.3212  0.4137
15449TIP3    H267763   3.565   2.959   4.933  1.2061  1.4829 -0.8003
15450TIP3   OH267764   4.316   3.815   2.112 -0.1441  0.4794 -0.5912
15450TIP3    H167765   4.288   3.895   2.156  0.0441  0.9740 -1.3614
15450TIP3    H267766   4.253   3.803   2.042 -1.3933 -1.1632  0.7054
15451TIP3   OH267767   0.702   2.183   3.535  0.1309 -0.0500 -0.1320
15451TIP3    H167768   0.740   2.127   3.602  0.0100 -0.5894 -0.5099
15451TIP3    H267769   0.769   2.186   3.466 -0.5645 -1.1604 -0.8871
15452TIP3   OH267770   6.734   3.282  17.067  0.1648 -0.4025  0.9057
15452TIP3    H167771   6.796   3.345  17.103  0.0340 -0.8257  1.8982
15452TIP3    H267772   6.709   3.319  16.983  0.5575  0.5654  1.2008
15453TIP3   OH267773   4.002   4.682   2.534 -0.3480  0.4873 -0.5143
15453TIP3    H167774   3.922   4.660   2.581 -0.1783  2.6183  0.9289
15453TIP3    H267775   3.973   4.735   2.460 -0.3134  1.2427 -0.0025
15454TIP3   OH267776   6.396   4.955   5.949 -0.0048 -0.3869  0.2571
15454TIP3    H167777   6.397   4.863   5.976  1.7587  0.0276  1.8265
15454TIP3    H267778   6.369   5.003   6.027 -0.0975  0.4803 -0.2978
15455TIP3   OH267779   1.558   4.149   3.016  0.0741  0.1561 -0.4662
15455TIP3    H167780   1.643   4.164   2.974 -0.6339 -0.3028 -2.1321
15455TIP3    H267781   1.500   4.214   2.977  0.1242  2.1311  2.4398
15456TIP3   OH267782   1.362   2.262   0.859  0.7188  0.0377  0.0992
15456TIP3    H167783   1.278   2.244   0.902  0.5852 -0.8389 -0.5080
15456TIP3    H267784   1.368   2.358   0.858  0.1702  0.0982  0.9859
15457TIP3   OH267785   0.894   1.588  13.586  0.1725 -0.5424  0.3149
15457TIP3    H167786   0.876   1.528  13.658  0.7480 -0.5413  0.4663
15457TIP3    H267787   0.831   1.659  13.598  0.3841 -0.4454  0.9389
15458TIP3   OH267788   5.242   2.530  16.470 -0.3598 -0.4039  0.2116
15458TIP3    H167789   5.190   2.486  16.403  0.3597  1.1179 -1.4460
15458TIP3    H267790   5.331   2.532  16.434  0.5584 -1.4916  2.2400
15459TIP3   OH267791   3.629   4.609  11.379 -0.6338 -0.1420  0.0640
15459TIP3    H167792   3.681   4.619  11.299 -0.2890  0.2241  0.3314
15459TIP3    H267793   3.545   4.648  11.358 -0.3342  0.5224  0.0829
15460TIP3   OH267794   0.811   5.858  16.652 -0.1120 -0.0277 -0.0225
15460TIP3    H167795   0.872   5.806  16.600  0.9067  1.4762 -0.3792
15460TIP3    H267796   0.767   5.914  16.589 -0.7339  0.0189  0.4409
15461TIP3   OH267797   0.602   1.568  12.852  0.0056  0.5061  0.4234
15461TIP3    H167798   0.585   1.578  12.946 -0.0399 -1.2617  0.6496
15461TIP3    H267799   0.521   1.532  12.817  0.1562  0.7873 -0.2258
15462TIP3   OH267800   0.953   0.689  12.164 -0.2450 -0.6116 -0.6108
15462TIP3    H167801   0.882   0.708  12.225  1.0146  0.7091  0.5191
15462TIP3    H267802   0.931   0.738  12.085 -0.5174 -0.0787 -0.2061
15463TIP3   OH267803   3.524   2.845   0.255  0.0633  0.0919  0.4836
15463TIP3    H167804   3.443   2.794   0.258  0.8226 -1.2168 -0.2103
15463TIP3    H267805   3.562   2.835   0.342  0.1807 -0.5167  0.3687
15464TIP3   OH267806   5.183   0.767  12.034  0.4082  0.1644 -0.3477
15464TIP3    H167807   5.219   0.787  12.120  2.6829 -0.4377 -1.0795
15464TIP3    H267808   5.199   0.673  12.022 -0.1609  0.1691 -1.3017
15465TIP3   OH267809   3.408   0.060  13.628 -0.3895 -0.4960  0.0275
15465TIP3    H167810   3.404   0.057  13.723 -0.8077 -0.8961 -0.0005
15465TIP3    H267811   3.418   0.153  13.607  1.2109 -0.5197  0.5142
15466TIP3   OH267812   6.013   6.170   4.900 -0.6270  0.2296  0.0271
15466TIP3    H167813   6.006   6.234   4.830  0.0231 -0.2949 -0.5267
15466TIP3    H267814   5.922   6.142   4.916 -0.8976  1.1402  0.1567
15467TIP3   OH267815   3.380   3.781  12.834  0.1581 -0.2172  0.0408
15467TIP3    H167816   3.398   3.721  12.906  1.0339  0.2209  0.2020
15467TIP3    H267817   3.289   3.763  12.810 -0.2092 -0.2525  1.3631
15468TIP3   OH267818   3.642   0.857  12.653 -0.1283 -0.6230  0.5561
15468TIP3    H167819   3.712   0.922  12.656 -0.0740 -0.6764  0.4532
15468TIP3    H267820   3.595   0.869  12.735 -0.7618  0.2726  0.0849
15469TIP3   OH267821   5.705   4.723   6.526 -0.5542  0.2188 -0.3843
15469TIP3    H167822   5.714   4.630   6.505 -1.1249  0.5593 -2.3811
15469TIP3    H267823   5.755   4.735   6.607 -0.9956 -1.9348  0.2697
15470TIP3   OH267824   4.591   2.343  13.046 -0.6658  0.2016 -0.5135
15470TIP3    H167825   4.615   2.362  13.136 -2.1654  3.1262 -0.6249
15470TIP3    H267826   4.667   2.372  12.994 -0.5710  0.3232 -0.3068
15471TIP3   OH267827   3.622   2.437  12.360 -0.0480 -0.4772 -0.1207
15471TIP3    H167828   3.641   2.398  12.275 -0.3466 -0.7063 -0.0819
15471TIP3    H267829   3.527   2.450  12.361  0.2581  3.0784 -1.3723
15472TIP3   OH267830   0.281   3.637  14.729  0.3325  0.2911  0.0760
15472TIP3    H167831   0.244   3.648  14.816 -1.2214 -2.7959 -0.0568
15472TIP3    H267832   0.214   3.670  14.670  0.7178  0.9516  0.0062
15473TIP3   OH267833   6.617   0.523  14.392  0.0237 -0.3815 -0.0848
15473TIP3    H167834   6.619   0.519  14.487  0.2060 -1.0785 -0.1068
15473TIP3    H267835   6.539   0.574  14.371  0.3761  0.3810  0.4443
15474TIP3   OH267836   0.036   6.458  13.803  0.6636 -0.0651  0.2073
15474TIP3    H167837   0.058   6.530  13.744 -0.4243  1.5189  1.6571
15474TIP3    H267838   0.120   6.418  13.824  1.3162  0.9206 -0.4565
15475TIP3   OH267839   4.364   2.978  15.549  0.3383  0.4027  0.1468
15475TIP3    H167840   4.341   2.886  15.556  1.7644 -0.0395 -0.6327
15475TIP3    H267841   4.287   3.025  15.583 -0.8224 -1.0235 -0.4276
15476TIP3   OH267842   0.424   1.325  11.232  0.9399  0.1794  0.4774
15476TIP3    H167843   0.510   1.362  11.253  1.1045  0.3813 -0.5106
15476TIP3    H267844   0.381   1.392  11.179  0.4955 -0.2582  0.2700
15477TIP3   OH267845   4.373   3.058  16.607 -0.6946 -0.3535  0.0725
15477TIP3    H167846   4.407   2.968  16.615  0.4858  0.0535 -0.1300
15477TIP3    H267847   4.374   3.091  16.697  0.9507  0.1640 -0.1098
15478TIP3   OH267848   3.566   5.350  11.765 -0.5603  0.0873  0.6910
15478TIP3    H167849   3.601   5.277  11.816  1.0457 -0.4821 -1.1153
15478TIP3    H267850   3.577   5.324  11.674 -1.3409  1.9708 -0.0043
15479TIP3   OH267851   3.276   4.979   1.907 -0.1301  0.2359 -0.0013
15479TIP3    H167852   3.189   5.017   1.921 -0.9799 -1.3231 -0.7678
15479TIP3    H267853   3.285   4.975   1.811  0.7362  0.2546  0.0716
15480TIP3   OH267854   6.231   0.899   4.113 -0.2619 -0.1726 -0.1206
15480TIP3    H167855   6.320   0.865   4.119 -0.2907 -0.2221  0.0216
15480TIP3    H267856   6.205   0.916   4.204 -0.0652  0.6931 -0.2211
15481TIP3   OH267857   0.128   4.477   0.036  0.1263  0.5228  0.6149
15481TIP3    H167858   0.129   4.556   0.090 -0.3731  2.6211 -2.1888
15481TIP3    H267859   0.103   4.508  -0.051  0.8063 -2.6266 -0.8541
15482TIP3   OH267860   4.758   6.628   4.102  0.3422 -0.7337 -0.6598
15482TIP3    H167861   4.698   6.607   4.031 -1.7592  0.6800  0.5658
15482TIP3    H267862   4.742   6.560   4.168  1.9342 -1.7685 -1.3092
15483TIP3   OH267863   5.730   1.341   2.719 -0.5758 -0.1039 -0.1110
15483TIP3    H167864   5.680   1.407   2.767 -1.6025  0.2308 -1.5603
15483TIP3    H267865   5.749   1.382   2.634  0.0919 -1.1114 -0.4676
15484TIP3   OH267866   0.449   6.684  10.302  0.7637  0.1756 -0.3219
15484TIP3    H167867   0.540   6.661  10.285  0.8378 -0.7791  1.1345
15484TIP3    H267868   0.445   6.700  10.396 -0.3897  1.1395 -0.5050
15485TIP3   OH267869   0.171   3.995   2.497 -0.5689  0.4355 -0.0255
15485TIP3    H167870   0.168   3.925   2.562 -0.8528 -0.1678 -0.6700
15485TIP3    H267871   0.088   3.987   2.449  0.1167  0.1264 -1.1994
15486TIP3   OH267872   5.977   3.772   0.224  0.2676  0.0344  0.5643
15486TIP3    H167873   5.923   3.704   0.263 -3.2375  1.6247 -1.0753
15486TIP3    H267874   5.996   3.739   0.135  0.7606  0.1441  0.6233
15487TIP3   OH267875   5.396   6.267  13.806 -0.3131 -0.3166  0.1874
15487TIP3    H167876   5.300   6.275  13.807 -0.2893 -0.0008  0.0018
15487TIP3    H267877   5.427   6.357  13.813 -0.0205 -0.5055  1.5565
15488TIP3   OH267878   1.551   6.384  12.167 -0.1164  0.1781 -0.0971
15488TIP3    H167879   1.479   6.360  12.225 -0.5002 -1.8128 -1.3185
15488TIP3    H267880   1.621   6.324  12.190  0.4810  0.8013 -0.2595
15489TIP3   OH267881   2.746   5.379   3.674 -0.7817 -0.7650 -0.1192
15489TIP3    H167882   2.684   5.396   3.603  0.9364  0.0058 -1.5363
15489TIP3    H267883   2.832   5.389   3.633  0.3341  1.5506  2.4328
15490TIP3   OH267884   4.917   3.598  14.278 -0.0503 -0.3872 -0.4400
15490TIP3    H167885   4.832   3.577  14.239 -0.3909  0.7520 -0.3380
15490TIP3    H267886   4.958   3.513  14.293 -0.4352 -0.9016 -2.0867
15491TIP3   OH267887   1.851   2.411   1.831  0.4741  0.1690  0.4561
15491TIP3    H167888   1.917   2.342   1.826  0.6903  0.4434 -1.0002
15491TIP3    H267889   1.775   2.369   1.872  0.3306 -1.1863 -1.0933
15492TIP3   OH267890   1.434   3.480   3.563 -0.1309 -0.0213  0.6516
15492TIP3    H167891   1.380   3.426   3.620  0.0670  1.0007  1.8429
15492TIP3    H267892   1.372   3.530   3.511 -0.3228 -0.0772  0.8268
15493TIP3   OH267893   0.299   2.628   2.188  0.0795 -0.4287  0.4646
15493TIP3    H167894   0.389   2.602   2.208  0.6366 -0.4820 -1.8218
15493TIP3    H267895   0.267   2.562   2.127 -1.5017 -0.3465  1.1380
15494TIP3   OH267896   4.761   3.374   2.494 -0.2900 -0.3789  0.6586
15494TIP3    H167897   4.764   3.467   2.515 -0.0805  0.8932 -3.9039
15494TIP3    H267898   4.843   3.339   2.529  1.4866  2.0718 -0.7446
15495TIP3   OH267899   0.153   4.333  15.351  0.0192  0.0742  0.1787
15495TIP3    H167900   0.215   4.261  15.365 -0.3967 -0.5196 -0.9569
15495TIP3    H267901   0.073   4.305  15.397 -0.0739 -0.0942 -0.0849
15496TIP3   OH267902   1.851   1.320   3.100  0.3087 -0.3429 -0.0240
15496TIP3    H167903   1.902   1.242   3.123 -1.3562 -1.5088 -0.1300
15496TIP3    H267904   1.846   1.371   3.182 -0.7551 -1.6537  0.7733
15497TIP3   OH267905   6.292   1.473  13.544  0.4842 -0.1706  0.2346
15497TIP3    H167906   6.283   1.409  13.473  1.0098  0.1035 -0.0868
15497TIP3    H267907   6.357   1.535  13.511 -1.8087  1.9885 -0.5685
15498TIP3   OH267908   4.771   4.542   3.404  0.5215  1.3238 -0.1154
15498TIP3    H167909   4.786   4.524   3.497  2.8074  1.8008 -0.3260
15498TIP3    H267910   4.784   4.457   3.361  1.3395  1.4604 -0.1561
15499TIP3   OH267911   2.893   5.014   5.642  0.2875 -0.3495 -0.1557
15499TIP3    H167912   2.886   4.987   5.733 -0.8781  0.8795  0.1598
15499TIP3    H267913   2.927   5.104   5.646  1.8199 -0.8528 -1.0351
15500TIP3   OH267914   3.348   1.490   2.827  0.3397 -0.9610  0.4459
15500TIP3    H167915   3.403   1.463   2.901  1.5244  1.7803  0.7196
15500TIP3    H267916   3.314   1.576   2.853  0.0945 -0.3095 -1.8380
15501TIP3   OH267917   2.111   6.042  14.637 -0.4628 -0.0375 -0.3769
15501TIP3    H167918   2.188   6.067  14.688 -2.0750  1.4601  1.4961
15501TIP3    H267919   2.141   6.041  14.546  1.5888  1.2164  0.2252
15502TIP3   OH267920   6.532   1.167   0.192  0.2360  0.4806 -0.2808
15502TIP3    H167921   6.586   1.210   0.258  1.6664 -0.2569 -0.9348
15502TIP3    H267922   6.453   1.142   0.239  1.4081 -0.4597  1.2938
15503TIP3   OH267923   5.084   1.726   5.366 -0.2205  0.1952  0.5195
15503TIP3    H167924   5.079   1.766   5.279  0.4027  1.0791  0.8739
15503TIP3    H267925   5.033   1.645   5.359 -0.5233  0.4710 -0.5458
15504TIP3   OH267926   0.508   6.371   3.674 -0.5303  0.3013  0.0382
15504TIP3    H167927   0.452   6.317   3.730 -0.8732  1.2822  0.6704
15504TIP3    H267928   0.467   6.458   3.676  0.6425  0.8791 -0.0339
15505TIP3   OH267929   6.295   1.884  12.933 -0.0530  0.1540  0.3269
15505TIP3    H167930   6.248   1.953  12.978  0.6507  1.2064 -0.5013
15505TIP3    H267931   6.227   1.823  12.904 -1.2689  2.6738 -2.6873
15506TIP3   OH267932   3.662   6.308  11.997 -0.9864 -0.0108 -0.7302
15506TIP3    H167933   3.612   6.234  12.033 -0.8963 -0.0657 -0.7187
15506TIP3    H267934   3.737   6.268  11.954  0.1262  0.1943  0.9637
15507TIP3   OH267935   1.354   4.334   4.522  0.4039 -0.1130  0.4263
15507TIP3    H167936   1.392   4.348   4.436  0.6540 -0.7911  0.4183
15507TIP3    H267937   1.365   4.240   4.538 -0.6211 -0.1923  0.7287
15508TIP3   OH267938   1.203   3.254  12.059  0.0860 -0.5694  0.1077
15508TIP3    H167939   1.126   3.237  12.006 -0.4401 -1.7207  1.1814
15508TIP3    H267940   1.277   3.236  12.001 -0.4466 -0.0894 -0.7387
15509TIP3   OH267941   5.400   4.212   2.452  0.1648  0.2762  0.1571
15509TIP3    H167942   5.348   4.231   2.530  1.7521  3.4276  0.6137
15509TIP3    H267943   5.353   4.254   2.380  1.3996  2.2521  0.4141
15510TIP3   OH267944   3.874   5.331  11.843  0.6462 -0.0413  0.2548
15510TIP3    H167945   3.933   5.397  11.805 -0.6446  0.8926 -0.2285
15510TIP3    H267946   3.788   5.373  11.840 -0.3466 -2.0259 -0.7296
15511TIP3   OH267947   4.066   6.354   1.152  0.4944 -0.9807 -0.3155
15511TIP3    H167948   4.061   6.281   1.090 -0.1670 -0.3441 -1.0416
15511TIP3    H267949   4.017   6.424   1.110  0.9464 -0.1756  0.4590
15512TIP3   OH267950   2.811   5.218  15.571  0.9863 -0.5925 -0.6826
15512TIP3    H167951   2.769   5.160  15.507 -1.3879 -0.8725  1.0044
15512TIP3    H267952   2.777   5.188  15.656  1.3123  1.9656  0.4263
15513TIP3   OH267953   5.830   3.325  14.369 -0.4146  0.0599  0.0071
15513TIP3    H167954   5.879   3.317  14.287 -2.2195 -0.8930 -1.0461
15513TIP3    H267955   5.763   3.257  14.363 -2.4193  1.8403  0.9615
15514TIP3   OH267956   6.416   5.546  16.068  0.7639  0.2940  0.0363
15514TIP3    H167957   6.394   5.457  16.098 -0.4475  0.2608 -0.8764
15514TIP3    H267958   6.449   5.590  16.146 -1.0359 -0.1941  1.1268
15515TIP3   OH267959   3.228   6.224   0.067  0.5524 -0.7077 -0.0572
15515TIP3    H167960   3.308   6.252   0.022  0.3096 -0.8645 -0.5882
15515TIP3    H267961   3.228   6.275   0.148  1.1367 -0.6256 -0.0990
15516TIP3   OH267962   6.448   4.111  16.500  0.0340 -0.0402  0.1193
15516TIP3    H167963   6.377   4.171  16.476 -0.4449 -0.7122 -0.1505
15516TIP3    H267964   6.439   4.101  16.595 -0.6664 -0.6490  0.0028
15517TIP3   OH267965   0.447   6.243  13.228  0.1773  0.3841 -0.1619
15517TIP3    H167966   0.357   6.277  13.238  0.1123  0.2210 -0.1911
15517TIP3    H267967   0.494   6.313  13.183  0.5456  1.2723  1.5109
15518TIP3   OH267968   3.670   1.460   4.502  0.3378 -0.5992  0.0194
15518TIP3    H167969   3.582   1.462   4.466  0.4501  0.3633 -0.2194
15518TIP3    H267970   3.717   1.528   4.455  0.1067  1.7351  2.8688
15519TIP3   OH267971   4.427   6.417   3.312  0.1673 -0.4716 -0.1378
15519TIP3    H167972   4.486   6.379   3.378  0.5415 -0.1825 -0.3035
15519TIP3    H267973   4.345   6.430   3.359  0.8835  1.2233  0.7380
15520TIP3   OH267974   4.003   1.550   2.572 -0.1223 -0.1576 -0.3380
15520TIP3    H167975   4.032   1.514   2.489 -0.3479  1.0067 -0.9494
15520TIP3    H267976   3.909   1.565   2.561 -0.3559 -0.9193  0.4889
15521TIP3   OH267977   6.376   5.080   1.571 -0.7378 -0.3156  0.3628
15521TIP3    H167978   6.425   5.090   1.489 -0.0935 -2.7355  0.3583
15521TIP3    H267979   6.304   5.142   1.564  0.5362  1.1058 -1.0427
15522TIP3   OH267980   1.290   3.106  13.620 -0.7981 -0.1414  0.4177
15522TIP3    H167981   1.307   3.139  13.532 -3.2318  0.2533  0.0273
15522TIP3    H267982   1.336   3.167  13.678 -0.8188  0.7603 -0.5010
15523TIP3   OH267983   1.378   1.063  12.079 -0.3243  0.2756  0.1181
15523TIP3    H167984   1.396   1.037  12.169  0.1690  0.8768  0.2006
15523TIP3    H267985   1.292   1.025  12.059  0.3866 -1.4867  0.1903
15524TIP3   OH267986   1.651   2.637   6.714  0.1735  0.7888  0.4254
15524TIP3    H167987   1.669   2.558   6.764  1.3760  1.4701  1.1444
15524TIP3    H267988   1.587   2.611   6.649  0.1430 -0.6365  0.9925
15525TIP3   OH267989   6.064   1.173   4.266  0.1654 -0.3678 -0.3660
15525TIP3    H167990   6.017   1.090   4.255  1.3311 -1.4039  1.7959
15525TIP3    H267991   5.997   1.240   4.252 -0.9670 -1.6719 -1.4695
15526TIP3   OH267992   3.374   2.719  13.617  0.3379  0.4513 -0.7150
15526TIP3    H167993   3.372   2.698  13.524  0.0649 -0.8640 -0.4429
15526TIP3    H267994   3.449   2.777  13.628  1.4493 -0.8017 -1.4818
15527TIP3   OH267995   0.132   6.257  17.202 -0.5536 -0.1212 -0.2764
15527TIP3    H167996   0.090   6.178  17.167  0.4260 -0.9837  0.4387
15527TIP3    H267997   0.131   6.245  17.297  0.0371  0.4979 -0.1825
15528TIP3   OH267998   5.694   2.709  15.837  0.6322  0.0485 -0.4907
15528TIP3    H167999   5.737   2.715  15.923  0.4857 -0.5851 -0.3678
15528TIP3    H268000   5.709   2.619  15.809 -0.8268 -0.2701 -0.3290
15529TIP3   OH268001   3.753   5.899   5.187  0.6211 -0.0888  0.1609
15529TIP3    H168002   3.691   5.961   5.224 -0.4118  0.5065 -2.3608
15529TIP3    H268003   3.701   5.822   5.166  1.2874 -0.6345  0.4673
15530TIP3   OH268004   1.455   1.976   2.253 -0.2356  0.7935 -0.1703
15530TIP3    H168005   1.515   1.901   2.255 -2.3596 -1.0195 -1.0742
15530TIP3    H268006   1.482   2.029   2.328  0.5459 -1.5115  1.2861
15531TIP3   OH268007   2.879   4.633  16.801 -0.3248  0.0797  0.2144
15531TIP3    H168008   2.974   4.625  16.788 -0.0968  2.1043  0.2539
15531TIP3    H268009   2.850   4.545  16.821  1.1785 -1.0422 -2.1538
15532TIP3   OH268010   3.886   4.361  13.719  0.4368 -0.2283 -0.7753
15532TIP3    H168011   3.839   4.346  13.637 -3.4799  0.9730  1.0321
15532TIP3    H268012   3.874   4.280  13.768 -0.1962  0.2484 -0.1243
15533TIP3   OH268013   4.162   2.243  11.208 -0.2265 -0.0189  0.0572
15533TIP3    H168014   4.116   2.283  11.282 -0.2814  2.2656 -1.1378
15533TIP3    H268015   4.104   2.253  11.134  0.8472 -0.0238 -0.8154
15534TIP3   OH268016   6.734   1.459  11.381  1.0058  0.5692 -0.0286
15534TIP3    H168017   6.669   1.460  11.310  0.9017  2.3511  0.0483
15534TIP3    H268018   6.788   1.382  11.363 -0.7870 -0.6407 -0.3934
15535TIP3   OH268019   4.777   6.624   1.056 -0.3542  0.3008  0.3466
15535TIP3    H168020   4.711   6.590   1.116  0.6459  0.4508  1.5874
15535TIP3    H268021   4.790   6.715   1.084  1.1763 -0.0452  0.9237
15536TIP3   OH268022   3.715   0.182   1.663  0.6864  0.1460 -0.1471
15536TIP3    H168023   3.624   0.154   1.669  0.7063  0.3686  1.5783
15536TIP3    H268024   3.720   0.230   1.580 -0.5786 -0.4708 -0.6024
15537TIP3   OH268025   5.202   3.318  13.147  0.7420  0.3680 -0.5940
15537TIP3    H168026   5.136   3.257  13.114  0.7653 -0.4117  0.7332
15537TIP3    H268027   5.285   3.281  13.118  0.7322 -0.0124 -0.1394
15538TIP3   OH268028   4.287   2.519  13.730  0.0052 -0.5844  0.8308
15538TIP3    H168029   4.230   2.476  13.666  0.7500  1.0047 -0.9720
15538TIP3    H268030   4.349   2.570  13.678  2.5765 -1.5514  2.7414
15539TIP3   OH268031   0.892   1.172  14.204  0.4652 -0.0566 -0.4091
15539TIP3    H168032   0.865   1.143  14.117 -1.6335  1.8432 -0.4989
15539TIP3    H268033   0.816   1.153  14.260  0.1860  2.3551  0.1275
15540TIP3   OH268034   5.139   0.643  13.596 -0.4212  0.2654 -0.3567
15540TIP3    H168035   5.234   0.658  13.604 -0.4865  0.0871  1.1003
15540TIP3    H268036   5.124   0.562  13.644 -1.6191  1.5306  1.5407
15541TIP3   OH268037   1.432   3.345  17.108  0.1260  0.2433 -0.2713
15541TIP3    H168038   1.361   3.329  17.171  1.4163 -2.1069  0.6870
15541TIP3    H268039   1.410   3.290  17.033  1.3996 -1.3080  0.4525
15542TIP3   OH268040   3.881   3.259   5.953  0.7472 -0.4389  0.5531
15542TIP3    H168041   3.958   3.218   5.993 -1.5430 -4.7628  1.1124
15542TIP3    H268042   3.830   3.290   6.028  1.2890  1.2792  0.2483
15543TIP3   OH268043   5.137   1.801  16.959  0.2491  0.4675 -0.0160
15543TIP3    H168044   5.103   1.838  17.041  0.1701 -0.8076  0.5483
15543TIP3    H268045   5.059   1.783  16.906  0.2296  0.3078  0.0663
15544TIP3   OH268046   1.818   4.253  11.961 -0.7285  0.1386  0.3375
15544TIP3    H168047   1.900   4.227  12.005  0.0842  2.7696  0.5457
15544TIP3    H268048   1.813   4.196  11.885  0.2964 -1.3705  1.3399
15545TIP3   OH268049   5.718   0.899   2.245  0.2015  0.0329 -0.0180
15545TIP3    H168050   5.696   0.824   2.300  1.3302  0.3782  0.9375
15545TIP3    H268051   5.638   0.952   2.244 -0.2706 -0.6609  0.1493
15546TIP3   OH268052   5.097   5.030  15.761 -0.0065  0.0131 -0.4967
15546TIP3    H168053   5.113   4.986  15.677 -2.2627 -0.7511 -0.6032
15546TIP3    H268054   5.089   5.122  15.739  1.7848  0.1504 -0.7257
15547TIP3   OH268055   3.754   4.980   6.480 -0.2822 -0.4720 -0.2378
15547TIP3    H168056   3.750   4.885   6.470  0.3051 -0.7809  1.8486
15547TIP3    H268057   3.768   4.993   6.574 -1.3757  1.7163 -0.3237
15548TIP3   OH268058   3.501   6.178   5.100  0.6715 -0.9472 -0.0969
15548TIP3    H168059   3.510   6.108   5.165  0.5875 -1.9326 -1.1114
15548TIP3    H268060   3.531   6.138   5.018  0.4675  0.1687 -0.7347
15549TIP3   OH268061   4.721   5.881  14.635 -0.5337 -0.3374  0.1971
15549TIP3    H168062   4.718   5.813  14.568 -0.3714 -0.3067  0.1580
15549TIP3    H268063   4.702   5.962  14.588 -0.9800 -0.3864  0.2875
15550TIP3   OH268064   0.739   3.686   3.328  0.3647  0.1459 -0.2608
15550TIP3    H168065   0.765   3.672   3.237 -1.5564  0.8012 -0.9435
15550TIP3    H268066   0.673   3.755   3.324  0.9104  0.8475  1.7412
15551TIP3   OH268067   1.462   6.554   5.212 -0.4148 -0.7886 -0.5129
15551TIP3    H168068   1.405   6.568   5.287  0.6623 -1.3248  0.4459
15551TIP3    H268069   1.522   6.629   5.213  1.7106 -2.3688  1.2047
15552TIP3   OH268070   5.857   1.388   0.037 -0.1040 -0.9892 -0.2572
15552TIP3    H168071   5.849   1.474   0.078 -2.8741 -1.2704 -0.0134
15552TIP3    H268072   5.774   1.376  -0.010  1.1062 -2.6159 -2.1355
15553TIP3   OH268073   3.235   6.629   3.983 -0.1285  0.2642  0.1748
15553TIP3    H168074   3.187   6.680   4.049 -0.6585  2.5186 -1.7890
15553TIP3    H268075   3.296   6.692   3.944  0.7654 -1.2154 -0.9029
15554TIP3   OH268076   1.801   3.610   5.843 -0.5438  0.0398 -0.2369
15554TIP3    H168077   1.738   3.610   5.771 -0.0512 -0.1588 -0.6753
15554TIP3    H268078   1.886   3.600   5.800 -0.2902 -0.6930  0.4184
15555TIP3   OH268079   1.112   5.129  15.399  0.4244  0.1303 -0.1937
15555TIP3    H168080   1.086   5.172  15.480  0.3548 -0.6028  0.1765
15555TIP3    H268081   1.084   5.189  15.330 -1.4114 -0.1907  0.2219
15556TIP3   OH268082   2.310   0.089  11.212 -0.4540 -0.3103 -0.2939
15556TIP3    H168083   2.306   0.169  11.159  0.3970 -0.3908 -0.4883
15556TIP3    H268084   2.239   0.099  11.276  0.3827  1.1500  0.4563
15557TIP3   OH268085   2.894   3.071   5.591 -0.5590 -0.3281 -0.3989
15557TIP3    H168086   2.974   3.019   5.581 -1.7143 -2.1665 -0.5497
15557TIP3    H268087   2.846   3.058   5.510 -1.3232  0.2027 -0.0458
15558TIP3   OH268088   5.745   4.384   4.579  0.2010 -0.3880  0.1925
15558TIP3    H168089   5.659   4.342   4.589  1.2611 -2.5391  0.7863
15558TIP3    H268090   5.776   4.398   4.668  1.1332 -1.1055 -0.0033
15559TIP3   OH268091   2.010   5.134  16.313  0.1639 -0.1985 -0.4113
15559TIP3    H168092   1.969   5.136  16.226  1.6943 -1.3306 -1.2180
15559TIP3    H268093   2.010   5.041  16.337 -2.1440  0.2634  1.8232
15560TIP3   OH268094   0.064   3.459  13.027 -0.1878 -0.2945 -0.1135
15560TIP3    H168095   0.059   3.369  12.994 -0.6434 -0.0756 -0.6682
15560TIP3    H268096   0.126   3.503  12.968 -0.5087 -0.0647 -0.2824
15561TIP3   OH268097   2.724   5.612  11.414  0.3252 -0.0259  0.0850
15561TIP3    H168098   2.667   5.634  11.340  2.1983  2.3757 -0.8114
15561TIP3    H268099   2.771   5.534  11.386 -1.3716 -1.1390  0.2172
15562TIP3   OH268100   1.445   4.854  16.925 -0.4792 -0.0650  0.0102
15562TIP3    H168101   1.391   4.790  16.881 -0.6610  0.1727 -0.1135
15562TIP3    H268102   1.452   4.822  17.015 -0.7445 -0.1467  0.0021
15563TIP3   OH268103   3.104   3.750   3.220 -0.0854  0.3938  0.1498
15563TIP3    H168104   3.114   3.796   3.137 -1.2921  0.6104  0.1110
15563TIP3    H268105   3.010   3.733   3.227  0.0170  0.2645  1.4071
15564TIP3   OH268106   1.192   2.513  14.068 -0.1390 -0.1300  0.0206
15564TIP3    H168107   1.174   2.600  14.103  2.7298  0.8371 -0.6269
15564TIP3    H268108   1.281   2.493  14.099 -0.5168 -2.6247 -0.2913
15565TIP3   OH268109   0.860   0.055  12.560  0.0389 -0.1701  0.1743
15565TIP3    H168110   0.930   0.019  12.505 -0.2098  0.2347 -0.4171
15565TIP3    H268111   0.829   0.132  12.512 -0.3872  0.0157  0.7388
15566TIP3   OH268112   4.842   3.595   5.585 -0.4379  0.3046 -0.6014
15566TIP3    H168113   4.790   3.657   5.636  0.6619  0.1192  0.8255
15566TIP3    H268114   4.814   3.509   5.616  1.1210  0.2071  0.7107
15567TIP3   OH268115   5.972   3.318   4.637 -0.5089  0.0727  0.0242
15567TIP3    H168116   5.958   3.241   4.583 -0.1236 -0.9717  1.3664
15567TIP3    H268117   6.067   3.327   4.643 -0.5304 -0.3459  1.2148
15568TIP3   OH268118   5.872   5.440  11.449 -0.0258  0.2280  0.4927
15568TIP3    H168119   5.804   5.499  11.483  0.3634  1.5815 -0.9033
15568TIP3    H268120   5.905   5.485  11.371 -0.2879 -2.2524 -1.1666
15569TIP3   OH268121   1.377   5.440   1.595 -0.1766 -0.5230 -0.4108
15569TIP3    H168122   1.291   5.453   1.635  0.4377 -0.3957  0.9347
15569TIP3    H268123   1.359   5.398   1.511 -1.6526  1.1385 -0.9635
15570TIP3   OH268124   2.557   3.989   5.756  0.2755  0.1120  0.6233
15570TIP3    H168125   2.582   3.918   5.696 -1.7867  0.3431 -0.5906
15570TIP3    H268126   2.604   4.065   5.723 -0.9115  0.2575 -0.8085
15571TIP3   OH268127   2.996   3.271   2.077 -0.2248 -0.2874 -0.6588
15571TIP3    H168128   2.974   3.337   2.143  0.2208 -0.8070  0.0237
15571TIP3    H268129   3.056   3.212   2.122 -0.7649 -1.2680 -1.1997
15572TIP3   OH268130   2.866   2.497   4.918  0.7496 -0.8116 -0.3946
15572TIP3    H168131   2.875   2.465   5.007  0.3059 -0.7852 -0.3348
15572TIP3    H268132   2.934   2.452   4.869 -0.5303 -2.7353 -0.5388
15573TIP3   OH268133   3.180   2.086  14.194  0.1058 -0.0985  0.2052
15573TIP3    H168134   3.105   2.035  14.165  1.0498 -0.8789 -0.9851
15573TIP3    H268135   3.231   2.025  14.247  0.7484 -0.1043 -0.4081
15574TIP3   OH268136   3.997   4.327  15.831  0.1261  0.2719  0.0871
15574TIP3    H168137   3.998   4.266  15.757 -1.1015  0.5722 -0.2040
15574TIP3    H268138   3.916   4.307  15.878  0.0599  1.1896  0.3888
15575TIP3   OH268139   4.021   6.136  15.907  0.1906 -0.7550 -0.7762
15575TIP3    H168140   4.016   6.041  15.906 -1.6296 -0.7172  0.4965
15575TIP3    H268141   3.994   6.163  15.819  1.6234 -1.4104 -1.4422
15576TIP3   OH268142   4.461   0.792  16.035 -0.0296  0.4773  0.3612
15576TIP3    H168143   4.552   0.809  16.058 -0.6395  1.8259  2.0501
15576TIP3    H268144   4.417   0.779  16.120 -1.4970  0.3459 -0.3817
15577TIP3   OH268145   4.844   0.113   3.255  0.0300 -0.3557  0.0510
15577TIP3    H168146   4.927   0.067   3.248  0.2191  0.0399 -0.3208
15577TIP3    H268147   4.808   0.084   3.339 -0.5806 -2.3713 -0.8415
15578TIP3   OH268148   2.162   0.432  16.033 -0.3455 -1.0318  0.0499
15578TIP3    H168149   2.245   0.427  16.081 -0.1038  2.8195  0.3217
15578TIP3    H268150   2.097   0.394  16.092  0.8028 -1.7376  0.9036
15579TIP3   OH268151   1.187   4.326  15.130  0.1137 -0.4359  0.0576
15579TIP3    H168152   1.225   4.403  15.087  0.8459 -1.4714 -1.2138
15579TIP3    H268153   1.100   4.354  15.156  0.0990  0.6110 -1.0339
15580TIP3   OH268154   5.690   2.786   4.002 -0.7033 -0.4884 -0.2941
15580TIP3    H168155   5.703   2.724   4.074 -0.5395  0.1271  0.2089
15580TIP3    H268156   5.597   2.806   4.004 -0.7398 -0.6460 -0.4003
15581TIP3   OH268157   2.926   5.787  13.409  0.0164 -0.1569  0.1538
15581TIP3    H168158   2.868   5.863  13.400 -0.1501 -0.4774 -2.2778
15581TIP3    H268159   3.011   5.820  13.381  0.3370 -0.4370  0.7993
15582TIP3   OH268160   1.153   2.057   5.736  0.6618 -0.5487  0.2666
15582TIP3    H168161   1.100   2.129   5.771  1.3858 -0.0731  0.4149
15582TIP3    H268162   1.215   2.100   5.676  1.2358 -1.0240  0.5138
15583TIP3   OH268163   3.925   5.331  13.621  0.1849  0.8068 -0.8150
15583TIP3    H168164   3.907   5.341  13.528  0.3312  0.4659 -0.8787
15583TIP3    H268165   3.839   5.335  13.662  0.0208 -0.0452 -1.0549
15584TIP3   OH268166   2.715   5.685   1.210  0.3586  0.1233 -0.4053
15584TIP3    H168167   2.760   5.656   1.131  2.6250 -0.2116  0.9242
15584TIP3    H268168   2.721   5.610   1.270 -0.3597  0.7345  0.4612
15585TIP3   OH268169   0.223   0.734   3.236 -0.1141 -0.4447  0.0393
15585TIP3    H168170   0.166   0.794   3.284 -0.4632 -0.8028  0.0704
15585TIP3    H268171   0.169   0.702   3.164  0.4037  0.0890 -0.6064
15586TIP3   OH268172   1.421   3.303  11.588  0.2553 -0.0188  0.2168
15586TIP3    H168173   1.395   3.374  11.648  0.3325  0.0782  0.1348
15586TIP3    H268174   1.375   3.324  11.506  1.3196  0.6658 -0.2242
15587TIP3   OH268175   3.112   4.919   5.985 -0.2566  0.3509  0.2825
15587TIP3    H168176   3.019   4.924   5.962 -0.1786  1.3615  0.1189
15587TIP3    H268177   3.153   4.876   5.910 -0.7047 -0.9379  0.7487
15588TIP3   OH268178   1.944   3.737  15.055 -0.3491 -0.0132 -0.3711
15588TIP3    H168179   2.005   3.664  15.065 -1.3435 -1.0566 -1.5243
15588TIP3    H268180   1.937   3.775  15.142 -0.1448 -1.5869  0.3645
15589TIP3   OH268181   4.570   3.395   4.848 -0.0708  0.4185 -0.3045
15589TIP3    H168182   4.661   3.365   4.842 -0.2793 -0.7040  1.4211
15589TIP3    H268183   4.524   3.323   4.893 -1.0497  2.4397  2.1611
15590TIP3   OH268184   5.369   3.737  14.299  0.4913  0.0470 -0.6955
15590TIP3    H168185   5.416   3.777  14.372  2.3578 -1.0008 -1.2604
15590TIP3    H268186   5.350   3.809  14.240  1.9719  0.4458 -0.7303
15591TIP3   OH268187   5.248   4.191   0.261  0.3103 -0.2245  0.6427
15591TIP3    H168188   5.192   4.268   0.256 -0.1976 -0.5535  1.2195
15591TIP3    H268189   5.278   4.178   0.171 -0.2358  0.1749  0.3969
15592TIP3   OH268190   1.566   1.942  16.305  0.2841  0.3960  0.0688
15592TIP3    H168191   1.499   1.959  16.240  0.0386  1.4140  0.5713
15592TIP3    H268192   1.518   1.918  16.384  0.5849 -1.1695 -0.1859
15593TIP3   OH268193   3.388   2.483   2.334 -0.3833  0.9381  0.5960
15593TIP3    H168194   3.406   2.391   2.352 -2.4993  0.4789  0.6596
15593TIP3    H268195   3.474   2.523   2.323  0.5764 -1.2033 -0.2450
15594TIP3   OH268196   4.059   1.521  16.318 -0.0544  0.5138  0.0462
15594TIP3    H168197   4.012   1.481  16.391  1.4586  2.6490  2.3722
15594TIP3    H268198   4.031   1.613  16.320  0.1856  0.6596 -1.9628
15595TIP3   OH268199   6.034   3.500   5.602  0.3902  0.6308 -0.2580
15595TIP3    H168200   6.049   3.411   5.569 -0.0723 -0.3293  1.9343
15595TIP3    H268201   6.117   3.526   5.640  0.6746  1.3812 -1.3552
15596TIP3   OH268202   1.747   5.159   4.696  0.2183 -0.2626 -0.1056
15596TIP3    H168203   1.696   5.079   4.683  0.0080 -0.2324  0.5316
15596TIP3    H268204   1.790   5.147   4.781  0.0652  0.3655  0.0630
15597TIP3   OH268205   2.193   2.529   3.099  0.1484 -0.3722  0.4501
15597TIP3    H168206   2.170   2.560   3.186 -0.4862 -1.6009  0.7407
15597TIP3    H268207   2.109   2.523   3.053  0.5966  1.6868 -0.7684
15598TIP3   OH268208   1.313   5.772  15.927 -0.4704 -0.3339 -0.2446
15598TIP3    H168209   1.232   5.811  15.959 -0.2116 -0.0450  0.0638
15598TIP3    H268210   1.285   5.690  15.886 -0.6035 -1.7591  2.5049
15599TIP3   OH268211   1.872   2.409  14.442 -0.1206  0.1631 -0.1775
15599TIP3    H168212   1.836   2.417  14.354 -0.8408  1.5048  0.2107
15599TIP3    H268213   1.820   2.469  14.495  0.4559 -0.4362  1.1216
15600TIP3   OH268214   2.914   5.623   1.015  0.0792  0.2911  0.0940
15600TIP3    H168215   2.965   5.611   1.095  2.4305 -0.6233 -1.4322
15600TIP3    H268216   2.979   5.641   0.947 -1.7364  0.1548 -1.8051
15601TIP3   OH268217   2.953   5.168   2.824  0.2534 -0.1051  0.6423
15601TIP3    H168218   2.952   5.107   2.751  2.0258 -1.6122  1.7827
15601TIP3    H268219   2.976   5.252   2.785  1.3750 -0.9241 -0.5218
15602TIP3   OH268220   5.890   5.407  13.106  0.5079 -0.2431 -0.3397
15602TIP3    H168221   5.955   5.456  13.055  1.7695 -1.2344  0.2738
15602TIP3    H268222   5.893   5.446  13.193 -0.3025  0.2066 -0.4945
15603TIP3   OH268223   3.714   2.755   4.102 -0.0268  0.0165  0.5999
15603TIP3    H168224   3.643   2.765   4.038  0.3828 -1.5254 -0.1365
15603TIP3    H268225   3.762   2.838   4.097 -0.6119  0.3267 -0.3147
15604TIP3   OH268226   2.469   2.038  15.146  0.0461 -0.0107  0.1984
15604TIP3    H168227   2.557   2.048  15.181  0.5161  0.1144 -0.9675
15604TIP3    H268228   2.480   1.983  15.068 -1.0697 -0.9355  0.6761
15605TIP3   OH268229   0.485   1.070  11.335 -0.3328 -0.3183 -0.2389
15605TIP3    H168230   0.579   1.085  11.333 -0.3970  0.2878  0.7449
15605TIP3    H268231   0.447   1.152  11.303 -0.5225 -0.6007 -0.7390
15606TIP3   OH268232   1.566   6.630  13.127 -0.5056 -0.5298  0.3545
15606TIP3    H168233   1.585   6.664  13.214 -1.3885 -1.0505  0.7585
15606TIP3    H268234   1.650   6.599  13.094  0.0016  0.4689  0.6558
15607TIP3   OH268235   4.270   1.299   5.397  0.0068 -0.2471 -0.1303
15607TIP3    H168236   4.334   1.238   5.433 -0.1300 -0.8762 -0.9153
15607TIP3    H268237   4.187   1.274   5.436  0.1317  0.1722  0.4144
15608TIP3   OH268238   0.302   0.877  14.598 -0.4091  0.5910 -0.2728
15608TIP3    H168239   0.296   0.907  14.689  0.4381 -1.4148  0.5102
15608TIP3    H268240   0.235   0.809  14.591 -0.2630  0.5208 -1.0538
15609TIP3   OH268241   1.867   1.698  17.256  0.7512 -0.7346 -0.0500
15609TIP3    H168242   1.846   1.791  17.250  0.3146 -0.7027  1.4865
15609TIP3    H268243   1.948   1.695  17.309 -0.2054 -1.2752  1.4687
15610TIP3   OH268244   1.195   1.447   6.427 -0.3721 -0.3459  0.0699
15610TIP3    H168245   1.278   1.492   6.410 -1.1087  0.7062 -0.9641
15610TIP3    H268246   1.170   1.476   6.514 -0.2756  0.3895 -0.1333
15611TIP3   OH268247   3.379   1.428   1.442  0.2584 -0.3980  0.0482
15611TIP3    H168248   3.310   1.480   1.483  0.9144  2.0831 -1.7211
15611TIP3    H268249   3.428   1.390   1.515 -0.5359  1.1365  1.4458
15612TIP3   OH268250   1.297   2.769   5.365 -0.4638 -0.0104  0.2707
15612TIP3    H168251   1.317   2.711   5.439 -0.5743 -0.7407 -0.2599
15612TIP3    H268252   1.378   2.771   5.315 -0.7330 -0.4306 -0.1896
15613TIP3   OH268253   4.289   0.609  12.632  0.1800  0.0220 -0.3672
15613TIP3    H168254   4.236   0.563  12.567 -1.2798 -0.6706  1.2339
15613TIP3    H268255   4.226   0.637  12.698  1.4467  1.8306  0.1383
15614TIP3   OH268256   2.239   3.374   3.273 -0.1212  0.1823  0.8656
15614TIP3    H168257   2.211   3.283   3.288  0.0629 -0.0803 -0.2894
15614TIP3    H268258   2.164   3.414   3.227  0.4180  0.1473 -0.0745
15615TIP3   OH268259   2.015   4.071   3.501 -0.2265 -0.6352  0.0360
15615TIP3    H168260   2.035   4.019   3.579  0.4586 -1.1393 -0.4648
15615TIP3    H268261   1.951   4.018   3.453 -0.6936 -0.2982  0.2751
15616TIP3   OH268262   4.023   1.470  11.541 -0.1812 -0.3275 -0.2003
15616TIP3    H168263   4.113   1.459  11.511 -1.0277 -1.6755 -2.5147
15616TIP3    H268264   4.030   1.489  11.634  2.5031  0.1549 -0.4413
15617TIP3   OH268265   5.766   4.823   3.062  0.5007 -0.4195 -0.1075
15617TIP3    H168266   5.766   4.738   3.106 -0.1100 -0.4196 -0.0977
15617TIP3    H268267   5.756   4.802   2.969 -1.2099 -0.3273  0.0135
15618TIP3   OH268268   0.047   0.485  12.906 -0.0457  0.3049  0.5091
15618TIP3    H168269   0.037   0.503  12.813  1.6220 -1.4580 -0.0699
15618TIP3    H268270  -0.008   0.551  12.949 -4.8231 -1.7024 -1.7708
15619TIP3   OH268271   2.599   5.361   3.420  0.0952  0.5269  0.0497
15619TIP3    H168272   2.588   5.312   3.339  0.5594  0.4080  0.0568
15619TIP3    H268273   2.653   5.437   3.395  0.1499  0.5462  0.2238
15620TIP3   OH268274   3.964   3.527  10.884  0.2523 -0.5249  0.0153
15620TIP3    H168275   3.877   3.566  10.885  0.7581  0.6728  1.1875
15620TIP3    H268276   4.024   3.602  10.882  1.2710 -1.3228 -1.1913
15621TIP3   OH268277   2.028   1.488   2.932  0.2862  0.0735 -0.3993
15621TIP3    H168278   1.976   1.568   2.945  1.8708  1.3010 -1.3204
15621TIP3    H268279   2.001   1.431   3.005  0.6296  2.2634  1.5829
15622TIP3   OH268280   6.594   6.576  12.673 -0.1698  0.1535  0.1075
15622TIP3    H168281   6.552   6.645  12.621  1.6118  0.5889 -0.8117
15622TIP3    H268282   6.683   6.571  12.640 -0.4193 -3.1877 -0.4785
15623TIP3   OH268283   2.389   0.886   2.946 -0.0826 -0.3344  0.2922
15623TIP3    H168284   2.342   0.820   2.997 -0.7582  1.3875  2.0014
15623TIP3    H268285   2.320   0.944   2.913  0.5769  0.1629 -0.2326
15624TIP3   OH268286   1.435   0.442  11.204  0.0413 -0.2619  0.2616
15624TIP3    H168287   1.518   0.421  11.161  0.5241  0.6318  0.7072
15624TIP3    H268288   1.438   0.394  11.287 -0.0141 -0.4557  0.1506
15625TIP3   OH268289   3.702   0.773  17.050 -0.5294 -0.4804  0.0672
15625TIP3    H168290   3.786   0.806  17.019 -1.2753 -1.3843 -3.3782
15625TIP3    H268291   3.724   0.697  17.104  0.8904 -1.0155 -1.2104
15626TIP3   OH268292   0.879   0.291   1.681 -0.2169 -0.8025  0.6014
15626TIP3    H168293   0.813   0.238   1.637  0.9996 -1.6255 -0.2812
15626TIP3    H268294   0.956   0.285   1.625  0.9910 -0.8557  2.1956
15627TIP3   OH268295   6.174   1.788  14.681 -0.5629 -0.0583 -0.4287
15627TIP3    H168296   6.194   1.823  14.594  1.5676  2.7056  1.0049
15627TIP3    H268297   6.248   1.731  14.700 -0.4013  0.3054  0.0371
15628TIP3   OH268298   5.580   2.926  16.921  0.3972 -0.2282 -0.0686
15628TIP3    H168299   5.582   2.874  16.841  0.0502 -0.0459 -0.2001
15628TIP3    H268300   5.489   2.955  16.928  0.5522  0.2278  0.0889
15629TIP3   OH268301   1.529   3.029  12.227  0.4288 -0.0140 -0.3257
15629TIP3    H168302   1.485   3.005  12.309  1.5040 -3.0992 -0.5160
15629TIP3    H268303   1.621   3.040  12.252  0.6684 -0.4249 -0.9889
15630TIP3   OH268304   2.276   4.406   5.075  0.1727 -0.1024  0.5546
15630TIP3    H168305   2.237   4.326   5.112 -1.1488  0.7881  1.1811
15630TIP3    H268306   2.367   4.404   5.105  0.3164 -1.6423  0.0832
15631TIP3   OH268307   2.946   4.720  13.366  0.1297 -0.3891  0.1396
15631TIP3    H168308   3.010   4.649  13.372  0.5796  0.1281  2.0207
15631TIP3    H268309   2.883   4.690  13.300  1.4181 -1.6066 -0.6013
15632TIP3   OH268310   3.293   0.513   1.115  0.2479 -0.3353  0.0969
15632TIP3    H168311   3.307   0.418   1.105 -0.0037 -0.2337 -1.4246
15632TIP3    H268312   3.315   0.549   1.029 -1.1374  0.8024  0.1864
15633TIP3   OH268313   3.946   2.718   4.822  0.0341  0.3297  0.8439
15633TIP3    H168314   3.921   2.751   4.735  1.3664  1.9997  1.0230
15633TIP3    H268315   3.892   2.641   4.835 -1.5900  1.1273 -0.6696
15634TIP3   OH268316   1.656   1.363   0.152  0.0368 -0.0701 -0.0410
15634TIP3    H168317   1.601   1.293   0.116 -0.8597  1.6377 -2.2685
15634TIP3    H268318   1.620   1.381   0.239 -1.7349 -0.2984 -0.6874
15635TIP3   OH268319   6.632   5.199  12.410  0.1217  0.5079  0.6787
15635TIP3    H168320   6.615   5.105  12.397 -0.2294  0.8042 -1.1806
15635TIP3    H268321   6.702   5.201  12.475 -0.6181 -1.0082  1.5836
15636TIP3   OH268322   1.618   1.628  13.776  0.3230 -0.0963  0.3790
15636TIP3    H168323   1.713   1.626  13.770  0.4851 -1.9002  2.2422
15636TIP3    H268324   1.589   1.549  13.729 -0.1865  0.0716  0.4031
15637TIP3   OH268325   1.337   1.499   6.141 -0.5889  0.5899 -0.3575
15637TIP3    H168326   1.387   1.476   6.219  0.9903  1.7163 -0.9870
15637TIP3    H268327   1.291   1.579   6.165  1.9246  2.4459 -1.2850
15638TIP3   OH268328   5.900   0.615  16.555  0.0326  0.2166 -0.0765
15638TIP3    H168329   5.985   0.590  16.592  0.0909 -0.1509 -0.4418
15638TIP3    H268330   5.872   0.537  16.506  0.1472  0.8160 -1.1408
15639TIP3   OH268331   3.518   0.843   2.441 -0.3563  0.3723 -0.1169
15639TIP3    H168332   3.464   0.866   2.365  0.2114  0.0061 -0.6388
15639TIP3    H268333   3.498   0.911   2.506 -0.6830  0.8209 -0.6735
15640TIP3   OH268334   4.442   1.562   2.166  0.3625 -0.2992  0.6395
15640TIP3    H168335   4.498   1.640   2.170 -0.4941  0.3499  0.2199
15640TIP3    H268336   4.454   1.529   2.077 -1.2533  0.8657 -0.0421
15641TIP3   OH268337   4.979   4.386   2.303 -0.4479  0.0528  0.4029
15641TIP3    H168338   4.996   4.333   2.381  1.0635 -0.2898 -0.1376
15641TIP3    H268339   4.945   4.324   2.238 -0.6299  0.1369  0.4147
15642TIP3   OH268340   6.221   2.628   5.929  0.3023  0.4393  0.3597
15642TIP3    H168341   6.134   2.602   5.960 -0.2569  1.1146 -0.5814
15642TIP3    H268342   6.281   2.602   5.999 -0.5647 -0.7268  0.6950
15643TIP3   OH268343   6.165   4.554  13.242 -0.2540 -0.2096  0.2478
15643TIP3    H168344   6.144   4.466  13.273 -0.9989 -0.4431 -0.8439
15643TIP3    H268345   6.255   4.549  13.210 -0.2838 -0.5667  0.2268
15644TIP3   OH268346   3.364   0.645  15.899  0.8711  0.7157  0.3309
15644TIP3    H168347   3.361   0.700  15.977 -0.5981  0.7622  0.2700
15644TIP3    H268348   3.410   0.698  15.834 -0.8810  2.0850  0.1456
15645TIP3   OH268349   1.577   5.136  13.097 -0.5253 -0.1635  0.0818
15645TIP3    H168350   1.517   5.106  13.029 -1.7067  2.0204  0.0523
15645TIP3    H268351   1.544   5.099  13.178 -1.6689  0.6336 -0.0035
15646TIP3   OH268352   0.075   2.835   6.686 -0.3787  0.6014 -0.3695
15646TIP3    H168353  -0.006   2.886   6.681 -0.2333  0.7406 -1.5448
15646TIP3    H268354   0.143   2.901   6.701 -0.4510  0.5096  0.3768
15647TIP3   OH268355   5.445   0.305  13.031  0.5205 -0.0881  0.4684
15647TIP3    H168356   5.534   0.298  13.064  1.0250 -1.5098 -1.0866
15647TIP3    H268357   5.448   0.376  12.968  0.9832 -1.2092 -0.8068
15648TIP3   OH268358   2.791   5.726   5.090 -0.0501  0.7075 -0.1746
15648TIP3    H168359   2.750   5.679   5.163  0.1454  0.8509  0.0294
15648TIP3    H268360   2.718   5.772   5.049 -0.0071  1.4930  0.5920
15649TIP3   OH268361   1.646   2.025  11.551 -0.1843  0.1213  0.2676
15649TIP3    H168362   1.552   2.014  11.541 -0.0609 -1.1774  0.3850
15649TIP3    H268363   1.684   1.945  11.516  0.8404  0.3329  0.8465
15650TIP3   OH268364   0.560   3.203  12.365 -0.3217  0.0146  0.0299
15650TIP3    H168365   0.483   3.216  12.309 -0.2255  0.3240 -0.0304
15650TIP3    H268366   0.600   3.290  12.371 -0.3697 -0.0006  0.6332
15651TIP3   OH268367   5.333   5.692  12.196 -0.3104 -0.2541  0.0388
15651TIP3    H168368   5.300   5.632  12.129  0.0319 -0.4060  0.0026
15651TIP3    H268369   5.417   5.654  12.222 -0.9975 -0.8613  1.4347
15652TIP3   OH268370   6.034   0.595  13.996  0.7833 -0.0611 -0.2513
15652TIP3    H168371   6.112   0.605  14.050  1.0473  1.7475 -0.8908
15652TIP3    H268372   6.063   0.615  13.907 -0.4574  1.0711 -0.4423
15653TIP3   OH268373   5.211   1.899   2.146 -0.3289 -0.1695  0.1221
15653TIP3    H168374   5.117   1.914   2.132 -0.3478 -1.3239 -1.2684
15653TIP3    H268375   5.251   1.924   2.063  0.7517  1.2966  1.0418
15654TIP3   OH268376   0.474   1.176  16.673 -0.2523 -0.1227  0.0113
15654TIP3    H168377   0.537   1.187  16.744  0.1069  1.4413 -0.5096
15654TIP3    H268378   0.521   1.125  16.607 -0.7407 -1.9863  1.0322
15655TIP3   OH268379   1.953   4.623  16.957 -0.1018  0.0152  0.5493
15655TIP3    H168380   2.012   4.693  16.930 -0.6472  0.9994  1.8051
15655TIP3    H268381   1.866   4.664  16.959 -0.6215 -1.0250  0.1382
15656TIP3   OH268382   1.797   0.195  13.632 -0.3695 -0.1356 -0.5378
15656TIP3    H168383   1.744   0.137  13.687 -0.2288  0.2938  0.0607
15656TIP3    H268384   1.886   0.161  13.640  0.1693  1.5635  1.8062
15657TIP3   OH268385   4.822   3.604  11.546  0.4891 -0.3028  0.8994
15657TIP3    H168386   4.810   3.635  11.456  0.9833  0.7784  1.1805
15657TIP3    H268387   4.813   3.509  11.540  0.6075 -0.2636 -0.3087
15658TIP3   OH268388   0.186   3.205  15.830 -0.3156 -0.2190  0.0450
15658TIP3    H168389   0.123   3.240  15.892 -0.6165  1.0587 -0.9314
15658TIP3    H268390   0.237   3.281  15.803  0.9650 -1.0513  0.0276
15659TIP3   OH268391   3.326   0.935   5.539 -0.1444  0.1778  0.2752
15659TIP3    H168392   3.302   0.843   5.550  0.4054  0.2268  2.1123
15659TIP3    H268393   3.242   0.981   5.534 -0.4188 -0.3628 -0.3915
15660TIP3   OH268394   0.208   1.028   6.426 -0.2441 -0.1072 -0.2029
15660TIP3    H168395   0.218   1.093   6.496 -0.2796 -0.6876  0.3515
15660TIP3    H268396   0.298   1.011   6.397  0.1044 -1.9564  1.6712
15661TIP3   OH268397   3.115   1.107   4.791 -0.0917 -0.2060 -0.0368
15661TIP3    H168398   3.195   1.056   4.797 -1.0154 -1.7142 -0.1610
15661TIP3    H268399   3.056   1.054   4.738 -1.0327  1.0787 -0.3284
15662TIP3   OH268400   1.338   5.353  13.946 -0.0105  0.0975  0.6406
15662TIP3    H168401   1.365   5.376  13.857  1.2262 -0.3318  0.8965
15662TIP3    H268402   1.313   5.260  13.939 -0.9904  0.3583  0.5137
15663TIP3   OH268403   1.933   1.133  11.106  0.4578 -0.0285 -0.0090
15663TIP3    H168404   1.887   1.118  11.023  0.9833  0.1696 -0.3417
15663TIP3    H268405   2.015   1.085  11.096  1.2624  1.3704 -0.2841
15664TIP3   OH268406   4.326   4.544  16.635  0.1186 -0.0955 -0.5897
15664TIP3    H168407   4.236   4.537  16.666  0.2852  1.3845  0.3206
15664TIP3    H268408   4.339   4.638  16.621  1.5611 -0.2789 -0.6134
15665TIP3   OH268409   6.631   6.128  11.383 -0.1680 -0.4541 -0.2897
15665TIP3    H168410   6.678   6.045  11.392  0.0580 -0.3517 -0.5025
15665TIP3    H268411   6.614   6.155  11.474 -1.7645 -1.5690 -0.2243
15666TIP3   OH268412   3.635   0.974   6.435  0.6069  0.0347  0.5572
15666TIP3    H168413   3.592   1.054   6.406 -3.4026 -1.4137  1.7794
15666TIP3    H268414   3.639   0.919   6.357 -1.3293 -0.3626  0.7030
15667TIP3   OH268415   1.407   4.878   0.132 -0.5058  0.1242 -0.0578
15667TIP3    H168416   1.367   4.963   0.150 -3.1803 -0.6232 -1.8545
15667TIP3    H268417   1.355   4.815   0.182 -0.6313 -0.7291 -1.2094
15668TIP3   OH268418   3.699   4.005  13.344 -0.5115 -0.2205 -0.6678
15668TIP3    H168419   3.764   3.936  13.335 -0.8747 -0.7933  0.8897
15668TIP3    H268420   3.748   4.086  13.327  0.3872 -0.7032 -0.4429
15669TIP3   OH268421   5.906   6.429  15.776 -0.0716 -0.1093 -1.0755
15669TIP3    H168422   5.862   6.512  15.796  0.4815 -0.5047  2.5606
15669TIP3    H268423   5.838   6.363  15.790  0.7159 -0.5080  1.4317
15670TIP3   OH268424   6.064   6.526  15.528  0.0008  0.1366  0.0178
15670TIP3    H168425   6.062   6.490  15.439 -1.5761  0.3175 -0.0515
15670TIP3    H268426   5.972   6.534  15.552  0.3020  2.9022  0.5282
15671TIP3   OH268427   1.660   5.155  15.994  0.1430  0.2188  1.0069
15671TIP3    H168428   1.638   5.064  15.976  0.3714  0.1267  1.1925
15671TIP3    H268429   1.643   5.201  15.912  0.0538  0.0062  0.9060
15672TIP3   OH268430   4.250   2.460  17.340  0.8262 -0.3314  0.0589
15672TIP3    H168431   4.214   2.392  17.398 -1.5675  0.7075 -0.1085
15672TIP3    H268432   4.312   2.507  17.395 -1.3497  0.6121  1.8813
15673TIP3   OH268433   3.076   5.021  11.569 -0.3799  0.5986 -0.2847
15673TIP3    H168434   3.057   5.115  11.569 -0.0966  0.6894  1.1012
15673TIP3    H268435   3.127   5.008  11.649  2.4775 -0.1844 -2.1106
15674TIP3   OH268436   4.926   4.935   0.625 -0.1594 -0.4640 -0.4592
15674TIP3    H168437   4.916   5.019   0.669  0.1167  0.8711 -2.7589
15674TIP3    H268438   4.993   4.889   0.674  0.0671  0.8866  0.5395
15675TIP3   OH268439   2.320   2.977  14.135  0.0662 -0.1177 -0.0487
15675TIP3    H168440   2.249   2.913  14.140  0.0048 -0.2739 -2.0177
15675TIP3    H268441   2.287   3.044  14.076  0.8642  0.7779  0.4906
15676TIP3   OH268442   2.325   0.080   0.543  0.7162  0.0445  0.2024
15676TIP3    H168443   2.300  -0.011   0.527  1.5916 -0.1866  0.1418
15676TIP3    H268444   2.342   0.084   0.637  2.7015 -0.3732 -0.1043
15677TIP3   OH268445   0.386   1.529  12.649 -0.1699 -0.6878 -0.2079
15677TIP3    H168446   0.319   1.528  12.582  0.1846 -0.4412 -0.5702
15677TIP3    H268447   0.339   1.510  12.731 -0.8943  0.7855 -0.2591
15678TIP3   OH268448   3.768   6.023  14.342 -0.1751 -0.1793  0.5063
15678TIP3    H168449   3.825   5.978  14.404  1.0261  0.9122  0.2424
15678TIP3    H268450   3.745   5.956  14.277  1.3133 -0.5129  0.2916
15679TIP3   OH268451   1.661   6.550   2.135 -0.2944 -0.2584  0.3901
15679TIP3    H168452   1.601   6.524   2.065 -1.2329 -0.3109  1.1910
15679TIP3    H268453   1.667   6.645   2.127 -0.3992 -0.2625  0.2447
15680TIP3   OH268454   3.342   2.401  11.622  0.1009 -0.5937 -0.2041
15680TIP3    H168455   3.352   2.355  11.538  4.1358 -0.2861 -0.1067
15680TIP3    H268456   3.427   2.445  11.635  0.2363 -1.7310  4.6961
15681TIP3   OH268457   4.429   2.172   0.348  0.1571 -0.0407 -0.0023
15681TIP3    H168458   4.364   2.144   0.282  1.1640  0.2677 -1.1605
15681TIP3    H268459   4.513   2.168   0.302  0.7043  1.7998  0.7607
15682TIP3   OH268460   6.218   1.161  13.788  0.3771  0.4014  0.3621
15682TIP3    H168461   6.141   1.163  13.730  0.2528 -0.4898  0.4865
15682TIP3    H268462   6.225   1.251  13.820 -0.4684  0.5560  0.1561
15683TIP3   OH268463   6.515   0.288  11.417  0.0924 -0.0440 -0.0023
15683TIP3    H168464   6.546   0.371  11.381  0.0691  0.0157  0.1139
15683TIP3    H268465   6.464   0.313  11.494  0.0727 -0.1662  0.0235
15684TIP3   OH268466   0.580   4.426  11.874 -0.3790 -0.0593 -0.0713
15684TIP3    H168467   0.604   4.465  11.958  0.3316 -0.1021 -0.2486
15684TIP3    H268468   0.556   4.500  11.818  1.5799  0.2124 -0.6070
15685TIP3   OH268469   2.972   2.743  11.592 -0.2140 -0.5982 -0.0060
15685TIP3    H168470   3.057   2.708  11.568 -0.2140 -0.1304 -0.7130
15685TIP3    H268471   2.940   2.684  11.660  0.3463 -1.2029 -0.2559
15686TIP3   OH268472   2.709   0.816   2.371 -0.2885  0.0165  0.9743
15686TIP3    H168473   2.617   0.795   2.352 -0.1689  0.2542  0.0705
15686TIP3    H268474   2.749   0.731   2.390 -0.6862 -0.0928  1.3326
15687TIP3   OH268475   1.822   6.709   4.954 -0.3748 -0.3064  0.3148
15687TIP3    H168476   1.787   6.796   4.934 -3.0412 -1.0176  1.4995
15687TIP3    H268477   1.844   6.714   5.047  0.6275 -0.5845  0.1098
15688TIP3   OH268478   4.582   3.516   1.409  0.0107 -0.4337  0.2459
15688TIP3    H168479   4.645   3.466   1.357  0.7342  1.1290 -0.4436
15688TIP3    H268480   4.605   3.607   1.393 -0.8915  0.1363  1.9179
15689TIP3   OH268481   2.553   0.286  12.876  0.0730 -0.3957  0.2157
15689TIP3    H168482   2.554   0.381  12.887 -1.0955 -0.0194 -2.3176
15689TIP3    H268483   2.474   0.258  12.922  1.1858 -0.4053  2.2438
15690TIP3   OH268484   5.992   0.625   2.846 -0.3464  0.2870  0.1420
15690TIP3    H168485   5.931   0.691   2.814  1.0194 -0.2808 -4.2852
15690TIP3    H268486   5.938   0.547   2.861 -1.1192  0.5621 -1.0908
15691TIP3   OH268487   3.393   5.320   5.560  0.2048 -0.1149  0.6206
15691TIP3    H168488   3.346   5.236   5.557  0.0461 -0.0437  1.0686
15691TIP3    H268489   3.440   5.319   5.644 -1.7089  1.2534  1.7966
15692TIP3   OH268490   4.783   1.015   3.620  0.0778 -0.1261 -0.1014
15692TIP3    H168491   4.742   0.944   3.572 -0.1200  1.3973 -2.3398
15692TIP3    H268492   4.720   1.087   3.617  1.5857  1.2645 -0.9817
15693TIP3   OH268493   0.420   1.116  11.012  0.8477 -0.1394 -0.3577
15693TIP3    H168494   0.506   1.084  10.983  0.4918  0.4947 -2.2790
15693TIP3    H268495   0.417   1.206  10.981 -0.6597 -0.2878 -0.7001
15694TIP3   OH268496   3.743   3.341   3.341 -0.5913  0.1213 -0.2948
15694TIP3    H168497   3.668   3.350   3.400 -0.2146  0.8732  0.0929
15694TIP3    H268498   3.771   3.250   3.351  0.5014  0.6249  2.0131
15695TIP3   OH268499   4.911   4.608   2.444  0.3885 -0.0013 -0.0845
15695TIP3    H168500   4.954   4.544   2.387  2.6604  2.0831 -0.8787
15695TIP3    H268501   4.945   4.589   2.532  1.5382  0.4580 -0.4151
15696TIP3   OH268502   2.795   4.032   4.543  0.2821  0.3781  0.0847
15696TIP3    H168503   2.810   4.114   4.591 -1.1374  1.2467 -0.8726
15696TIP3    H268504   2.821   4.052   4.453  0.5469 -0.4403 -0.0288
15697TIP3   OH268505   4.587   6.359   3.046  0.2575 -0.8126  0.6934
15697TIP3    H168506   4.525   6.365   3.120 -1.7158 -0.5102 -0.8944
15697TIP3    H268507   4.648   6.432   3.060 -1.4869  0.6933  0.8507
15698TIP3   OH268508   2.811   4.637  14.432  0.0145 -0.3323 -0.2167
15698TIP3    H168509   2.784   4.550  14.400  1.0197 -0.6890 -0.1244
15698TIP3    H268510   2.863   4.674  14.360 -1.3697  0.7090 -0.7385
15699TIP3   OH268511   1.942   3.929   6.341  0.8147  0.6636 -0.2401
15699TIP3    H168512   1.906   3.849   6.303  1.9577  0.7107 -1.5175
15699TIP3    H268513   1.879   3.955   6.408  0.0234 -0.8591 -0.3535
15700TIP3   OH268514   4.053   0.448  11.417  0.2989 -0.3018 -0.6493
15700TIP3    H168515   3.980   0.506  11.397 -0.1223 -0.9584 -1.0651
15700TIP3    H268516   4.096   0.433  11.333  0.3661 -0.6445 -0.5559
15701TIP3   OH268517   4.525   0.714   0.806 -0.2594 -0.3344  0.1619
15701TIP3    H168518   4.600   0.695   0.749  0.5409 -1.8403  1.6524
15701TIP3    H268519   4.551   0.793   0.853 -0.1742 -0.0979 -0.2739
15702TIP3   OH268520   2.140   3.735  16.841 -0.0991 -0.8649  0.1717
15702TIP3    H168521   2.149   3.735  16.746 -2.3788  0.5298 -0.1149
15702TIP3    H268522   2.046   3.746  16.856  0.3126 -0.0928  2.5916
15703TIP3   OH268523   6.081   3.076  14.031  0.3398  0.6568 -0.4409
15703TIP3    H168524   6.007   3.020  14.007  0.6901 -0.0424  0.0677
15703TIP3    H268525   6.041   3.154  14.068 -0.1572 -0.3658  1.2838
15704TIP3   OH268526   2.073   0.879  15.836 -0.6726 -0.3185 -0.4812
15704TIP3    H168527   2.101   0.788  15.840  0.5291  0.0050 -1.0060
15704TIP3    H268528   2.034   0.896  15.922 -1.4788 -1.4796 -0.5893
15705TIP3   OH268529   0.742   0.331   6.044  0.1585 -0.2338  0.0120
15705TIP3    H168530   0.684   0.281   6.101 -0.4493  0.8524  0.3840
15705TIP3    H268531   0.693   0.341   5.962  0.1299  0.0364  0.0601
15706TIP3   OH268532   1.708   5.866   6.003  0.0076 -0.8550 -0.6482
15706TIP3    H168533   1.712   5.961   5.989 -1.5887 -0.8104 -1.0469
15706TIP3    H268534   1.794   5.834   5.976  0.0279  0.3015 -2.1184
15707TIP3   OH268535   0.470   4.977  15.525 -0.0983 -0.2104  0.0883
15707TIP3    H168536   0.421   5.052  15.491  0.1251  0.4221  1.1219
15707TIP3    H268537   0.431   4.960  15.611  0.1998 -0.9467  0.0829
15708TIP3   OH268538   0.113   6.494   5.269  0.1617  0.3163  0.4118
15708TIP3    H168539   0.155   6.550   5.203  0.1152  1.0049  0.9466
15708TIP3    H268540   0.058   6.434   5.219  0.6877  0.3472 -0.2129
15709TIP3   OH268541   0.076   6.324  12.168  0.5640 -0.0254 -0.2811
15709TIP3    H168542   0.002   6.349  12.112  0.6160  0.2624 -0.2203
15709TIP3    H268543   0.037   6.299  12.251  0.4209 -1.1762 -0.6796
15710TIP3   OH268544   1.950   3.819   6.043 -0.6934 -0.1159  0.0417
15710TIP3    H168545   2.032   3.786   6.080 -0.8853 -0.0525  0.5265
15710TIP3    H268546   1.977   3.896   5.992 -0.3950 -0.3535 -0.1621
15711TIP3   OH268547   4.606   3.974   1.727  0.0481  0.1988  0.2954
15711TIP3    H168548   4.604   4.003   1.818 -0.1245  3.2203 -0.5715
15711TIP3    H268549   4.695   3.941   1.715 -0.4094 -1.9045  1.9166
15712TIP3   OH268550   0.114   1.421  12.249  0.3248 -0.3116 -0.4103
15712TIP3    H168551   0.127   1.498  12.194  1.4039 -0.3096 -0.1738
15712TIP3    H268552   0.110   1.347  12.187  0.6757 -0.2148 -0.5519
15713TIP3   OH268553   0.964   2.358  16.640  0.6251  0.2697  0.3819
15713TIP3    H168554   0.959   2.269  16.676 -0.0733  0.3549  0.5152
15713TIP3    H268555   0.918   2.412  16.704  2.1407  0.9535  0.9491
15714TIP3   OH268556   5.675   0.495  11.155 -0.1486 -0.3365  0.2407
15714TIP3    H168557   5.635   0.525  11.236 -1.2863 -0.5321 -0.2197
15714TIP3    H268558   5.765   0.527  11.158 -0.5514  0.7585  0.9937
15715TIP3   OH268559   3.094   0.766  16.924 -0.3865  0.0196  0.1828
15715TIP3    H168560   3.090   0.847  16.873  0.4254 -0.6266 -0.9402
15715TIP3    H268561   3.072   0.697  16.861 -1.3799 -0.6307  1.1962
15716TIP3   OH268562   1.129   1.589  11.557 -0.0239  0.4473  0.2583
15716TIP3    H168563   1.053   1.617  11.506 -0.1485  1.8699  1.1755
15716TIP3    H268564   1.202   1.591  11.496 -0.8038 -1.7515 -0.8699
15717TIP3   OH268565   5.581   2.776  13.121  0.5659 -0.1886 -0.1725
15717TIP3    H168566   5.612   2.691  13.091 -0.1326 -0.5135  0.0087
15717TIP3    H268567   5.632   2.793  13.201  1.5064  0.0885 -0.8218
15718TIP3   OH268568   3.534   0.233   5.251  0.0899 -0.5587 -0.0123
15718TIP3    H168569   3.533   0.276   5.336 -1.1122  0.7887 -0.6807
15718TIP3    H268570   3.619   0.188   5.247  1.0533  1.1068  1.0238
15719TIP3   OH268571   1.977   1.455   0.072  0.1898 -0.0688  0.2023
15719TIP3    H168572   1.989   1.379   0.130  0.3896 -1.6339 -1.7953
15719TIP3    H268573   2.053   1.454   0.014 -1.5917 -0.6215 -2.2736
15720TIP3   OH268574   4.649   6.667   2.974 -0.0822  0.5198  0.2835
15720TIP3    H168575   4.654   6.762   2.986 -1.7076  0.7131 -0.2684
15720TIP3    H268576   4.556   6.650   2.958  0.1144 -1.2261  0.7831
15721TIP3   OH268577   2.544   3.842   2.417  0.7023  0.0857  0.2987
15721TIP3    H168578   2.492   3.859   2.338 -0.0954  2.1519  1.1946
15721TIP3    H268579   2.615   3.785   2.387 -1.8491 -2.6328 -1.0191
15722TIP3   OH268580   5.112   3.923   3.611 -0.1346 -0.1415 -0.6768
15722TIP3    H168581   5.035   3.867   3.599 -0.8710  0.9336 -1.1000
15722TIP3    H268582   5.177   3.887   3.550 -0.1194 -1.3292  0.0064
15723TIP3   OH268583   4.987   2.155  15.768  0.3651 -0.1111  0.4537
15723TIP3    H168584   4.952   2.240  15.739  2.3610  0.8340  0.5821
15723TIP3    H268585   5.074   2.151  15.727  0.6304 -1.7240  1.1266
15724TIP3   OH268586   0.925   2.663  14.899  0.1824 -0.5601 -0.3651
15724TIP3    H168587   0.967   2.652  14.813  2.1946  1.9561  0.1539
15724TIP3    H268588   0.926   2.758  14.913 -2.8508 -0.6629  1.1869
15725TIP3   OH268589   1.249   5.175   6.046  0.4125  0.5953 -0.7946
15725TIP3    H168590   1.271   5.098   5.993 -1.0864 -0.0963 -0.4704
15725TIP3    H268591   1.210   5.138   6.125  1.5273  1.6517  0.2826
15726TIP3   OH268592   5.406   0.386  11.176  0.7087 -0.3121  0.0100
15726TIP3    H168593   5.497   0.408  11.198  0.7242  0.0696 -0.4258
15726TIP3    H268594   5.357   0.406  11.256  1.0165 -0.6189  0.2827
15727TIP3   OH268595   2.922   6.336  14.153 -0.0599  0.3513 -0.4179
15727TIP3    H168596   3.009   6.329  14.115  0.7424 -0.1383  1.4085
15727TIP3    H268597   2.910   6.254  14.201 -1.2883  0.6546 -0.1614
15728TIP3   OH268598   4.252   2.349  15.627 -0.1790  0.1910  0.5111
15728TIP3    H168599   4.208   2.405  15.562  1.8142  1.6041  0.2822
15728TIP3    H268600   4.342   2.343  15.596  0.9506  1.1726  3.2577
15729TIP3   OH268601   1.181   2.999  16.802 -0.6177  1.1723 -0.1309
15729TIP3    H168602   1.183   2.903  16.807 -0.1491  1.1016 -1.2794
15729TIP3    H268603   1.088   3.021  16.802 -0.8239  0.5303 -2.2698
15730TIP3   OH268604   3.792   6.268   0.984  0.3247  0.5992 -0.1226
15730TIP3    H168605   3.798   6.333   0.914 -0.8143  0.3746 -0.4520
15730TIP3    H268606   3.715   6.215   0.961 -1.1053  1.5585  2.1524
15731TIP3   OH268607   0.295   5.279   6.261 -0.0754 -0.1560  0.5973
15731TIP3    H168608   0.356   5.213   6.228  0.0924  0.1042  0.3873
15731TIP3    H268609   0.346   5.327   6.327 -0.0319  0.1011  0.3785
15732TIP3   OH268610   0.348   2.558  13.981  0.2574  0.1714 -0.5434
15732TIP3    H168611   0.407   2.617  14.027  0.4259 -1.0873  0.9036
15732TIP3    H268612   0.275   2.614  13.955  1.6592  1.5760 -1.6555
15733TIP3   OH268613   6.537   2.934  17.063 -0.0583  0.1190 -0.0139
15733TIP3    H168614   6.526   2.841  17.041  1.4513 -0.2644  0.7122
15733TIP3    H268615   6.578   2.972  16.985  0.3562 -0.0739  0.1071
15734TIP3   OH268616   3.281   3.854  14.040 -0.1686  0.3660  0.3387
15734TIP3    H168617   3.203   3.862  13.984 -0.2540 -0.8733  0.2409
15734TIP3    H268618   3.311   3.764  14.026  2.1970  1.2447 -0.7785
15735TIP3   OH268619   3.429   6.635   1.900 -0.2846 -0.2665  0.4642
15735TIP3    H168620   3.439   6.702   1.968  0.7676 -1.1449  1.2245
15735TIP3    H268621   3.380   6.678   1.831 -1.1436  0.7637  1.6592
15736TIP3   OH268622   2.661   1.490  16.322 -0.1776 -0.7159 -0.1779
15736TIP3    H168623   2.648   1.570  16.374  0.3875 -0.0704 -0.9933
15736TIP3    H268624   2.712   1.519  16.247 -1.4544 -1.4902 -1.4066
15737TIP3   OH268625   0.069   5.884  14.812  0.2394  0.1297  0.1861
15737TIP3    H168626  -0.014   5.837  14.821  0.8781 -0.8953  0.9474
15737TIP3    H268627   0.099   5.862  14.724 -0.0997  0.1693  0.0584
15738TIP3   OH268628   3.698   2.333  16.893 -0.6373  0.0101  0.3698
15738TIP3    H168629   3.620   2.291  16.929  0.2996 -1.5329  0.7067
15738TIP3    H268630   3.768   2.310  16.954  0.7454 -1.5366 -1.6298
15739TIP3   OH268631   1.133   5.737  14.058  0.7870  0.0784  0.4833
15739TIP3    H168632   1.117   5.644  14.046  2.3096 -0.2589  0.8602
15739TIP3    H268633   1.207   5.756  14.001  0.2776  1.1508  0.1494
15740TIP3   OH268634   1.954   4.527   3.495  0.6273 -0.6899  0.1190
15740TIP3    H168635   1.930   4.499   3.406  0.2783 -1.4236  0.4310
15740TIP3    H268636   1.903   4.470   3.552  1.3739 -0.6915  0.8019
15741TIP3   OH268637   1.929   2.272  15.315  0.3678 -0.0539 -0.3724
15741TIP3    H168638   1.882   2.201  15.271 -1.2041  1.0636 -0.5828
15741TIP3    H268639   1.950   2.333  15.244  1.4101 -0.1230 -0.1403
15742TIP3   OH268640   1.665   0.210  16.261  0.2957  0.3076 -0.2668
15742TIP3    H168641   1.690   0.132  16.311  0.7352  0.7668  0.2512
15742TIP3    H268642   1.702   0.196  16.174 -1.0907 -0.8272 -0.7010
15743TIP3   OH268643   2.997   5.257   1.032 -0.0108 -0.2922  0.5046
15743TIP3    H168644   3.091   5.272   1.019 -0.1573 -0.5730 -1.0704
15743TIP3    H268645   2.957   5.279   0.948 -1.4436  0.3532  1.3200
15744TIP3   OH268646   2.639   4.049   2.013 -0.0999 -0.7199 -0.0277
15744TIP3    H168647   2.604   3.966   1.980 -2.1411  0.2582 -0.4606
15744TIP3    H268648   2.577   4.076   2.080  1.1097 -0.0372  0.8395
15745TIP3   OH268649   5.915   3.517   5.230 -0.4747 -0.6053 -0.3452
15745TIP3    H168650   5.894   3.476   5.314  0.6351 -2.3688 -0.8651
15745TIP3    H268651   5.996   3.473   5.202 -0.6292  0.1907 -2.1590
15746TIP3   OH268652   1.904   0.909  13.344  1.0291 -0.3855 -0.3233
15746TIP3    H168653   1.885   0.815  13.352 -2.4700  0.2220 -0.1159
15746TIP3    H268654   1.995   0.917  13.372  1.8155 -3.8332 -1.3864
15747TIP3   OH268655   3.292   0.306   2.757 -0.0390 -0.3557  0.4618
15747TIP3    H168656   3.274   0.340   2.844  1.6083 -0.4796  0.8878
15747TIP3    H268657   3.366   0.246   2.770  0.6916  0.1432 -1.1101
15748TIP3   OH268658   3.940   3.361   4.935 -0.2471 -0.2842 -0.6048
15748TIP3    H168659   3.978   3.288   4.984  0.2393 -0.5094 -1.2981
15748TIP3    H268660   4.016   3.417   4.914 -0.5419  0.1471 -0.5374
15749TIP3   OH268661   4.440   5.627  13.580 -0.2894  0.0677 -0.0032
15749TIP3    H168662   4.468   5.709  13.621  1.6631 -0.4298 -0.2511
15749TIP3    H268663   4.507   5.610  13.514 -1.5086 -0.9446 -1.0356
15750TIP3   OH268664   3.341   0.566   1.399 -0.3470 -0.1500 -0.4310
15750TIP3    H168665   3.269   0.627   1.419 -1.1927 -1.2745  0.1201
15750TIP3    H268666   3.333   0.548   1.306 -0.8754 -0.3487 -0.3540
15751TIP3   OH268667   5.125   2.468   0.200 -0.3246 -0.4597 -0.1540
15751TIP3    H168668   5.172   2.547   0.225  1.7029 -1.6623 -0.0092
15751TIP3    H268669   5.191   2.412   0.160 -1.7007 -2.1204 -0.2044
15752TIP3   OH268670   3.298   5.350   0.221 -0.5932 -0.0529  0.2634
15752TIP3    H168671   3.278   5.404   0.297 -0.9217 -1.9759  1.6022
15752TIP3    H268672   3.212   5.329   0.183 -0.4692  0.3623 -0.2506
15753TIP3   OH268673   2.785   3.865  12.494 -0.8760 -0.6094  0.1833
15753TIP3    H168674   2.821   3.953  12.488 -1.2515 -0.4457  0.2995
15753TIP3    H268675   2.817   3.820  12.416 -1.9521  0.0913 -0.6816
15754TIP3   OH268676   0.893   5.848   3.587 -0.3191  0.1599 -0.6393
15754TIP3    H168677   0.831   5.916   3.613 -1.3562 -0.2019 -2.0538
15754TIP3    H268678   0.892   5.786   3.660 -2.1192 -0.1464 -0.8607
15755TIP3   OH268679   1.105   4.321   5.605 -0.1424  0.2848  0.1975
15755TIP3    H168680   1.150   4.402   5.628 -0.9672  0.7989  0.0284
15755TIP3    H268681   1.118   4.264   5.681 -0.0027  0.7621  0.5379
15756TIP3   OH268682   2.053   6.389  11.486 -0.8484 -0.5352 -0.5056
15756TIP3    H168683   1.967   6.351  11.501 -0.9420 -0.7063 -1.4332
15756TIP3    H268684   2.037   6.465  11.430 -0.3132 -1.0626 -1.3877
15757TIP3   OH268685   1.449   2.614   1.409  0.1133 -0.0195  0.6412
15757TIP3    H168686   1.536   2.574   1.417 -0.4923 -1.5255  0.0151
15757TIP3    H268687   1.452   2.660   1.325  0.1867 -0.3817  0.4440
15758TIP3   OH268688   5.529   6.205  14.508  0.7345  0.2510 -0.1069
15758TIP3    H168689   5.562   6.155  14.583  0.4596 -0.0414 -0.1737
15758TIP3    H268690   5.447   6.160  14.484  0.9333  0.1999 -0.7240
15759TIP3   OH268691   3.615   5.573  12.085  0.2476  0.5208 -0.5391
15759TIP3    H168692   3.589   5.610  12.001 -1.1259  0.6915 -0.0776
15759TIP3    H268693   3.657   5.645  12.131  0.2022  0.6786 -0.7457
15760TIP3   OH268694   2.814   6.167   0.699 -0.2094 -0.3216  0.3081
15760TIP3    H168695   2.763   6.147   0.620 -0.2970 -1.0932  0.5540
15760TIP3    H268696   2.901   6.130   0.682 -0.5198 -1.3904  0.9752
15761TIP3   OH268697   5.620   3.279   1.153 -0.1279  0.2686  0.3041
15761TIP3    H168698   5.683   3.274   1.081  0.3758 -0.5016  0.7858
15761TIP3    H268699   5.604   3.187   1.177 -0.6449  0.5033  0.8715
15762TIP3   OH268700   4.403   6.561  11.865  0.2636  0.5029 -0.3138
15762TIP3    H168701   4.481   6.545  11.813  0.4102  2.4672 -0.7932
15762TIP3    H268702   4.357   6.631  11.818  0.1964  2.0756  1.9480
15763TIP3   OH268703   0.606   1.089   3.533 -0.4646  0.5621  0.0302
15763TIP3    H168704   0.607   1.130   3.619  0.9775 -1.0696  0.8490
15763TIP3    H268705   0.650   1.005   3.546 -0.7038  0.0378 -2.1887
15764TIP3   OH268706   1.932   5.508   1.957  0.3918 -0.3644 -0.3128
15764TIP3    H168707   2.001   5.568   1.928  1.8508 -0.8738  1.8692
15764TIP3    H268708   1.977   5.425   1.974 -1.3281 -1.7109 -1.7886
15765TIP3   OH268709   0.062   4.721   5.471  0.3525  0.3735  0.1453
15765TIP3    H168710   0.062   4.816   5.465 -0.3162  0.3030 -1.3240
15765TIP3    H268711   0.037   4.691   5.384  1.9211 -1.1828  0.1680
15766TIP3   OH268712   3.547   5.697  11.556 -0.1755  0.4946 -0.4087
15766TIP3    H168713   3.546   5.787  11.524  2.0479  0.7783  0.1750
15766TIP3    H268714   3.611   5.652  11.501 -0.7243 -0.5524 -0.2244
15767TIP3   OH268715   1.204   1.119   0.956 -0.0682 -0.4894  0.3528
15767TIP3    H168716   1.204   1.215   0.955 -0.0116 -0.4809  1.1205
15767TIP3    H268717   1.127   1.096   1.008  1.4640 -0.8149  2.6278
15768TIP3   OH268718   4.145   2.591   2.978 -0.0221  0.3518  0.4605
15768TIP3    H168719   4.234   2.612   3.005  0.2073 -0.6025  0.4926
15768TIP3    H268720   4.154   2.514   2.922 -0.8165  0.3040  0.3792
15769TIP3   OH268721   6.634   1.158  13.844 -0.2444  0.4553  0.0796
15769TIP3    H168722   6.620   1.156  13.938 -1.8361  0.7107 -0.1227
15769TIP3    H268723   6.564   1.104  13.808  0.4228  0.2403 -0.9564
15770TIP3   OH268724   6.437   2.862   5.707 -0.1784  0.3706 -0.3878
15770TIP3    H168725   6.512   2.802   5.715 -1.4874 -1.4090 -0.8079
15770TIP3    H268726   6.425   2.872   5.612 -1.1681 -0.3201 -0.3523
15771TIP3   OH268727   3.090   3.920   4.619 -0.4043  0.1089 -0.4533
15771TIP3    H168728   3.180   3.951   4.606  0.0779 -1.4689 -1.1458
15771TIP3    H268729   3.036   3.996   4.603  0.8173  1.1426  0.1513
15772TIP3   OH268730   4.706   4.185   0.467  0.2713  0.0587  0.3722
15772TIP3    H168731   4.706   4.215   0.558 -0.1058  2.9908 -0.4874
15772TIP3    H268732   4.614   4.173   0.445  0.4195 -2.5264  0.8394
15773TIP3   OH268733   2.270   1.545   2.604  0.5582 -0.1653 -0.0003
15773TIP3    H168734   2.236   1.601   2.674  1.1852 -1.7692  1.6906
15773TIP3    H268735   2.204   1.548   2.535 -0.8159  0.3509  1.2841
15774TIP3   OH268736   6.237   6.117  13.064 -0.7687 -0.1054 -0.1908
15774TIP3    H168737   6.148   6.134  13.094 -0.8716  1.4795 -1.2430
15774TIP3    H268738   6.239   6.153  12.975  1.1068  0.5463  0.0743
15775TIP3   OH268739   5.247   3.181  15.590  0.0571  0.5717 -0.2601
15775TIP3    H168740   5.267   3.209  15.501  1.2911  0.9814  0.1251
15775TIP3    H268741   5.173   3.121  15.581  0.3332  0.4170 -1.5714
15776TIP3   OH268742   4.429   3.149  14.045  0.2576 -0.1512  0.0135
15776TIP3    H168743   4.443   3.243  14.040  1.3628 -0.2878  0.2831
15776TIP3    H268744   4.420   3.121  13.953 -0.9534  0.3203 -0.0303
15777TIP3   OH268745   2.047   0.358   0.192 -0.1592  0.2232  0.3159
15777TIP3    H168746   2.037   0.454   0.189  3.4891  0.7191  0.2110
15777TIP3    H268747   2.104   0.343   0.267  0.8288 -1.6840 -0.7648
15778TIP3   OH268748   2.584   1.734  13.293 -0.0484 -0.0641  0.6330
15778TIP3    H168749   2.666   1.736  13.242 -0.5498  0.3633 -0.1771
15778TIP3    H268750   2.576   1.822  13.328 -0.7607  0.2494 -0.2838
15779TIP3   OH268751   1.229   0.236   3.388 -0.1618  0.0390  0.4614
15779TIP3    H168752   1.166   0.241   3.460 -0.1142  1.6293  0.4282
15779TIP3    H268753   1.294   0.303   3.408 -0.0522  0.3837 -0.9749
15780TIP3   OH268754   1.255   4.625  16.237 -0.0288  0.4103 -0.5395
15780TIP3    H168755   1.221   4.576  16.162 -0.9512 -0.0984  0.1814
15780TIP3    H268756   1.176   4.649  16.287  0.6675 -0.9364  1.2843
15781TIP3   OH268757   6.265   2.721   4.618  0.3467  0.2453 -0.2501
15781TIP3    H168758   6.220   2.649   4.575 -1.2132  0.4062  1.0486
15781TIP3    H268759   6.314   2.764   4.547 -0.5099 -0.7026 -1.4544
15782TIP3   OH268760   1.014   0.575  13.022 -0.3482  0.0025  0.2182
15782TIP3    H168761   1.008   0.536  12.934  0.8559  0.9952 -0.3318
15782TIP3    H268762   1.107   0.593  13.034 -0.7439  1.7681  0.8683
15783TIP3   OH268763   3.380   4.150   5.327 -0.2636  0.6935 -0.3071
15783TIP3    H168764   3.454   4.211   5.317  0.0264  0.5373  0.7719
15783TIP3    H268765   3.418   4.064   5.309 -0.4758  0.7351 -0.9747
15784TIP3   OH268766   0.771   2.203   0.360 -0.3435  0.0567  0.2144
15784TIP3    H168767   0.779   2.290   0.322 -0.6145  0.0347  0.0999
15784TIP3    H268768   0.677   2.183   0.352 -0.2987 -0.2004  0.3362
15785TIP3   OH268769   1.948   6.466  13.072  0.0723  0.2930  0.0213
15785TIP3    H168770   1.934   6.476  12.978  0.1002  1.2495  0.1048
15785TIP3    H268771   2.043   6.471  13.082  0.0464  0.6134  0.1327
15786TIP3   OH268772   3.232   6.012  14.874  0.9401 -0.0762  0.0209
15786TIP3    H168773   3.139   6.025  14.853  0.9589  0.0535  0.0157
15786TIP3    H268774   3.278   6.072  14.814  1.0411 -0.3480 -0.1732
15787TIP3   OH268775   5.081   5.421   1.213  0.3103  0.1472 -0.0384
15787TIP3    H168776   5.011   5.476   1.177 -0.8181 -1.3350 -0.2039
15787TIP3    H268777   5.049   5.331   1.203  1.6033 -0.5044  1.2408
15788TIP3   OH268778   0.200   3.413   2.731  0.1048  0.5681  0.2647
15788TIP3    H168779   0.163   3.421   2.819 -0.2948 -1.5657  0.3353
15788TIP3    H268780   0.157   3.336   2.693  1.3143  0.5865 -1.2702
15789TIP3   OH268781   6.331   3.746   2.702 -0.2055 -0.1221  0.4805
15789TIP3    H168782   6.337   3.731   2.796  0.0472 -0.7809  0.3679
15789TIP3    H268783   6.310   3.660   2.665  1.2756 -0.2188 -0.2063
15790TIP3   OH268784   4.319   3.827  13.929 -0.0844 -0.1649 -0.1363
15790TIP3    H168785   4.359   3.777  14.000 -1.2464 -0.6654  0.1784
15790TIP3    H268786   4.351   3.785  13.849  0.8273  0.0896  0.0826
15791TIP3   OH268787   4.398   1.256   4.729  0.1399  0.0388  0.2039
15791TIP3    H168788   4.439   1.183   4.684  0.0612  0.4873 -0.6100
15791TIP3    H268789   4.304   1.235   4.730 -0.0968  0.8217 -1.4201
15792TIP3   OH268790   0.110   2.284  13.283 -0.1278  0.4678  0.0242
15792TIP3    H168791   0.069   2.326  13.207 -0.6742 -0.8612 -0.4348
15792TIP3    H268792   0.140   2.199  13.252  1.7011  0.7844  0.7320
15793TIP3   OH268793   5.347   0.862   3.140 -0.0478  0.3796  0.2791
15793TIP3    H168794   5.331   0.825   3.226  2.3127 -0.4265  0.4259
15793TIP3    H268795   5.387   0.791   3.090 -0.8796  0.9931 -1.3282
15794TIP3   OH268796   3.623   1.670   5.446  0.0371 -0.1125 -0.1015
15794TIP3    H168797   3.583   1.703   5.526 -0.6466 -1.7031  0.2399
15794TIP3    H268798   3.600   1.735   5.380 -1.1152  0.1980  0.5785
15795TIP3   OH268799   0.315   0.145  14.392  0.1925  0.3903 -0.5237
15795TIP3    H168800   0.245   0.203  14.420 -1.3680 -0.6430 -2.0719
15795TIP3    H268801   0.272   0.061  14.377  2.3122 -1.1286  1.3007
15796TIP3   OH268802   5.202   4.948  13.550  0.1868 -0.1809  0.4554
15796TIP3    H168803   5.131   4.959  13.613 -0.5721 -1.6249 -0.1034
15796TIP3    H268804   5.197   4.856  13.524  1.3779  0.0363 -0.6542
15797TIP3   OH268805   3.458   0.560  14.007 -0.3570  0.6327  0.0931
15797TIP3    H168806   3.399   0.588  13.937 -1.2296 -0.9848  0.1140
15797TIP3    H268807   3.536   0.527  13.961 -0.4771  0.5719 -0.0678
15798TIP3   OH268808   1.180   1.892  12.336 -0.1139  0.2815  0.5344
15798TIP3    H168809   1.216   1.804  12.325 -0.7149 -0.0493  1.1393
15798TIP3    H268810   1.248   1.941  12.381  0.4131  0.2693 -0.2299
15799TIP3   OH268811   0.657   1.887   1.077  0.5068 -0.4019  0.2735
15799TIP3    H168812   0.566   1.909   1.099 -0.5889 -3.3326 -0.8756
15799TIP3    H268813   0.703   1.889   1.161 -0.8148  0.2085  1.0148
15800TIP3   OH268814   6.148   6.617  13.450 -0.4341  0.7165  0.1382
15800TIP3    H168815   6.193   6.699  13.434 -0.3121  0.3773 -1.4095
15800TIP3    H268816   6.216   6.550  13.446 -0.3140  0.6107  2.6750
15801TIP3   OH268817   4.465   5.181   2.441 -0.3465  0.0001 -0.7986
15801TIP3    H168818   4.529   5.113   2.462 -0.3778  0.5467  1.3200
15801TIP3    H268819   4.408   5.141   2.375 -1.4689 -2.7545  1.6241
15802TIP3   OH268820   3.395   1.567  12.783  0.5935 -0.2077 -0.1434
15802TIP3    H168821   3.397   1.475  12.754 -4.3514 -0.6558 -0.0220
15802TIP3    H268822   3.373   1.562  12.876  1.4240  1.1249  0.1411
15803TIP3   OH268823   5.012   6.121   1.423 -0.0699  0.3063 -0.5398
15803TIP3    H168824   4.997   6.050   1.361  0.2219 -1.0158  0.8424
15803TIP3    H268825   5.107   6.123   1.435 -0.2382 -0.7056  1.2292
15804TIP3   OH268826   2.944   2.489   2.723  0.4320  0.2894 -0.0908
15804TIP3    H168827   3.008   2.456   2.787  1.0209  1.1451 -0.2180
15804TIP3    H268828   2.986   2.566   2.685 -0.4544  0.5425 -0.5848
15805TIP3   OH268829   2.730   5.443  14.016 -0.1091  0.0535 -0.1570
15805TIP3    H168830   2.814   5.412  14.051  0.2453  0.9568 -0.1824
15805TIP3    H268831   2.667   5.375  14.041  0.7583 -1.0301 -0.8057
15806TIP3   OH268832   5.565   1.026   5.788  0.7774 -0.1509 -0.0511
15806TIP3    H168833   5.537   1.063   5.704  2.7923 -0.0286 -0.7262
15806TIP3    H268834   5.589   1.103   5.840 -1.1288 -0.1811  0.9349
15807TIP3   OH268835   2.431   4.582   0.584 -0.0203  0.1700  0.3079
15807TIP3    H168836   2.422   4.487   0.583  0.6944  0.0817  1.0279
15807TIP3    H268837   2.375   4.612   0.656 -1.3578  0.4446 -0.8067
15808TIP3   OH268838   1.716   4.223  10.518 -0.1347 -0.0638 -0.1131
15808TIP3    H168839   1.766   4.143  10.507 -0.7459 -0.7726  1.8068
15808TIP3    H268840   1.654   4.224  10.445  0.4200 -0.9111 -0.6072
15809TIP3   OH268841   5.531   4.294  14.591  0.7788 -0.2243  0.6165
15809TIP3    H168842   5.573   4.217  14.553 -0.1064 -1.6089  2.2979
15809TIP3    H268843   5.438   4.274  14.588  0.3956  1.5166 -0.3739
15810TIP3   OH268844   1.089   4.361  17.148  0.0465 -0.1603 -0.0266
15810TIP3    H168845   1.170   4.317  17.125  0.1373  0.9373 -1.9995
15810TIP3    H268846   1.116   4.435  17.203  0.4548  0.5071 -1.1133
15811TIP3   OH268847   2.447   4.960   3.414  0.2691 -0.1186 -0.2583
15811TIP3    H168848   2.486   5.025   3.472  1.2510  1.6499 -2.7129
15811TIP3    H268849   2.357   4.950   3.445  0.2880  1.9463  0.6113
15812TIP3   OH268850   1.974   0.858  17.239 -0.0312 -0.3067  0.7834
15812TIP3    H168851   1.920   0.871  17.316  0.2408  1.3920  0.7474
15812TIP3    H268852   2.034   0.934  17.239 -0.5553  0.1938 -1.4842
15813TIP3   OH268853   6.253   0.460  11.898 -0.3896 -0.1657  0.1166
15813TIP3    H168854   6.231   0.553  11.897 -1.6273 -0.4406  0.2673
15813TIP3    H268855   6.169   0.415  11.901  0.2009 -1.2673  2.1447
15814TIP3   OH268856   0.319   3.365   5.107 -0.3097  0.4187 -1.4078
15814TIP3    H168857   0.354   3.428   5.044  1.5981  1.0871  0.2093
15814TIP3    H268858   0.396   3.336   5.157 -1.7031 -0.1618  0.5263
15815TIP3   OH268859   0.511   2.917   2.774  0.5194  0.1759 -0.1813
15815TIP3    H168860   0.470   2.990   2.728 -0.0645  0.0086  0.0642
15815TIP3    H268861   0.464   2.840   2.744  0.4431  0.0143  0.3405
15816TIP3   OH268862   0.814   0.037   5.521 -0.2288  0.1201 -0.1207
15816TIP3    H168863   0.756  -0.037   5.503 -0.4082  0.0058  0.8661
15816TIP3    H268864   0.758   0.114   5.514 -0.7344 -0.0409  1.6354
15817TIP3   OH268865   1.711   1.789   2.773 -0.1158  0.4704  0.3735
15817TIP3    H168866   1.627   1.806   2.729  1.4204  1.0171 -2.5804
15817TIP3    H268867   1.725   1.866   2.827 -0.7903  1.0969 -0.3171
15818TIP3   OH268868   4.803   3.163   5.329  0.1201 -0.2457 -0.1762
15818TIP3    H168869   4.713   3.147   5.301  0.0573  0.7298 -0.5611
15818TIP3    H268870   4.823   3.250   5.296  1.9443 -1.2707 -2.0098
15819TIP3   OH268871   3.892   2.211   3.772 -0.1410  0.8104  0.2339
15819TIP3    H168872   3.942   2.137   3.805  2.4462  2.4636  0.2556
15819TIP3    H268873   3.813   2.213   3.826 -0.8107 -2.4547 -0.4228
15820TIP3   OH268874   2.142   5.060  12.442 -0.4666  0.2741  0.1955
15820TIP3    H168875   2.122   5.134  12.384  0.7479  0.8432  0.4747
15820TIP3    H268876   2.114   4.983  12.394  1.2985  0.6567 -1.5509
15821TIP3   OH268877   6.116   3.584  12.241  1.0003 -0.6891  0.3917
15821TIP3    H168878   6.111   3.676  12.267  0.0834  0.2607 -2.7791
15821TIP3    H268879   6.202   3.575  12.200 -0.0610 -0.3644 -2.0491
15822TIP3   OH268880   0.435   4.686  15.951  0.0381  0.6102  0.8903
15822TIP3    H168881   0.350   4.726  15.969  0.0105  0.1388  1.8375
15822TIP3    H268882   0.417   4.620  15.884 -0.6428 -0.5990  2.2223
15823TIP3   OH268883   3.650   5.647   4.708 -0.3872 -0.1988 -0.3950
15823TIP3    H168884   3.693   5.568   4.675 -0.1082 -0.8962  1.5005
15823TIP3    H268885   3.705   5.675   4.781 -0.6686  1.5792 -0.8136
15824TIP3   OH268886   0.493   2.721   4.840  0.4650 -0.1659  0.1068
15824TIP3    H168887   0.442   2.802   4.849  1.2607  0.2478  1.2411
15824TIP3    H268888   0.429   2.655   4.815 -0.0144  1.0169 -1.9787
15825TIP3   OH268889   5.813   4.396   6.050 -0.1623  0.0800  0.2492
15825TIP3    H168890   5.869   4.374   6.125  2.6036 -1.1764 -2.0046
15825TIP3    H268891   5.754   4.322   6.041  0.0149 -0.1211  0.7060
15826TIP3   OH268892   3.588   1.699   6.394  0.4753 -0.1187 -0.0510
15826TIP3    H168893   3.659   1.719   6.332  0.4707  0.9028  0.2488
15826TIP3    H268894   3.508   1.724   6.348  0.3607 -0.5631 -0.1023
15827TIP3   OH268895   0.370   5.180   0.910 -0.1489 -0.4442  0.6089
15827TIP3    H168896   0.403   5.120   0.844 -1.5501 -1.0256  0.4192
15827TIP3    H268897   0.383   5.267   0.872  0.5624 -0.6825  0.2857
15828TIP3   OH268898   2.268   0.731  14.765  0.4988 -0.8139  0.1546
15828TIP3    H168899   2.260   0.752  14.672  2.7668 -0.0483  0.0790
15828TIP3    H268900   2.338   0.666  14.769  1.4802  0.2696  1.4290
15829TIP3   OH268901   3.621   4.600   6.065 -0.2337  0.0656 -0.4040
15829TIP3    H168902   3.674   4.571   6.140 -0.5964  1.7923  0.5837
15829TIP3    H268903   3.543   4.545   6.068 -0.8258  0.9155  1.2897
15830TIP3   OH268904   1.387   2.242  15.149  0.7138  0.1750  0.6155
15830TIP3    H168905   1.322   2.273  15.212 -0.2370 -1.1246  0.3208
15830TIP3    H268906   1.422   2.162  15.189  1.1118  0.1065  0.1356
15831TIP3   OH268907   5.934   4.601   6.326 -0.0871  0.3433  0.3183
15831TIP3    H168908   5.875   4.574   6.397  0.8995  1.1558  1.5027
15831TIP3    H268909   6.013   4.632   6.372  0.5683  0.9312 -1.1493
15832TIP3   OH268910   2.953   4.384   4.196 -0.4370 -0.2040  0.4582
15832TIP3    H168911   2.966   4.428   4.280  1.6920  1.9571 -0.8890
15832TIP3    H268912   2.877   4.428   4.157  0.5656  1.0969 -0.0942
15833TIP3   OH268913   5.768   0.449   2.921 -0.1601  0.0815 -0.5480
15833TIP3    H168914   5.718   0.368   2.915 -1.3872  0.6380  1.3743
15833TIP3    H268915   5.774   0.467   3.015  0.2863  2.0744 -0.9148
15834TIP3   OH268916   0.534   1.083   4.021 -0.9364 -0.1746 -0.3487
15834TIP3    H168917   0.591   1.089   4.098 -0.4840  0.2469 -0.7119
15834TIP3    H268918   0.451   1.122   4.050 -1.5912 -2.1649  0.6606
15835TIP3   OH268919   5.671   3.945  15.312  0.4779  0.4485  0.2873
15835TIP3    H168920   5.656   3.891  15.234 -0.2169  0.1702  0.6026
15835TIP3    H268921   5.610   4.018  15.303 -0.1538  0.0196  0.9264
15836TIP3   OH268922   3.077   1.530  13.004  0.0130 -0.0388  0.2152
15836TIP3    H168923   3.064   1.609  13.056 -1.5261  0.5008 -0.9229
15836TIP3    H268924   3.171   1.528  12.986 -0.0043  1.8625 -0.2262
15837TIP3   OH268925   3.307   6.178   4.839 -0.0664  0.5650 -0.0280
15837TIP3    H168926   3.368   6.162   4.911  0.8957  0.0927 -0.9091
15837TIP3    H268927   3.359   6.228   4.775 -0.5278 -0.0311 -0.8892
15838TIP3   OH268928   2.786   3.510  16.938  0.1860  0.2731 -0.1336
15838TIP3    H168929   2.800   3.604  16.941  0.8809  0.1745 -0.0844
15838TIP3    H268930   2.770   3.491  16.845 -0.3079  0.4813 -0.0950
15839TIP3   OH268931   4.768   4.542  16.731  0.3895 -0.5671  0.4397
15839TIP3    H168932   4.680   4.580  16.732  0.5025  0.0381 -2.5035
15839TIP3    H268933   4.758   4.456  16.772 -1.5864 -0.5248  0.1247
15840TIP3   OH268934   2.060   2.149   2.326  0.4312  0.0261  0.0569
15840TIP3    H168935   2.120   2.221   2.310 -1.3382  1.6874  0.5103
15840TIP3    H268936   2.049   2.106   2.240  0.1398  1.4299 -0.6306
15841TIP3   OH268937   3.188   1.177   2.628 -0.1658 -0.5384  0.2542
15841TIP3    H168938   3.274   1.208   2.598 -0.8356  1.0152 -0.1277
15841TIP3    H268939   3.209   1.113   2.696  1.3338  1.8477  2.2138
15842TIP3   OH268940   0.128   2.650   1.770  0.1932  0.6981  0.1140
15842TIP3    H168941   0.044   2.691   1.750  0.1920  0.1993 -0.9962
15842TIP3    H268942   0.175   2.650   1.687  0.8288 -0.0868  0.4525
15843TIP3   OH268943   5.793   4.559  17.326 -0.5054  0.6099  0.0063
15843TIP3    H168944   5.832   4.627  17.382  0.4505 -0.4158  0.6239
15843TIP3    H268945   5.737   4.509  17.385  1.1911 -1.0260  0.3099
15844TIP3   OH268946   0.866   3.977   3.235 -0.0391  0.0857 -0.0782
15844TIP3    H168947   0.960   3.985   3.219 -0.2846 -0.1723 -1.9035
15844TIP3    H268948   0.855   3.887   3.266  0.2989  0.0681  0.0006
15845TIP3   OH268949   5.043   1.376  13.354 -0.2465 -0.0068 -0.3571
15845TIP3    H168950   5.081   1.412  13.434  1.2549 -0.7927 -0.6978
15845TIP3    H268951   5.113   1.382  13.289 -0.0008 -3.2477 -0.5150
15846TIP3   OH268952   5.407   3.495  11.711 -0.6014 -0.1215  0.3619
15846TIP3    H168953   5.477   3.446  11.668 -0.5677  0.0178  0.2568
15846TIP3    H268954   5.329   3.476  11.659 -0.0226  2.4589 -1.6725
15847TIP3   OH268955   2.158   6.393   5.804  0.0800 -0.5968 -0.3303
15847TIP3    H168956   2.197   6.319   5.758 -0.8130 -0.8024 -0.7759
15847TIP3    H268957   2.174   6.375   5.897 -0.9143 -1.8283 -0.3666
15848TIP3   OH268958   0.889   0.438  15.742 -0.0748  0.1861 -0.2752
15848TIP3    H168959   0.909   0.399  15.658 -1.5281  0.5730 -0.8432
15848TIP3    H268960   0.907   0.369  15.806 -0.4178 -0.6404 -1.0441
15849TIP3   OH268961   4.747   1.540   1.331 -0.0953 -0.3680 -0.3879
15849TIP3    H168962   4.737   1.616   1.274  1.2771 -0.0271 -0.2019
15849TIP3    H268963   4.835   1.548   1.367  0.0929 -2.0851 -0.3997
15850TIP3   OH268964   4.070   0.511  16.857  0.5151  0.2333 -0.5914
15850TIP3    H168965   3.995   0.566  16.837 -0.1760 -1.0195 -1.6041
15850TIP3    H268966   4.135   0.571  16.893 -1.5961  1.0916  2.0995
15851TIP3   OH268967   2.479   3.516   3.665 -0.7683  0.2490 -0.1794
15851TIP3    H168968   2.543   3.562   3.719 -1.5813  0.6325  0.4845
15851TIP3    H268969   2.526   3.440   3.631 -0.2939 -0.1469  1.2802
15852TIP3   OH268970   0.952   2.359   4.958  0.8586 -0.4159 -0.7300
15852TIP3    H168971   0.895   2.436   4.955 -0.0281 -0.9145  1.2249
15852TIP3    H268972   1.028   2.383   4.905 -0.3037  1.0168 -1.8282
15853TIP3   OH268973   2.506   2.131  12.105  0.2888  0.0048 -0.0944
15853TIP3    H168974   2.491   2.037  12.109 -0.9064  0.1433 -0.8800
15853TIP3    H268975   2.525   2.149  12.013 -0.8538  0.7103 -0.2119
15854TIP3   OH268976   3.662   4.796   1.922  0.1732 -0.6668  0.2721
15854TIP3    H168977   3.722   4.847   1.868 -1.1640  0.0592 -0.5689
15854TIP3    H268978   3.692   4.706   1.912  1.6599 -0.2390  0.5938
15855TIP3   OH268979   4.616   3.811   4.047 -0.0762 -0.2664  0.1178
15855TIP3    H168980   4.665   3.772   3.974  1.2588 -0.1332  0.9299
15855TIP3    H268981   4.663   3.892   4.068  0.1188 -0.7595  1.7204
15856TIP3   OH268982   5.726   0.062  12.340 -0.2565  0.4419 -0.4347
15856TIP3    H168983   5.645   0.088  12.296  0.0471  0.8811 -0.7487
15856TIP3    H268984   5.774   0.144  12.352 -0.3112  0.3312  0.6848
15857TIP3   OH268985   6.104   0.699  11.860 -0.1866 -0.5106  0.0239
15857TIP3    H168986   6.054   0.719  11.939 -0.3141 -1.2334  0.1338
15857TIP3    H268987   6.140   0.784  11.832  0.0727 -0.2865  0.9967
15858TIP3   OH268988   5.850   0.918  16.114  0.5892 -0.7710  0.2859
15858TIP3    H168989   5.858   0.824  16.098 -0.2707 -0.6992 -0.6464
15858TIP3    H268990   5.913   0.936  16.184  0.4044 -2.1228  0.8155
15859TIP3   OH268991   0.756   1.091  15.182 -0.2364  0.6087  0.0524
15859TIP3    H168992   0.798   1.149  15.244  0.3843  1.4847 -1.1422
15859TIP3    H268993   0.727   1.016  15.234  0.0338  1.4251  1.4100
15860TIP3   OH268994   1.157   6.451   5.597  0.2200 -0.2299  0.4443
15860TIP3    H168995   1.064   6.432   5.613 -0.0837  0.7898 -0.0776
15860TIP3    H268996   1.203   6.378   5.639 -0.8035 -0.6576  0.8630
15861TIP3   OH268997   4.603   4.000  15.728  0.2023 -0.2760 -0.2162
15861TIP3    H168998   4.513   4.027  15.710  0.2847 -0.4976 -0.9851
15861TIP3    H268999   4.656   4.047  15.664  0.8500  1.1760  1.3000
15862TIP3   OH269000   2.574   2.195   4.257  0.1006  0.3380 -0.3056
15862TIP3    H169001   2.507   2.262   4.269 -1.1720 -1.1904  1.6937
15862TIP3    H269002   2.644   2.220   4.316 -0.1248  0.2242  0.0127
15863TIP3   OH269003   2.939   5.949  14.044  0.2078 -0.3813 -0.0100
15863TIP3    H169004   2.871   5.881  14.043  0.3100 -0.5007  0.6857
15863TIP3    H269005   2.907   6.015  14.105  0.2965 -0.0001 -0.3767
15864TIP3   OH269006   5.673   2.012   4.800 -0.1922 -0.2701  0.5785
15864TIP3    H169007   5.605   2.058   4.752 -0.2127  1.2462  1.9956
15864TIP3    H269008   5.642   1.922   4.806 -0.4693 -0.3824 -1.6575
15865TIP3   OH269009   6.195   1.254   5.517 -0.0529  0.2967 -0.1721
15865TIP3    H169010   6.273   1.237   5.465  0.9139 -1.3097  1.6809
15865TIP3    H269011   6.214   1.336   5.563  1.5795 -1.1198  1.8963
15866TIP3   OH269012   4.682   0.336  14.673  0.4151  0.1842  0.0517
15866TIP3    H169013   4.692   0.335  14.577 -0.3628  1.2362 -0.0589
15866TIP3    H269014   4.660   0.427  14.693 -1.3351 -0.4200  1.0277
15867TIP3   OH269015   0.268   4.623   5.635 -0.2386 -0.0899 -0.2391
15867TIP3    H169016   0.281   4.697   5.695 -0.8404  0.5577 -0.8931
15867TIP3    H269017   0.188   4.644   5.587  0.8605  0.0000 -2.1367
15868TIP3   OH269018   5.499   6.243  15.554 -0.1337  0.3124 -0.1107
15868TIP3    H169019   5.444   6.270  15.480  0.4657 -1.3259 -1.2422
15868TIP3    H269020   5.483   6.308  15.622 -2.2635  0.7497 -0.9532
15869TIP3   OH269021   0.319   6.204  15.576  0.0553  0.3900 -0.2988
15869TIP3    H169022   0.375   6.281  15.561 -0.5431  0.8698 -0.1283
15869TIP3    H269023   0.233   6.230  15.541 -1.3548  1.4756  3.4539
15870TIP3   OH269024   2.434   4.164  17.243 -0.1623  0.1370 -0.2505
15870TIP3    H169025   2.376   4.145  17.316  1.5747  0.2098  1.2043
15870TIP3    H269026   2.375   4.185  17.170 -1.9607  2.0723  1.6262
15871TIP3   OH269027   3.030   6.651   4.482  0.1180  0.0508  0.0428
15871TIP3    H169028   2.985   6.626   4.563 -1.1927 -0.7795 -0.9015
15871TIP3    H269029   2.968   6.710   4.439  0.8493  0.5588 -0.3199
15872TIP3   OH269030   1.532   3.821  16.602  0.1475 -0.0485  0.0506
15872TIP3    H169031   1.452   3.788  16.641  0.3064 -1.9069 -1.0877
15872TIP3    H269032   1.504   3.891  16.543 -0.6014 -0.4974 -0.1266
15873TIP3   OH269033   5.226   0.093  16.668  0.1664 -0.0362  0.4679
15873TIP3    H169034   5.240   0.114  16.761  2.3097  0.1093  0.1540
15873TIP3    H269035   5.236   0.177  16.623  0.3357 -0.3098 -0.0049
15874TIP3   OH269036   0.102   1.915  12.760  0.3380 -0.3312  0.4375
15874TIP3    H169037   0.182   1.940  12.713  1.3633 -1.9936  1.2001
15874TIP3    H269038   0.041   1.889  12.692  0.0767  1.8003 -0.2183
15875TIP3   OH269039   3.661   3.771  15.078  0.5835  0.1730  0.1468
15875TIP3    H169040   3.694   3.744  14.992 -0.2833  0.1894 -0.1940
15875TIP3    H269041   3.609   3.849  15.060  2.5849  1.8316  1.0459
15876TIP3   OH269042   2.607   1.875   2.685  0.7542  0.1453  0.1884
15876TIP3    H169043   2.536   1.934   2.709  0.8020  0.3343 -0.1335
15876TIP3    H269044   2.667   1.929   2.633 -0.0858 -0.6293 -1.6550
15877TIP3   OH269045   0.208   3.392  13.523  0.4348 -0.6607  0.2433
15877TIP3    H169046   0.299   3.375  13.502  0.6436 -0.1819  0.7124
15877TIP3    H269047   0.180   3.457  13.458  0.3930 -0.8970  0.0255
15878TIP3   OH269048   6.349   2.947   1.145 -0.2757 -0.1439  0.3588
15878TIP3    H169049   6.386   3.001   1.214  2.5760  0.0493 -1.1509
15878TIP3    H269050   6.258   2.974   1.139  0.7508  3.9268  0.2934
15879TIP3   OH269051   0.636   6.705  14.506 -0.3548  0.5397 -0.2277
15879TIP3    H169052   0.713   6.756  14.534 -0.6320  0.7126  0.2368
15879TIP3    H269053   0.667   6.614  14.505  0.6195  0.8235 -2.6816
15880TIP3   OH269054   5.095   0.366   3.671 -0.0136  0.4354  0.1134
15880TIP3    H169055   5.110   0.437   3.734  0.7890 -0.2846  0.7709
15880TIP3    H269056   5.137   0.290   3.711  2.4050  0.3838 -2.2250
15881TIP3   OH269057   1.174   0.773   0.567  0.1769 -0.5811  0.3282
15881TIP3    H169058   1.266   0.785   0.592  0.3996 -0.8076 -0.3456
15881TIP3    H269059   1.179   0.738   0.478 -0.5967  1.4672 -0.5603
15882TIP3   OH269060   5.137   4.630  13.052 -0.2734  0.4106  0.3793
15882TIP3    H169061   5.151   4.668  13.139  0.6968  1.1358 -0.0685
15882TIP3    H269062   5.051   4.589  13.057 -0.0482  0.0705  1.8095
15883TIP3   OH269063   6.058   4.797   1.325  0.3443 -0.1694  0.8149
15883TIP3    H169064   5.996   4.853   1.372  1.5706  0.6041  1.5962
15883TIP3    H269065   6.140   4.808   1.373  1.1803 -0.8478 -0.4106
15884TIP3   OH269066   4.856   4.737   3.026  0.3789 -0.1567  0.0077
15884TIP3    H169067   4.940   4.779   3.006  0.2981 -0.1142 -0.2447
15884TIP3    H269068   4.877   4.671   3.092  0.5433  0.1297  0.2406
15885TIP3   OH269069   4.774   5.751   1.326  0.6189  0.4391 -0.4725
15885TIP3    H169070   4.767   5.846   1.326  0.5828  0.4358 -0.5565
15885TIP3    H269071   4.798   5.729   1.416 -3.1813  0.2225  0.6440
15886TIP3   OH269072   2.427   0.782   3.987 -0.7791 -0.3036 -0.6234
15886TIP3    H169073   2.435   0.692   4.019 -0.5219 -0.2294 -0.4708
15886TIP3    H269074   2.501   0.793   3.927 -1.2852 -0.4540 -1.2843
15887TIP3   OH269075   5.533   3.972   1.681  0.0003 -0.7104 -0.1555
15887TIP3    H169076   5.441   3.949   1.671 -0.6239  0.9501  1.2566
15887TIP3    H269077   5.579   3.888   1.679 -1.2075 -1.4437 -3.3527
15888TIP3   OH269078   1.004   1.281   6.009  0.4874 -0.6919 -0.1276
15888TIP3    H169079   1.088   1.297   6.053  2.5795  0.0003 -3.8741
15888TIP3    H269080   1.021   1.206   5.951 -1.7587 -1.0623 -0.3771
15889TIP3   OH269081   4.716   0.797   2.558  0.0523  0.0573  0.2889
15889TIP3    H169082   4.761   0.791   2.642 -1.8713 -1.6168  1.2935
15889TIP3    H269083   4.775   0.754   2.496 -0.1302 -2.2206  1.5948
15890TIP3   OH269084   4.677   1.375   2.250 -0.2088 -0.6448  0.0303
15890TIP3    H169085   4.716   1.363   2.163  1.2110  0.5031  0.4812
15890TIP3    H269086   4.598   1.426   2.233  1.2419  1.5757 -0.4177
15891TIP3   OH269087   2.793   6.740   4.347 -0.7803  0.0534  0.1668
15891TIP3    H169088   2.780   6.817   4.292 -0.4034 -0.8376 -1.2117
15891TIP3    H269089   2.708   6.726   4.389 -1.0992  0.6946 -0.2459
15892TIP3   OH269090   1.948   6.398   0.967 -0.0430  0.0422 -0.5390
15892TIP3    H169091   1.949   6.305   0.988  0.4288 -0.1821 -1.5164
15892TIP3    H269092   1.894   6.405   0.889 -1.9431  0.8937  0.7634
15893TIP3   OH269093   4.431   0.761   3.337 -0.0831 -1.0311  0.4763
15893TIP3    H169094   4.402   0.752   3.246  0.1115  0.0639  0.2983
15893TIP3    H269095   4.381   0.694   3.384 -0.9219 -0.9563 -0.2721
15894TIP3   OH269096   4.925   5.766  15.928  0.5457  0.2051  0.5553
15894TIP3    H169097   4.848   5.818  15.905  0.2055 -0.1358  0.8976
15894TIP3    H269098   4.978   5.824  15.982  0.8445  0.6551 -0.2076
15895TIP3   OH269099   0.653   3.736   1.593 -0.7450 -0.3714  0.5772
15895TIP3    H169100   0.620   3.813   1.547  0.3590  0.0014  0.4031
15895TIP3    H269101   0.727   3.768   1.645  0.7265 -1.5796 -0.6837
15896TIP3   OH269102   3.533   4.960  16.801 -0.1222  0.1424  0.0337
15896TIP3    H169103   3.482   5.041  16.810  1.1605  0.9748  0.1149
15896TIP3    H269104   3.469   4.894  16.774 -1.0005  1.4479 -1.2401
15897TIP3   OH269105   4.647   0.777   3.587  0.6216  0.4979 -0.3382
15897TIP3    H169106   4.560   0.772   3.548  0.4097  0.1307  0.1698
15897TIP3    H269107   4.631   0.787   3.681  1.1239 -0.8211 -0.0918
15898TIP3   OH269108   1.043   4.820  16.674 -0.1677 -0.2738  0.0065
15898TIP3    H169109   1.108   4.834  16.743 -0.2357  1.3953 -0.2407
15898TIP3    H269110   1.044   4.725  16.661  1.4348 -0.4079  0.7583
15899TIP3   OH269111   1.438   5.738  15.046  0.2912  0.4394 -0.2334
15899TIP3    H169112   1.519   5.751  14.996 -1.6745  1.0515 -3.6324
15899TIP3    H269113   1.393   5.823  15.040  0.1251  0.7194  3.2301
15900TIP3   OH269114   4.161   3.946  17.205  0.4827 -0.0503  0.0777
15900TIP3    H169115   4.120   3.920  17.122 -1.7679 -0.2097  1.1730
15900TIP3    H269116   4.115   3.896  17.271  2.2520  0.0700  1.4609
15901TIP3   OH269117   6.733   0.032   2.796 -0.0406  0.4362  0.5165
15901TIP3    H169118   6.672   0.040   2.723 -0.2201 -1.0471  0.4718
15901TIP3    H269119   6.677   0.015   2.872  0.2498  0.0593  0.6491
15902TIP3   OH269120   1.664   1.087   5.547 -0.1707  0.8213  0.1687
15902TIP3    H169121   1.738   1.135   5.584 -0.2454  1.9854 -1.1012
15902TIP3    H269122   1.696   0.998   5.537  0.9968  1.2508 -0.1197
15903TIP3   OH269123   6.757   2.101  11.722  0.3936  0.2393 -0.1927
15903TIP3    H169124   6.837   2.113  11.773 -0.2385  0.1235  0.8784
15903TIP3    H269125   6.764   2.012  11.687  0.2854 -0.1482  0.7430
15904TIP3   OH269126   4.196   2.883  13.300 -0.2614 -0.1332  0.0454
15904TIP3    H169127   4.268   2.947  13.305 -0.9971  0.7251 -0.0198
15904TIP3    H269128   4.124   2.925  13.347 -0.7563 -0.9375  0.0175
15905TIP3   OH269129   2.327   2.777  13.337 -0.0764 -0.3187 -0.4020
15905TIP3    H169130   2.282   2.857  13.308 -0.0156  0.0382  0.4513
15905TIP3    H269131   2.263   2.707  13.326 -0.0063 -0.2150 -1.5085
15906TIP3   OH269132   0.661   4.978   4.563  0.2567 -0.0722 -0.0932
15906TIP3    H169133   0.571   4.988   4.595 -0.5593  0.8034 -2.4738
15906TIP3    H269134   0.699   5.066   4.569  0.4990 -0.1556 -0.3932
15907TIP3   OH269135   6.193   0.053   5.420 -0.1477  0.0099  0.0185
15907TIP3    H169136   6.144  -0.029   5.416 -0.3919  0.1746 -0.4074
15907TIP3    H269137   6.282   0.027   5.442 -0.3030 -0.3377  0.2442
15908TIP3   OH269138   1.329   5.440  17.091 -0.2879  0.5771  0.3586
15908TIP3    H169139   1.336   5.347  17.113 -0.4357  0.0368 -1.6352
15908TIP3    H269140   1.398   5.483  17.141  1.6479 -1.0443 -0.8103
15909TIP3   OH269141   4.398   5.008   0.657 -0.2346  0.1087  0.1814
15909TIP3    H169142   4.431   5.094   0.631  0.5734 -0.1976  0.1608
15909TIP3    H269143   4.401   5.009   0.752  0.4491 -0.1393  0.1708
15910TIP3   OH269144   6.143   6.677   2.964 -0.0404 -0.2477  0.2322
15910TIP3    H169145   6.094   6.595   2.959 -0.6338  0.1763 -2.3815
15910TIP3    H269146   6.170   6.694   2.873  2.1542  1.2326  1.0774
15911TIP3   OH269147   4.721   6.495  16.548  0.7185  0.1587  0.2182
15911TIP3    H169148   4.798   6.542  16.516  0.2574 -0.0714 -1.3068
15911TIP3    H269149   4.659   6.499  16.476 -1.3085  1.5972  1.9136
15912TIP3   OH269150   3.181   5.318   0.606 -0.0247  0.2740  0.0643
15912TIP3    H169151   3.267   5.287   0.580 -0.0512  0.7671 -0.6364
15912TIP3    H269152   3.160   5.388   0.544 -1.0428 -0.0104  0.0660
15913TIP3   OH269153   2.280   1.517   3.580 -0.0995  0.1819  0.0300
15913TIP3    H169154   2.194   1.542   3.546 -0.6626 -0.3076  1.0262
15913TIP3    H269155   2.323   1.599   3.602 -0.4459  0.4194 -0.1738
15914TIP3   OH269156   1.238   0.049  14.088 -0.0529  0.4512  0.1698
15914TIP3    H169157   1.270  -0.041  14.080  0.3232  0.6203 -0.2622
15914TIP3    H269158   1.314   0.099  14.117  0.0375  0.8292 -0.7125
15915TIP3   OH269159   5.392   1.551   5.938  0.2100 -0.0553 -0.0692
15915TIP3    H169160   5.438   1.467   5.928 -0.0362 -0.3737  1.3016
15915TIP3    H269161   5.338   1.558   5.859 -1.3580 -2.2104  0.7051
15916TIP3   OH269162   0.121   1.410  14.229  0.2261 -0.4556  0.4485
15916TIP3    H169163   0.207   1.429  14.267 -0.4023  0.5480  1.4473
15916TIP3    H269164   0.095   1.493  14.187 -0.2255 -0.7679  0.1051
15917TIP3   OH269165   1.058   2.421   1.248  0.8050  0.4787  0.1286
15917TIP3    H169166   1.108   2.498   1.275  1.0872  0.8136 -1.2399
15917TIP3    H269167   0.968   2.454   1.236  0.0082 -0.2757  3.2857
15918TIP3   OH269168   3.294   4.492  17.302 -0.0920  0.3547  0.2436
15918TIP3    H169169   3.208   4.497  17.344  0.1973  1.6538  0.7194
15918TIP3    H269170   3.275   4.475  17.210 -0.8081 -0.5585  0.5481
15919TIP3   OH269171   3.573   5.108  10.741  0.1665 -0.0904 -0.5980
15919TIP3    H169172   3.649   5.110  10.799 -0.7656  1.0657  0.6255
15919TIP3    H269173   3.516   5.041  10.777  1.0989 -1.8906 -2.2595
15920TIP3   OH269174   2.020   2.600   5.633  0.8099  0.2884 -0.2770
15920TIP3    H169175   2.113   2.618   5.647  0.1092  1.9941  3.1036
15920TIP3    H269176   2.009   2.509   5.658  1.7890 -0.5118 -2.4879
15921TIP3   OH269177   5.136   1.670  14.752  0.3455  0.1976  0.0626
15921TIP3    H169178   5.106   1.730  14.683  1.0242  0.7556  0.2418
15921TIP3    H269179   5.055   1.641  14.795 -0.0509  0.2193 -0.6566
15922TIP3   OH269180   2.108   4.829  16.858  0.4321  0.4772 -0.0250
15922TIP3    H169181   2.077   4.842  16.769 -1.5927 -0.2374  0.5176
15922TIP3    H269182   2.066   4.899  16.909  1.5849  0.8966  0.3779
15923TIP3   OH269183   1.752   4.465  14.169 -0.3025  0.1286  0.6269
15923TIP3    H169184   1.703   4.515  14.234 -1.8396  0.7252 -0.9118
15923TIP3    H269185   1.823   4.523  14.142 -1.7437  1.3384 -0.7410
15924TIP3   OH269186   0.145   0.784   0.918  0.0303 -0.2651  0.2059
15924TIP3    H169187   0.212   0.798   0.851  0.2926 -0.3220  0.4537
15924TIP3    H269188   0.181   0.823   0.997  0.3300 -1.4092  0.6568
15925TIP3   OH269189   0.303   1.101   1.236 -0.2533 -0.0864  0.0386
15925TIP3    H169190   0.331   1.190   1.257  2.1915 -0.7632 -0.0006
15925TIP3    H269191   0.361   1.045   1.287  1.2443 -1.6767 -3.0906
15926TIP3   OH269192   0.487   3.556  10.980 -0.1838  0.0833  0.4712
15926TIP3    H169193   0.562   3.591  11.027 -0.7377  0.5496  1.0369
15926TIP3    H269194   0.420   3.624  10.990 -0.8010 -0.4946  0.3034
15927TIP3   OH269195   3.834   2.283  16.636  0.2331  0.2514 -0.4732
15927TIP3    H169196   3.817   2.200  16.681  2.1695  0.1201  0.1252
15927TIP3    H269197   3.747   2.317  16.613 -0.7110 -0.8180  1.3080
15928TIP3   OH269198   4.833   2.321  16.623 -0.2191 -0.1551 -0.8592
15928TIP3    H169199   4.887   2.259  16.575 -0.0731  0.5903 -1.6816
15928TIP3    H269200   4.747   2.314  16.581 -0.6715 -1.0061  0.1473
15929TIP3   OH269201   5.327   5.836  11.458  0.2756 -0.2157  0.5271
15929TIP3    H169202   5.390   5.905  11.474  1.0888 -0.9180  0.4180
15929TIP3    H269203   5.338   5.812  11.366  1.6188 -2.0218  1.0987
15930TIP3   OH269204   2.403   6.298   1.036 -0.0086 -0.3037 -0.5629
15930TIP3    H169205   2.322   6.342   1.059  0.3901  0.0796  0.1411
15930TIP3    H269206   2.419   6.237   1.108 -0.8193 -2.0204 -1.7514
15931TIP3   OH269207   4.734   2.207   0.588  0.0681 -0.8125  0.0136
15931TIP3    H169208   4.719   2.221   0.494  2.5426  1.6405 -0.1480
15931TIP3    H269209   4.683   2.276   0.631  1.4560  0.1256  0.2060
15932TIP3   OH269210   1.216   0.548   4.442 -0.3391  0.5368 -0.1672
15932TIP3    H169211   1.132   0.574   4.406 -1.4408 -1.2774  0.9333
15932TIP3    H269212   1.267   0.518   4.367  0.5337  4.3110 -1.3032
15933TIP3   OH269213   2.157   5.536   3.598 -0.1281  0.0539 -0.0791
15933TIP3    H169214   2.120   5.577   3.677  0.6256  1.1895 -0.2867
15933TIP3    H269215   2.217   5.469   3.631 -0.8029 -0.3707  0.2881
15934TIP3   OH269216   4.534   4.359   2.795  0.1277 -0.6695 -0.2036
15934TIP3    H169217   4.562   4.450   2.792  0.5503 -0.8254 -2.2070
15934TIP3    H269218   4.605   4.314   2.842 -0.9569  0.2513  2.5199
15935TIP3   OH269219   5.713   2.536  16.450  0.4192  0.0529 -0.0661
15935TIP3    H169220   5.643   2.598  16.473  1.4218  1.0924  0.3042
15935TIP3    H269221   5.667   2.460  16.414 -0.8606  1.0331 -0.5944
15936TIP3   OH269222   0.131   6.307   2.174 -0.8337  0.2306 -0.0848
15936TIP3    H169223   0.155   6.396   2.149  0.1779 -0.6671 -2.6398
15936TIP3    H269224   0.117   6.262   2.091 -0.4280 -2.2248  1.0911
15937TIP3   OH269225   6.384   5.032   4.284  0.3339  0.3403  0.7618
15937TIP3    H169226   6.346   5.035   4.372 -1.6541  0.9628 -0.0555
15937TIP3    H269227   6.453   4.966   4.290 -0.1830 -0.0926  2.6284
15938TIP3   OH269228   1.064   3.976   5.226 -0.1431 -0.4169  0.0221
15938TIP3    H169229   1.137   3.917   5.209  1.8364  1.2522  2.0693
15938TIP3    H269230   1.056   4.027   5.146  2.0757  0.4243  0.2498
15939TIP3   OH269231   1.332   6.109  14.099  0.6553  0.4276  0.0242
15939TIP3    H169232   1.318   6.174  14.030  0.3683  1.3314  0.9182
15939TIP3    H269233   1.393   6.047  14.060 -1.0329 -0.2113 -1.7516
15940TIP3   OH269234   0.089   2.831  15.631  0.2680  0.2356 -0.5680
15940TIP3    H169235   0.049   2.746  15.648 -0.4302  0.5539 -0.5895
15940TIP3    H269236   0.097   2.835  15.535  0.6850  0.0329 -0.5489
15941TIP3   OH269237   0.243   1.054   0.977 -0.3386 -0.1682 -0.5481
15941TIP3    H169238   0.148   1.052   0.992  0.1019  0.1614  2.9423
15941TIP3    H269239   0.280   1.090   1.057  2.8320 -0.9400 -1.5205
15942TIP3   OH269240   2.952   5.778   3.722  0.4675 -0.2936  0.0789
15942TIP3    H169241   3.042   5.757   3.746  0.2956 -2.3291 -0.8269
15942TIP3    H269242   2.954   5.783   3.626 -0.0739  1.3352  0.1310
15943TIP3   OH269243   3.254   6.175  12.049  0.7147 -0.4446  0.7413
15943TIP3    H169244   3.201   6.187  12.127 -1.8931 -1.4539 -0.7262
15943TIP3    H269245   3.301   6.093  12.065 -0.0183 -0.7982  1.1672
15944TIP3   OH269246   5.483   4.578  11.836 -0.5108 -0.2669  0.1872
15944TIP3    H169247   5.449   4.525  11.764  0.8819 -0.7009 -0.1758
15944TIP3    H269248   5.561   4.532  11.865 -0.2384  0.6845  1.0260
15945TIP3   OH269249   5.231   5.872  13.533  0.5621 -0.4166 -0.2756
15945TIP3    H169250   5.255   5.823  13.612 -0.7863  0.2834  0.6165
15945TIP3    H269251   5.305   5.930  13.517  0.5458 -0.0239  0.9529
15946TIP3   OH269252   0.288   5.194  15.538 -0.3859  0.1438  0.3811
15946TIP3    H169253   0.281   5.272  15.594 -1.9809 -0.7829  1.5756
15946TIP3    H269254   0.228   5.211  15.465  1.6386  1.3205 -1.1054
15947TIP3   OH269255   6.044   2.946  11.732  0.2132 -0.2654  0.3813
15947TIP3    H169256   6.103   3.005  11.684  0.3093 -0.6879 -0.0274
15947TIP3    H269257   5.967   2.999  11.751  0.6493  0.2484  0.7751
15948TIP3   OH269258   3.643   0.785  16.666  0.2233  0.3133  0.3472
15948TIP3    H169259   3.663   0.815  16.578  0.3334  0.4561  0.4215
15948TIP3    H269260   3.688   0.701  16.674  0.2052  0.2956  0.2649
15949TIP3   OH269261   4.632   5.625  11.510 -0.5527  0.4428 -0.1188
15949TIP3    H169262   4.721   5.659  11.510 -0.0806 -0.6891  1.3941
15949TIP3    H269263   4.638   5.542  11.557 -2.5899  0.8299  0.9162
15950TIP3   OH269264   2.086   3.606   2.403 -0.7258 -0.2900  0.2559
15950TIP3    H169265   2.161   3.594   2.461 -1.4164 -2.2628  0.8401
15950TIP3    H269266   2.088   3.529   2.346  0.9859  2.3596 -3.7231
15951TIP3   OH269267   2.339   2.881   4.629  0.0150  0.2345 -0.4616
15951TIP3    H169268   2.416   2.874   4.687 -1.2442  0.0733  1.2822
15951TIP3    H269269   2.313   2.790   4.614 -1.7845  0.2892  1.7936
15952TIP3   OH269270   5.465   4.731  12.748 -0.0755  0.1204  0.1585
15952TIP3    H169271   5.440   4.795  12.681  2.6075 -0.0093 -1.0883
15952TIP3    H269272   5.558   4.715  12.733  0.5114 -0.3939  3.5815
15953TIP3   OH269273   2.119   0.562  15.236  0.0604 -0.1104  0.2799
15953TIP3    H169274   2.211   0.564  15.206  0.6914  1.7101  2.1431
15953TIP3    H269275   2.078   0.637  15.193 -0.2645 -0.2326  0.3737
15954TIP3   OH269276   1.552   3.549  13.374  0.0717  0.1910 -0.1725
15954TIP3    H169277   1.536   3.644  13.368  0.7112  0.4184  1.3521
15954TIP3    H269278   1.469   3.510  13.348 -0.7789  1.2215  0.8640
15955TIP3   OH269279   3.648   0.857   3.561 -0.3757  0.2465 -0.3477
15955TIP3    H169280   3.643   0.771   3.518  0.7203  0.9590 -1.9966
15955TIP3    H269281   3.666   0.836   3.653 -0.4905 -1.2975 -0.6452
15956TIP3   OH269282   5.532   6.339  14.930 -0.3695  0.0880 -0.2625
15956TIP3    H169283   5.482   6.380  14.859 -0.6206 -0.1121 -0.2019
15956TIP3    H269284   5.623   6.342  14.900 -0.2930  1.2696  0.0060
15957TIP3   OH269285   2.092   5.817  12.243 -0.3747  0.2720  0.1638
15957TIP3    H169286   2.127   5.762  12.313  1.0097 -2.0644 -2.1631
15957TIP3    H269287   2.000   5.828  12.265 -0.1039 -0.8097  2.0616
15958TIP3   OH269288   1.578   5.010  15.664  0.2301 -0.3648  0.0026
15958TIP3    H169289   1.558   5.096  15.699 -0.2150  0.1563 -1.4624
15958TIP3    H269290   1.576   4.952  15.740  0.2633  0.8584  0.9638
15959TIP3   OH269291   4.976   0.545  13.932  0.1799 -0.0235  0.4915
15959TIP3    H169292   4.955   0.484  13.861  0.3988 -1.9266  1.9780
15959TIP3    H269293   4.916   0.619  13.919 -0.0393 -0.4884 -1.4275
15960TIP3   OH269294   3.848   5.474  11.462 -0.0398 -0.2321 -0.1822
15960TIP3    H169295   3.901   5.509  11.533 -0.4341  0.5526 -0.2652
15960TIP3    H269296   3.874   5.524  11.385  0.8222 -1.4825 -0.7462
15961TIP3   OH269297   6.679   1.856  13.555  0.4415  0.2586 -0.5711
15961TIP3    H169298   6.648   1.946  13.553  1.4733  0.6375 -0.0551
15961TIP3    H269299   6.719   1.843  13.469 -2.1168 -0.6241 -1.7159
15962TIP3   OH269300   3.141   6.646  16.340 -0.0918  0.1533  0.1353
15962TIP3    H169301   3.202   6.643  16.414  0.4293 -1.0264 -0.3211
15962TIP3    H269302   3.176   6.713  16.282  0.5482 -0.2100  0.0866
15963TIP3   OH269303   5.293   0.479  11.430 -0.2500 -0.0434 -0.4816
15963TIP3    H169304   5.285   0.417  11.502  2.1029  2.3451  2.0776
15963TIP3    H269305   5.227   0.546  11.449  1.2566  1.2712  0.2769
15964TIP3   OH269306   0.535   5.826  16.387 -0.2451  0.5518  0.5490
15964TIP3    H169307   0.606   5.762  16.388  0.4479  1.2576 -0.6276
15964TIP3    H269308   0.569   5.898  16.333 -2.5997  0.0360 -1.8313
15965TIP3   OH269309   0.891   4.876  13.657  0.2424  0.2849 -0.0586
15965TIP3    H169310   0.949   4.832  13.720 -0.5012 -0.8326 -0.1408
15965TIP3    H269311   0.884   4.966  13.691  1.0859  0.1198  0.5936
15966TIP3   OH269312   0.762   4.785  13.052 -0.2435  0.5075 -0.2367
15966TIP3    H169313   0.809   4.708  13.020  0.8836  0.9173  0.3824
15966TIP3    H269314   0.674   4.776  13.016  0.5536  0.1852 -2.2388
15967TIP3   OH269315   1.950   5.595  14.232  0.1649  0.1771 -0.0123
15967TIP3    H169316   1.863   5.610  14.268  0.3341 -0.6024  0.7738
15967TIP3    H269317   1.938   5.522  14.171 -0.5866  2.9465 -3.5301
15968TIP3   OH269318   0.083   6.706   4.084 -0.2699 -0.0560  0.1781
15968TIP3    H169319   0.153   6.719   4.147 -0.7570 -1.2436  0.9922
15968TIP3    H269320   0.082   6.611   4.069  0.0601  0.2105 -1.8894
15969TIP3   OH269321   6.254   4.455  11.054  0.4789  0.5223 -0.3415
15969TIP3    H169322   6.271   4.534  11.106 -1.3839 -0.5062  2.0165
15969TIP3    H269323   6.323   4.395  11.080  0.3384  0.4740 -0.0740
15970TIP3   OH269324   0.994   4.361  11.533 -0.7839 -0.1388  0.2596
15970TIP3    H169325   0.989   4.424  11.604 -1.0250 -0.8706  0.9067
15970TIP3    H269326   0.986   4.276  11.576  2.8289 -0.8533 -0.1769
15971TIP3   OH269327   6.124   6.215   2.789  0.0566  0.0794  0.2796
15971TIP3    H169328   6.033   6.244   2.782 -0.2719 -1.0306 -0.3024
15971TIP3    H269329   6.123   6.124   2.758  1.5419  0.3646 -0.7171
15972TIP3   OH269330   4.317   6.325   2.083 -0.4732 -0.2205 -0.5938
15972TIP3    H169331   4.337   6.418   2.093 -1.3634 -0.2194  1.6350
15972TIP3    H269332   4.384   6.292   2.024 -0.0416  1.7896 -1.2953
15973TIP3   OH269333   3.889   4.317   5.343  0.7803  0.0329  0.0244
15973TIP3    H169334   3.933   4.398   5.372  1.6905  0.6510 -2.7586
15973TIP3    H269335   3.801   4.323   5.379  1.6928  0.8197  2.2881
15974TIP3   OH269336   1.357   5.945  12.858 -0.0668 -0.4787  0.4487
15974TIP3    H169337   1.438   5.996  12.865  0.1885 -0.8544  0.2454
15974TIP3    H269338   1.383   5.864  12.814 -0.9719  0.3223 -1.6794
15975TIP3   OH269339   3.591   2.585   4.637 -0.4906 -0.4634  0.3793
15975TIP3    H169340   3.520   2.627   4.686 -0.3554 -0.2302  0.3778
15975TIP3    H269341   3.668   2.596   4.693  0.0865  1.5071 -0.7139
15976TIP3   OH269342   0.411   0.926  15.014  0.0798 -0.2866  0.7277
15976TIP3    H169343   0.471   0.938  14.940 -0.6288 -0.3968  0.1336
15976TIP3    H269344   0.424   0.834  15.040 -0.3415 -0.5099  0.1520
15977TIP3   OH269345   5.288   2.210  12.259 -0.0620 -0.1166  0.0400
15977TIP3    H169346   5.267   2.125  12.219 -1.3760  0.1221  0.1566
15977TIP3    H269347   5.364   2.241  12.210  0.8788 -1.6619  0.4607
15978TIP3   OH269348   6.587   6.437  16.337 -0.2623  0.0921 -0.2389
15978TIP3    H169349   6.500   6.426  16.300  0.2341  0.3275 -1.5434
15978TIP3    H269350   6.642   6.462  16.262  1.0197 -0.5293  0.4520
15979TIP3   OH269351   3.018   5.689   4.249  0.7372  0.0939  0.2568
15979TIP3    H169352   3.010   5.770   4.298 -1.4588 -0.6036  1.1628
15979TIP3    H269353   2.932   5.675   4.210  1.5765 -0.9118 -1.3789
15980TIP3   OH269354   0.616   3.432  12.884 -0.7122 -0.3420  0.5965
15980TIP3    H169355   0.532   3.479  12.884 -0.8719 -0.6245  0.1548
15980TIP3    H269356   0.594   3.344  12.855  0.0631  0.2191 -1.9920
15981TIP3   OH269357   4.850   4.824   4.723  0.2574  0.8342 -0.3189
15981TIP3    H169358   4.860   4.837   4.817 -0.0927  2.8673 -0.5227
15981TIP3    H269359   4.764   4.784   4.713 -0.4286  2.1501  0.1481
15982TIP3   OH269360   4.588   2.755   3.309 -0.0144  0.3954  0.2470
15982TIP3    H169361   4.663   2.702   3.280 -0.4584  0.4510 -1.0883
15982TIP3    H269362   4.562   2.717   3.392  0.8166 -0.3232  0.1924
15983TIP3   OH269363   6.429   1.351   4.917  0.1470  0.0453 -0.2055
15983TIP3    H169364   6.367   1.333   4.988 -0.1825 -0.1729 -0.5408
15983TIP3    H269365   6.503   1.394   4.959 -0.6239  1.1472  0.0889
15984TIP3   OH269366   2.782   3.093  17.244 -0.4411  0.4444  0.1797
15984TIP3    H169367   2.776   3.181  17.206 -0.3936 -0.2005 -1.3910
15984TIP3    H269368   2.693   3.073  17.273 -0.7588  0.4752 -0.7430
15985TIP3   OH269369   0.596   4.621   4.989 -0.4845  0.0540 -0.0064
15985TIP3    H169370   0.586   4.602   5.082 -1.5917 -1.8108 -0.4417
15985TIP3    H269371   0.623   4.712   4.985  1.9763 -0.4658  2.2265
15986TIP3   OH269372   0.875   2.624   5.035  0.6607  0.2229 -0.1287
15986TIP3    H169373   0.829   2.683   5.095 -0.8329 -0.5555 -0.4589
15986TIP3    H269374   0.962   2.662   5.027  0.5533  0.9745  1.6398
15987TIP3   OH269375   1.974   5.543   5.212  0.0523  0.6322  0.1719
15987TIP3    H169376   1.890   5.542   5.258 -0.2518  0.7204 -0.3823
15987TIP3    H269377   1.989   5.452   5.188  1.2447  0.2010  2.2927
15988TIP3   OH269378   5.902   4.548   5.209  0.1896 -0.2284  0.7276
15988TIP3    H169379   5.917   4.517   5.120 -0.6622 -1.5309  1.0091
15988TIP3    H269380   5.976   4.606   5.227 -0.0344  0.7087 -1.1031
15989TIP3   OH269381   1.683   1.683   4.852  0.9024  0.5626 -0.3716
15989TIP3    H169382   1.611   1.746   4.853 -1.2769 -1.7802 -0.8670
15989TIP3    H269383   1.679   1.641   4.939  0.4257 -0.8244 -1.0270
15990TIP3   OH269384   0.873   0.429  12.076 -0.5085 -0.5349  0.1832
15990TIP3    H169385   0.795   0.483  12.091 -0.1443  0.5260 -1.3775
15990TIP3    H269386   0.946   0.491  12.082 -0.0781 -0.8017 -1.6244
15991TIP3   OH269387   5.952   5.167  13.679 -0.1746  0.4636  0.0072
15991TIP3    H169388   5.960   5.098  13.613 -0.0005  0.1774  0.3257
15991TIP3    H269389   5.864   5.203  13.665 -0.4866 -0.1956  0.1884
15992TIP3   OH269390   1.655   3.057  11.221 -0.1150  0.6013 -0.0071
15992TIP3    H169391   1.658   3.066  11.126  1.3814 -1.6364 -0.2395
15992TIP3    H269392   1.681   3.143  11.254 -1.4145  1.6487 -1.5630
15993TIP3   OH269393   6.285   2.978  10.667 -0.2277 -0.2124  0.3818
15993TIP3    H169394   6.371   3.020  10.661 -0.5485  0.4309  0.2473
15993TIP3    H269395   6.228   3.045  10.703 -0.2419 -1.2581  2.4452
15994TIP3   OH269396   4.299   3.703   1.742 -0.4757 -0.1992 -0.8221
15994TIP3    H169397   4.227   3.645   1.768  0.2322 -0.6875  0.1340
15994TIP3    H269398   4.352   3.649   1.684  0.4860 -0.7437  0.5085
15995TIP3   OH269399   5.520   4.243  11.034 -0.7410 -0.1992  0.4150
15995TIP3    H169400   5.522   4.169  11.094  0.3431 -1.9562 -1.6561
15995TIP3    H269401   5.579   4.219  10.963  0.5660  3.1542  0.1519
15996TIP3   OH269402   5.948   5.987  15.309  0.5488  0.1039  0.3533
15996TIP3    H169403   6.002   5.921  15.353 -0.8723  0.1232  2.2232
15996TIP3    H269404   5.911   6.040  15.380  0.2856  1.8695 -1.0148
15997TIP3   OH269405   1.632   3.178  14.177 -0.0689 -0.1374  0.1593
15997TIP3    H169406   1.666   3.258  14.139 -1.2626 -0.4901 -1.7770
15997TIP3    H269407   1.572   3.207  14.246  0.7163  0.5595  0.5646
15998TIP3   OH269408   3.475   4.457  14.130 -0.6828  0.2438 -0.5335
15998TIP3    H169409   3.440   4.449  14.041 -0.8021  1.4816 -0.6080
15998TIP3    H269410   3.425   4.393  14.181  0.1728 -1.3026 -1.5552
15999TIP3   OH269411   0.953   5.792   5.045 -0.5599 -0.4022 -0.1077
15999TIP3    H169412   0.912   5.878   5.039  1.8798  0.8135 -0.3640
15999TIP3    H269413   0.982   5.784   5.136  1.6784  0.3318 -0.6834
16000TIP3   OH269414   3.152   1.995  13.669 -0.2465 -0.3643 -0.5073
16000TIP3    H169415   3.179   2.046  13.745  1.0954 -1.1270 -0.4502
16000TIP3    H269416   3.134   2.061  13.601  3.1288  0.2200 -0.9934
16001TIP3   OH269417   6.567   4.928  12.361  0.3135 -0.1328 -0.3065
16001TIP3    H169418   6.609   4.879  12.432  0.2036  2.1186  1.4130
16001TIP3    H269419   6.474   4.910  12.372  0.0449  2.0182  1.7167
16002TIP3   OH269420   2.365   6.243   3.728  0.0020  0.3420  0.4149
16002TIP3    H169421   2.411   6.159   3.731  0.2304  0.4881  1.3026
16002TIP3    H269422   2.422   6.299   3.676 -0.6256 -0.3136 -1.0350
16003TIP3   OH269423   3.550   3.313   0.400 -0.1514 -0.1278 -0.3499
16003TIP3    H169424   3.637   3.274   0.408 -0.4384 -1.1381 -1.8522
16003TIP3    H269425   3.566   3.408   0.401  0.7809 -0.2673  0.9709
16004TIP3   OH269426   3.662   5.266   2.536 -0.1463  0.4914  0.0914
16004TIP3    H169427   3.644   5.288   2.444  0.5274  0.4621 -0.0486
16004TIP3    H269428   3.632   5.176   2.545  0.3461  0.2917 -0.2594
16005TIP3   OH269429   4.605   3.362  16.318  0.5876 -0.2122  0.2155
16005TIP3    H169430   4.518   3.325  16.335 -0.2463  1.6935  0.3130
16005TIP3    H269431   4.591   3.425  16.247  1.8498  0.2835  0.3835
16006TIP3   OH269432   5.540   1.025   0.220 -0.3903  0.1527 -0.0377
16006TIP3    H169433   5.625   0.984   0.205  0.3331  1.8619 -0.9422
16006TIP3    H269434   5.527   1.081   0.143 -1.4744  1.3184  0.9543
16007TIP3   OH269435   1.741   3.269   5.105  0.0959 -0.2929 -0.0941
16007TIP3    H169436   1.779   3.210   5.040  1.1366 -0.5570  0.7228
16007TIP3    H269437   1.815   3.294   5.161 -0.7711 -0.1099  1.0097
16008TIP3   OH269438   1.109   6.584   5.979 -0.5703 -0.1346 -0.0092
16008TIP3    H169439   1.018   6.598   6.005 -0.5990 -0.6775  0.1949
16008TIP3    H269440   1.142   6.520   6.042 -1.0513 -2.5904 -2.1029
16009TIP3   OH269441   1.192   3.716   3.133 -0.1467  0.5666 -0.1793
16009TIP3    H169442   1.141   3.748   3.058 -1.4310  0.2334  0.5224
16009TIP3    H269443   1.193   3.789   3.194 -2.6749 -0.4534  1.2195
16010TIP3   OH269444   1.238   5.370   2.405 -0.1491 -0.1884  0.5595
16010TIP3    H169445   1.218   5.447   2.351  0.3108  0.1519  0.8699
16010TIP3    H269446   1.303   5.401   2.468  0.9930 -1.1465 -0.1056
16011TIP3   OH269447   2.650   0.233   5.861  0.1175 -0.3262 -0.0307
16011TIP3    H169448   2.630   0.228   5.767  1.0617 -0.4479 -0.2401
16011TIP3    H269449   2.592   0.170   5.902 -1.0640  0.4851 -0.3987
16012TIP3   OH269450   3.916   1.956   4.602 -0.1155 -0.2903 -0.1013
16012TIP3    H169451   3.921   1.872   4.555  1.9275 -0.3679  0.1733
16012TIP3    H269452   3.823   1.965   4.623 -0.1934 -3.6068  1.7998
16013TIP3   OH269453   2.747   3.142  12.729 -0.3604  0.2438  0.4718
16013TIP3    H169454   2.719   3.226  12.694 -3.3335 -0.4991  0.7956
16013TIP3    H269455   2.678   3.117  12.791 -0.1460 -2.8685 -0.3537
16014TIP3   OH269456   6.505   3.688   4.649 -0.2441 -0.0687 -0.1333
16014TIP3    H169457   6.441   3.707   4.580 -0.1427  2.7341  0.4388
16014TIP3    H269458   6.526   3.773   4.686  2.0506 -1.1825  1.3128
16015TIP3   OH269459   2.691   4.442  13.942  0.3574 -0.0723  0.2166
16015TIP3    H169460   2.627   4.453  13.871  0.1276 -0.9139  0.2725
16015TIP3    H269461   2.703   4.529  13.978  0.8874  0.4694 -1.2072
16016TIP3   OH269462   1.839   3.286   0.320 -0.1992 -0.2821 -0.2257
16016TIP3    H169463   1.839   3.311   0.412  0.4064 -3.0168  0.5991
16016TIP3    H269464   1.748   3.263   0.301 -0.6901  1.9667 -0.8926
16017TIP3   OH269465   0.699   1.785   2.050  0.0662  0.6657 -0.7321
16017TIP3    H169466   0.716   1.849   2.119  1.7432  0.0929 -0.5719
16017TIP3    H269467   0.607   1.799   2.026  0.2199  2.7216 -0.3002
16018TIP3   OH269468   1.685   6.270  16.702 -0.1016 -0.2028  0.4897
16018TIP3    H169469   1.729   6.196  16.742  0.3918  0.2194  0.7487
16018TIP3    H269470   1.645   6.317  16.775  1.5496  1.0678  0.6620
16019TIP3   OH269471   0.430   0.427   4.106  0.2373  0.5320  0.5835
16019TIP3    H169472   0.446   0.427   4.012 -0.8458 -4.5752  0.1087
16019TIP3    H269473   0.517   0.428   4.146  0.7368  1.1950 -0.4939
16020TIP3   OH269474   1.954   3.326  11.603  0.5156  0.4060  0.1293
16020TIP3    H169475   1.897   3.256  11.573 -0.7617  1.5528 -0.2640
16020TIP3    H269476   2.043   3.293  11.590 -0.0075 -0.2441 -2.2934
16021TIP3   OH269477   4.334   4.645   0.323  0.2703  0.5444  0.3330
16021TIP3    H169478   4.287   4.728   0.314  2.3455  1.5974 -2.1998
16021TIP3    H269479   4.422   4.670   0.353  1.8957 -0.2088 -3.2047
16022TIP3   OH269480   0.761   4.481  14.220 -0.0681  0.2027  0.1567
16022TIP3    H169481   0.809   4.540  14.162 -0.3437 -0.7664 -1.0922
16022TIP3    H269482   0.789   4.506  14.308  0.4769  1.6041 -0.3887
16023TIP3   OH269483   1.382   3.471   1.207  0.1827 -0.2633 -0.0344
16023TIP3    H169484   1.334   3.420   1.272  0.8508 -0.9264 -0.0459
16023TIP3    H269485   1.461   3.420   1.190  1.7625  1.5846  1.2456
16024TIP3   OH269486   3.262   5.032   4.411  0.8480 -0.1007  0.1333
16024TIP3    H169487   3.174   5.036   4.374  0.2252 -0.3791  1.5050
16024TIP3    H269488   3.300   4.952   4.374  0.6400  0.1727 -0.6861
16025TIP3   OH269489   5.002   5.918   1.954  0.5518  0.4301 -0.3130
16025TIP3    H169490   5.063   5.888   1.887  2.1711  0.5305  1.0578
16025TIP3    H269491   4.933   5.852   1.954  0.5081  0.4393 -2.0574
16026TIP3   OH269492   4.680   1.950   1.374  0.5760 -0.3758  0.0954
16026TIP3    H169493   4.658   2.032   1.329  1.1172 -0.6205 -0.6235
16026TIP3    H269494   4.609   1.938   1.437 -0.0375  0.1330 -0.4839
16027TIP3   OH269495   4.832   5.526   0.319 -0.3098 -0.0049  0.2141
16027TIP3    H169496   4.846   5.609   0.275  1.3304 -0.4789 -0.2378
16027TIP3    H269497   4.895   5.525   0.390 -0.2189 -0.9132  0.1362
16028TIP3   OH269498   3.947   1.224  13.601 -0.3178 -0.0691 -0.3079
16028TIP3    H169499   3.976   1.300  13.550  0.2578 -0.0127  0.0965
16028TIP3    H269500   3.874   1.257  13.654 -0.3721  0.0827 -0.4747
16029TIP3   OH269501   3.829   6.351   4.896  0.0999  0.1170 -0.1497
16029TIP3    H169502   3.910   6.304   4.877  0.8529  1.1828  0.3043
16029TIP3    H269503   3.785   6.359   4.812  0.2685 -0.8204 -0.3361
16030TIP3   OH269504   3.275   0.604  11.476 -0.0106 -0.0013 -0.5739
16030TIP3    H169505   3.281   0.683  11.421  1.2437  0.7494  0.5744
16030TIP3    H269506   3.358   0.559  11.463  0.4520  0.3587  0.8972
16031TIP3   OH269507   2.815   2.301  11.934  0.0504  0.0236 -0.0523
16031TIP3    H169508   2.725   2.323  11.911 -0.7562 -2.0158  0.9198
16031TIP3    H269509   2.813   2.208  11.955  1.7378  0.5327  3.0321
16032TIP3   OH269510   0.176   5.896  14.293  0.4547  0.0343  0.6655
16032TIP3    H169511   0.114   5.968  14.302 -0.5174 -0.4257 -1.6951
16032TIP3    H269512   0.233   5.922  14.221  1.0454 -0.9123  0.7730
16033TIP3   OH269513   0.259   1.584  16.974  0.8157 -0.5890 -0.1554
16033TIP3    H169514   0.268   1.674  16.943  2.4202 -0.6076  0.1976
16033TIP3    H269515   0.221   1.537  16.899 -0.1346  0.3685 -0.3087
16034TIP3   OH269516   5.322   6.338  16.356 -0.6252  0.0521  0.0007
16034TIP3    H169517   5.324   6.274  16.285  1.5362 -1.0143  0.9063
16034TIP3    H269518   5.387   6.403  16.331 -0.6025  0.2294  0.5009
16035TIP3   OH269519   5.350   2.401  16.915 -0.0776  0.0049  0.3087
16035TIP3    H169520   5.275   2.420  16.858  0.2094 -1.3268 -0.5502
16035TIP3    H269521   5.311   2.373  16.998 -0.5161 -0.0203  0.0993
16036TIP3   OH269522   0.507   1.317   6.461 -0.3899 -0.3334  0.2888
16036TIP3    H169523   0.569   1.251   6.430  0.7252 -1.0622  3.6048
16036TIP3    H269524   0.560   1.395   6.476 -0.8048 -0.1005  0.5711
16037TIP3   OH269525   2.972   4.004   3.585  0.2331 -0.3881  0.1364
16037TIP3    H169526   3.014   4.023   3.501 -2.6600  1.4112 -1.0646
16037TIP3    H269527   2.982   4.085   3.636 -0.5028 -0.4137  0.3444
16038TIP3   OH269528   6.159   1.517   0.411  0.0816  0.3354 -0.1911
16038TIP3    H169529   6.169   1.531   0.317 -0.2535 -0.7093 -0.3955
16038TIP3    H269530   6.135   1.425   0.419 -0.1860  0.4863  0.9009
16039TIP3   OH269531   0.803   6.652   3.100 -0.2438 -0.1887 -0.0390
16039TIP3    H169532   0.854   6.628   3.023  0.2746  0.5985  0.0497
16039TIP3    H269533   0.803   6.748   3.100  1.3339 -0.1170  1.9337
16040TIP3   OH269534   2.390   3.018  14.856  0.1536 -0.4227  0.4590
16040TIP3    H169535   2.475   3.052  14.884  0.3157 -0.5132  0.0741
16040TIP3    H269536   2.340   3.009  14.937  0.4433 -0.1826  0.6656
16041TIP3   OH269537   0.645   1.291   1.166  0.3609 -0.0207  0.1864
16041TIP3    H169538   0.587   1.360   1.197 -1.4828 -0.2312 -2.4081
16041TIP3    H269539   0.732   1.330   1.165  0.2671  0.5358  3.5585
16042TIP3   OH269540   3.565   1.661   3.058 -0.4672  0.5635  1.1797
16042TIP3    H169541   3.602   1.744   3.087  1.9665 -0.1317  0.3286
16042TIP3    H269542   3.497   1.686   2.995  0.3821  1.9169  0.7496
16043TIP3   OH269543   3.281   2.534  12.895 -0.2465  0.2180  0.5822
16043TIP3    H169544   3.346   2.549  12.826  0.5327 -2.1176  0.7382
16043TIP3    H269545   3.210   2.596  12.875  0.7695  0.8607 -1.2254
16044TIP3   OH269546   6.381   6.247   2.941 -0.3866 -0.1333 -0.5290
16044TIP3    H169547   6.304   6.248   2.885 -0.2375  1.0528 -0.7430
16044TIP3    H269548   6.430   6.169   2.914 -1.1444 -0.4846 -0.8979
16045TIP3   OH269549   6.014   2.824   1.924 -0.1097 -0.0861  0.3972
16045TIP3    H169550   6.034   2.908   1.965 -1.0684  0.4674 -0.2340
16045TIP3    H269551   5.925   2.834   1.891 -0.5353 -1.6176  0.9760
16046TIP3   OH269552   3.046   2.182   3.522 -0.0277  0.1922  0.1913
16046TIP3    H169553   3.084   2.233   3.451  2.0689 -0.4532  0.7609
16046TIP3    H269554   3.122   2.153   3.573 -1.2534 -1.9966  0.8916
16047TIP3   OH269555   0.745   5.941  14.821 -0.2306  0.0849  0.1474
16047TIP3    H169556   0.690   6.014  14.849  0.0459 -0.1301  1.2929
16047TIP3    H269557   0.683   5.871  14.799 -0.4357  0.0216  0.9103
16048TIP3   OH269558   4.422   4.173  10.553 -0.3605 -0.2974  0.0814
16048TIP3    H169559   4.384   4.173  10.465  1.6675  0.2410 -0.8583
16048TIP3    H269560   4.451   4.083  10.565 -0.7335 -0.3963  0.2581
16049TIP3   OH269561   3.347   6.555  16.717  0.6945  0.2738  0.3568
16049TIP3    H169562   3.429   6.576  16.762 -0.0317 -0.0851  1.9162
16049TIP3    H269563   3.335   6.461  16.732  0.8294 -0.0469 -1.3243
16050TIP3   OH269564   0.015   6.392  13.143  0.6350  0.0474  0.0056
16050TIP3    H169565  -0.053   6.332  13.113 -0.0581 -0.1302  1.7985
16050TIP3    H269566   0.068   6.410  13.066 -0.0764 -1.6323 -0.9098
16051TIP3   OH269567   3.126   0.993  16.767 -0.2263  0.0023 -0.3837
16051TIP3    H169568   3.213   1.033  16.774 -0.1350 -0.3424  0.4590
16051TIP3    H269569   3.141   0.914  16.714 -0.0174 -0.0851 -0.1958
16052TIP3   OH269570   5.012   5.999   0.615 -0.1790 -0.3716 -0.3097
16052TIP3    H169571   4.933   5.947   0.607 -1.5995  1.3952  1.3138
16052TIP3    H269572   4.993   6.062   0.685  2.9309 -0.3539  0.6783
16053TIP3   OH269573   4.909   3.378  15.732  0.4906  0.1490  0.5837
16053TIP3    H169574   4.997   3.366  15.767 -0.1946  0.4168  2.5521
16053TIP3    H269575   4.861   3.422  15.803 -0.5186  2.5754 -1.4544
16054TIP3   OH269576   0.432   5.536  14.365  0.1132 -0.7801  0.9201
16054TIP3    H169577   0.399   5.457  14.322 -0.4587 -0.8306  1.4360
16054TIP3    H269578   0.489   5.576  14.300  2.8667 -3.1419  1.6816
16055TIP3   OH269579   2.010   3.612  13.289 -0.7602  0.2835  0.2111
16055TIP3    H169580   2.020   3.698  13.247 -0.0431  0.7327  1.2522
16055TIP3    H269581   2.095   3.570  13.279 -1.2989 -0.6038 -0.8652
16056TIP3   OH269582   4.336   5.650  12.218 -0.0872  0.0188  0.1752
16056TIP3    H169583   4.322   5.726  12.160 -0.8931  0.2178  0.6125
16056TIP3    H269584   4.263   5.591  12.198 -1.8263  1.1556  2.6528
16057TIP3   OH269585   4.851   3.089  11.393  0.1996 -0.0543 -0.3659
16057TIP3    H169586   4.926   3.148  11.391  0.6601 -0.6487 -1.0867
16057TIP3    H269587   4.882   3.010  11.437 -0.6443  0.5192  1.3249
16058TIP3   OH269588   2.937   4.141   3.164 -0.0387 -0.0410  0.2875
16058TIP3    H169589   2.948   4.203   3.092  1.2216  0.9325  1.2455
16058TIP3    H269590   2.843   4.135   3.177 -0.2346  0.6234 -0.7187
16059TIP3   OH269591   1.143   0.640  10.678 -0.4380 -0.2935  0.2856
16059TIP3    H169592   1.180   0.557  10.649 -0.8712 -0.3368 -0.1560
16059TIP3    H269593   1.198   0.666  10.752  0.7858 -0.1271 -0.6330
16060TIP3   OH269594   6.225   0.571  13.788 -0.1315  0.1673  0.5114
16060TIP3    H169595   6.270   0.580  13.872  0.7345 -1.5559  0.2824
16060TIP3    H269596   6.235   0.656  13.745 -0.1561  0.9102  1.9239
16061TIP3   OH269597   3.493   5.164   1.882  0.1924 -0.3958 -0.0978
16061TIP3    H169598   3.426   5.096   1.873  0.0667 -0.6593  2.3140
16061TIP3    H269599   3.461   5.220   1.953  1.3286  0.9612 -0.6108
16062TIP3   OH269600   5.490   4.303  12.895  0.2119  1.0029 -0.1179
16062TIP3    H169601   5.536   4.299  12.811  0.0668 -1.0140 -0.1406
16062TIP3    H269602   5.398   4.292  12.872  0.0484  1.6807  0.2116
16063TIP3   OH269603   3.690   1.710   1.274  0.0525 -0.1133  0.5686
16063TIP3    H169604   3.781   1.682   1.266  0.6326  1.4123  1.5147
16063TIP3    H269605   3.679   1.776   1.206 -0.9829 -1.6650 -0.8891
16064TIP3   OH269606   2.589   0.510  13.106  0.3172 -0.6299 -0.1601
16064TIP3    H169607   2.684   0.515  13.094  0.5361  0.2974  1.6985
16064TIP3    H269608   2.578   0.480  13.196 -1.1780 -0.7952 -0.3742
16065TIP3   OH269609   0.231   3.623  15.414  0.1326 -0.2157  0.3358
16065TIP3    H169610   0.204   3.700  15.364  1.1614 -0.5298 -0.7584
16065TIP3    H269611   0.323   3.639  15.435  0.7206 -1.6240 -0.9274
16066TIP3   OH269612   4.666   6.035   1.362  0.0637 -0.3523 -0.3910
16066TIP3    H169613   4.665   6.047   1.267 -0.9472  0.8630 -0.2527
16066TIP3    H269614   4.695   6.119   1.396 -0.3686 -0.5148  0.3996
16067TIP3   OH269615   3.536   5.062   2.946 -0.6432  0.2926  0.2233
16067TIP3    H169616   3.463   5.124   2.949  0.1757  1.2459  1.3506
16067TIP3    H269617   3.591   5.086   3.020  2.2147  1.3596 -2.0309
16068TIP3   OH269618   0.246   4.842  17.001 -0.1035 -0.0366  0.4002
16068TIP3    H169619   0.244   4.747  17.007 -1.8919 -0.2945 -2.4744
16068TIP3    H269620   0.293   4.861  16.920 -3.6551  1.1423 -1.6555
16069TIP3   OH269621   4.417   3.574   4.148  0.0052  0.1642  0.3310
16069TIP3    H169622   4.504   3.577   4.108 -0.1849 -0.4607 -0.1645
16069TIP3    H269623   4.433   3.576   4.242  0.5206  0.7295  0.2335
16070TIP3   OH269624   6.609   5.630  15.572  0.0058 -0.2030 -0.6748
16070TIP3    H169625   6.619   5.725  15.569  2.1248 -0.3481 -0.1406
16070TIP3    H269626   6.598   5.610  15.664  2.1939 -0.6037 -0.4346
16071TIP3   OH269627   6.727   2.658   2.491  0.0078  0.0696  0.3753
16071TIP3    H169628   6.649   2.608   2.512 -2.1641  1.0121 -4.2243
16071TIP3    H269629   6.798   2.594   2.492 -1.7508 -2.0131 -0.4003
16072TIP3   OH269630   4.615   1.795   3.819 -0.7091 -0.3212 -0.4102
16072TIP3    H169631   4.652   1.881   3.798 -3.3226  0.8425 -0.6073
16072TIP3    H269632   4.603   1.753   3.733  0.0788 -0.6903 -0.3475
16073TIP3   OH269633   1.837   4.777  13.049 -0.7891  0.1128 -0.5576
16073TIP3    H169634   1.906   4.762  13.113 -1.3696  0.9861  0.3016
16073TIP3    H269635   1.835   4.872  13.037 -1.1463  0.0163 -1.3765
16074TIP3   OH269636   6.538   3.672   2.384 -0.6436  0.3449  0.2796
16074TIP3    H169637   6.517   3.761   2.358 -0.8081  0.0809 -0.5289
16074TIP3    H269638   6.454   3.631   2.403 -0.7952 -0.3054 -1.6143
16075TIP3   OH269639   3.375   2.623  15.067  0.3955  0.6914  0.6389
16075TIP3    H169640   3.320   2.668  15.003  0.9850 -1.0046 -1.1307
16075TIP3    H269641   3.315   2.563  15.112  0.2163  1.0497  0.8875
16076TIP3   OH269642   0.725   2.937   2.212  0.2662 -0.4612 -0.4215
16076TIP3    H169643   0.632   2.913   2.221  0.5223 -1.9505 -1.3166
16076TIP3    H269644   0.753   2.892   2.133  1.1217  2.1291 -1.6997
16077TIP3   OH269645   3.708   4.935   6.102 -0.1863  0.0947 -0.1737
16077TIP3    H169646   3.754   4.939   6.018  0.5189 -0.2957  0.1890
16077TIP3    H269647   3.760   4.876   6.156  0.2645  1.5955  1.0942
16078TIP3   OH269648   2.207   1.175  14.860 -0.5430 -0.6105  0.0804
16078TIP3    H169649   2.146   1.137  14.797  0.4405  0.1318 -1.3944
16078TIP3    H269650   2.174   1.149  14.946 -1.9581 -1.6190 -0.7427
16079TIP3   OH269651   4.636   6.372  13.859  0.0417 -0.0274 -0.4127
16079TIP3    H169652   4.675   6.362  13.773 -0.7398  0.5794 -0.8529
16079TIP3    H269653   4.704   6.414  13.912  0.3488  0.0534 -0.8744
16080TIP3   OH269654   1.750   5.051  11.027 -0.3929 -0.2270 -0.1281
16080TIP3    H169655   1.733   5.065  10.934  0.7954  1.4194 -0.1374
16080TIP3    H269656   1.768   5.138  11.062 -1.1109 -0.7715  1.7273
16081TIP3   OH269657   4.020   3.570  15.823  0.0669 -0.7525 -0.6537
16081TIP3    H169658   4.020   3.664  15.836  1.0590 -0.5515 -1.8914
16081TIP3    H269659   4.022   3.559  15.728  1.4202 -1.9882 -0.5217
16082TIP3   OH269660   4.704   6.602   3.366  0.1678 -0.2240  0.0013
16082TIP3    H169661   4.771   6.548   3.323  0.2453  0.4404 -0.7169
16082TIP3    H269662   4.621   6.570   3.330 -0.1330 -2.4246  2.3460
16083TIP3   OH269663   6.190   0.158   2.529  0.0040 -0.1986  0.1346
16083TIP3    H169664   6.118   0.211   2.562  1.5907  0.8812  2.1321
16083TIP3    H269665   6.154   0.113   2.453 -2.4527  1.0326  0.4611
16084TIP3   OH269666   3.121   5.736   6.530  0.6137  0.1267 -0.1290
16084TIP3    H169667   3.197   5.698   6.485  0.4749 -0.8525  0.4357
16084TIP3    H269668   3.142   5.728   6.623  0.1676  0.5969  0.0154
16085TIP3   OH269669   5.248   3.833  13.434  0.6534 -1.0752  0.0347
16085TIP3    H169670   5.337   3.820  13.401  0.2624 -0.6997 -1.2137
16085TIP3    H269671   5.258   3.895  13.506  1.2420  0.2951 -1.1730
16086TIP3   OH269672   1.514   6.096  15.897 -0.3054 -0.3852  0.1032
16086TIP3    H169673   1.500   6.184  15.862  0.3802  0.1424  1.0797
16086TIP3    H269674   1.437   6.079  15.951 -0.7523 -0.6673 -0.6142
16087TIP3   OH269675   5.073   1.895   2.410  0.3416 -0.3483  0.5361
16087TIP3    H169676   5.022   1.857   2.338  0.6356 -0.8336  0.5853
16087TIP3    H269677   5.090   1.985   2.382 -2.0490  0.4114  1.2738
16088TIP3   OH269678   3.934   6.105  16.978 -0.2486  0.3798 -0.1745
16088TIP3    H169679   3.850   6.087  16.936 -0.0502  1.1957 -0.9448
16088TIP3    H269680   3.913   6.122  17.069 -0.7690 -0.7219 -0.0715
16089TIP3   OH269681   0.620   6.028  14.348 -0.1878 -0.4901 -0.0876
16089TIP3    H169682   0.676   5.953  14.368  0.3075 -0.1181 -0.0515
16089TIP3    H269683   0.678   6.104  14.357 -0.9318 -0.0133  0.9438
16090TIP3   OH269684   6.097   4.414  12.461  0.0110 -0.1232 -0.2691
16090TIP3    H169685   6.164   4.442  12.398  0.2246 -0.0128  0.0058
16090TIP3    H269686   6.119   4.324  12.482  0.9124  0.3458  0.8942
16091TIP3   OH269687   5.025   5.204  15.102  0.2003 -0.0517 -0.1546
16091TIP3    H169688   5.068   5.282  15.138 -0.7135  0.4763 -0.1562
16091TIP3    H269689   5.088   5.168  15.039  1.0472  0.0950  0.5966
16092TIP3   OH269690   1.329   1.511  15.557 -0.0854  0.0993  0.3148
16092TIP3    H169691   1.284   1.595  15.547  0.0068 -0.0072 -1.2144
16092TIP3    H269692   1.340   1.479  15.468  0.9702 -0.9676  0.7998
16093TIP3   OH269693   1.727   6.213  12.571  0.0987  0.3887  0.3351
16093TIP3    H169694   1.690   6.167  12.495  0.8398  1.0503 -0.4443
16093TIP3    H269695   1.798   6.266  12.535 -1.1457  2.6908  1.0637
16094TIP3   OH269696   2.960   2.365   4.083 -0.5160  0.2084  0.1160
16094TIP3    H169697   2.940   2.280   4.121 -1.3004 -0.3959 -1.5691
16094TIP3    H269698   2.948   2.354   3.989  1.4094  1.6288 -0.3789
16095TIP3   OH269699   2.672   2.191  12.330  0.5114 -0.2674  0.1191
16095TIP3    H169700   2.622   2.192  12.249 -0.7328  0.5505  0.8678
16095TIP3    H269701   2.674   2.282  12.359  1.2917 -0.4824  0.8088
16096TIP3   OH269702   1.729   1.304   0.735  0.3682  0.5113  0.1605
16096TIP3    H169703   1.695   1.276   0.819  0.0437 -0.4565 -0.2830
16096TIP3    H269704   1.692   1.392   0.722 -0.0959  0.4031  0.7313
16097TIP3   OH269705   3.071   2.949   2.360  0.5945  0.0935  0.3446
16097TIP3    H169706   3.108   3.029   2.322  0.0586  0.8849  1.4350
16097TIP3    H269707   3.143   2.912   2.411  0.5129  0.5083  0.7681
16098TIP3   OH269708   6.600   6.009   4.072  0.2645 -0.2604  0.3942
16098TIP3    H169709   6.643   5.949   4.011 -0.1294  0.3113 -0.4534
16098TIP3    H269710   6.657   6.009   4.149 -0.1577 -2.3949  0.8003
16099TIP3   OH269711   4.048   2.003   3.839 -0.5701  0.3979  0.1204
16099TIP3    H169712   4.136   1.992   3.803  0.8662  1.6580  2.9826
16099TIP3    H269713   4.011   1.915   3.838  1.4075 -0.4955  0.4854
16100TIP3   OH269714   3.726   1.301   5.308  0.2183 -0.1197  0.4090
16100TIP3    H169715   3.776   1.333   5.233  0.6875 -0.0097  0.7592
16100TIP3    H269716   3.750   1.209   5.317 -0.2470 -0.2762  0.1055
16101TIP3   OH269717   4.757   5.293   4.571  0.0707 -0.2015 -0.3997
16101TIP3    H169718   4.809   5.212   4.568 -0.0791 -0.2729 -3.3902
16101TIP3    H269719   4.778   5.339   4.490 -0.0563  2.7100  1.0565
16102TIP3   OH269720   4.167   2.592  14.728  0.0734  0.4510  0.4821
16102TIP3    H169721   4.149   2.671  14.677 -2.2699 -0.2439  0.1258
16102TIP3    H269722   4.180   2.624  14.818  0.9920  1.3698  0.0470
16103TIP3   OH269723   2.766   0.189   4.158  0.2759  0.2022 -0.1486
16103TIP3    H169724   2.716   0.239   4.093  0.2883 -1.5968 -1.6235
16103TIP3    H269725   2.845   0.162   4.112 -0.1830 -1.9755  0.2488
16104TIP3   OH269726   2.747   4.206  12.568 -0.4752 -0.1833  0.2695
16104TIP3    H169727   2.658   4.208  12.603 -0.4253  0.2478  0.3856
16104TIP3    H269728   2.736   4.220  12.474 -0.5080  0.2824  0.3387
16105TIP3   OH269729   4.056   0.279  11.627 -0.2034 -0.2855 -0.0261
16105TIP3    H169730   4.016   0.352  11.581 -3.6895 -2.2891 -0.4718
16105TIP3    H269731   4.074   0.215  11.559 -2.1121 -1.8619  0.8701
16106TIP3   OH269732   2.230   3.077  12.320  0.1328 -0.2754  0.3683
16106TIP3    H169733   2.136   3.067  12.311 -0.1775  1.8593  0.7890
16106TIP3    H269734   2.265   3.053  12.234 -0.9358  0.3848 -0.2716
16107TIP3   OH269735   0.835   1.597   1.240 -0.5634 -0.7366 -0.0791
16107TIP3    H169736   0.877   1.640   1.315 -1.1869  1.4115 -0.8793
16107TIP3    H269737   0.754   1.561   1.275 -1.3600  1.1436  0.1505
16108TIP3   OH269738   3.531   1.773  16.997 -0.3425 -0.2510  0.5183
16108TIP3    H169739   3.450   1.796  16.953 -0.0789  0.6861  0.5055
16108TIP3    H269740   3.548   1.846  17.057  0.7389 -0.1932  0.1675
16109TIP3   OH269741   2.207   2.501   0.568 -0.1216  0.2023  0.0534
16109TIP3    H169742   2.251   2.430   0.616 -1.4822 -0.7893 -0.1165
16109TIP3    H269743   2.173   2.559   0.636 -0.5984 -0.3068  0.2586
16110TIP3   OH269744   5.995   3.944  15.332  0.2206  0.0208 -0.1997
16110TIP3    H169745   5.961   4.022  15.289  0.1431 -0.4020 -0.9299
16110TIP3    H269746   5.927   3.877  15.318 -0.1118  0.0473  1.1705
16111TIP3   OH269747   4.867   2.680  15.762 -0.1850  0.0594  0.3955
16111TIP3    H169748   4.790   2.649  15.810 -0.8796 -0.9955 -1.2883
16111TIP3    H269749   4.924   2.717  15.829 -2.3036  1.2117  1.6859
16112TIP3   OH269750   0.475   0.867  12.469 -0.1217 -0.1440 -0.0154
16112TIP3    H169751   0.527   0.939  12.505  0.0848 -1.0146  1.4940
16112TIP3    H269752   0.403   0.910  12.422  0.5940  1.0386 -0.0524
16113TIP3   OH269753   0.914   1.251   0.158  0.4374  0.0838 -0.0809
16113TIP3    H169754   0.972   1.205   0.219  1.2251  0.2719 -0.6818
16113TIP3    H269755   0.843   1.284   0.214  1.8956  1.5308  1.0007
16114TIP3   OH269756   3.039   4.862   3.593 -0.3355 -0.3397 -0.1736
16114TIP3    H169757   3.082   4.790   3.546 -0.3811 -0.3531 -0.1956
16114TIP3    H269758   2.948   4.860   3.561 -0.0421  0.5062 -1.0960
16115TIP3   OH269759   6.063   4.050   0.228 -0.2097 -0.4718  0.4987
16115TIP3    H169760   5.990   4.112   0.232 -1.4141 -1.5039 -2.4603
16115TIP3    H269761   6.022   3.965   0.240  0.7245 -0.9800  0.1546
16116TIP3   OH269762   2.888   6.222  14.978  0.2833  0.0279  0.3374
16116TIP3    H169763   2.794   6.241  14.987 -0.5502 -3.3855  0.2363
16116TIP3    H269764   2.898   6.193  14.888  1.5657  0.7687  0.2221
16117TIP3   OH269765   4.725   1.311  13.165 -0.1937 -0.3558  0.2412
16117TIP3    H169766   4.802   1.281  13.215 -1.1776 -0.6411  1.6366
16117TIP3    H269767   4.651   1.295  13.223 -1.2295  0.7314 -0.7348
16118TIP3   OH269768   4.819   5.060   3.163  0.2220  0.3993  0.5302
16118TIP3    H169769   4.741   5.048   3.108  1.2083  1.5002 -1.2145
16118TIP3    H269770   4.869   4.979   3.150  0.7497  0.9055 -0.7669
16119TIP3   OH269771   0.503   2.683   4.550  0.2655  0.3824 -0.5077
16119TIP3    H169772   0.493   2.760   4.495  0.9498  1.4289  0.7823
16119TIP3    H269773   0.561   2.711   4.621 -1.2532 -0.6301  1.2453
16120TIP3   OH269774   4.730   4.773  16.024 -0.4309 -0.3941  0.4594
16120TIP3    H169775   4.774   4.715  16.086 -0.9040 -0.5997  0.6056
16120TIP3    H269776   4.748   4.735  15.938 -0.2109 -0.4037  0.5109
16121TIP3   OH269777   3.554   1.433  11.654 -0.2344 -0.6278  0.3256
16121TIP3    H169778   3.563   1.469  11.742 -1.5093  0.2180  0.1264
16121TIP3    H269779   3.643   1.404  11.631  0.9310  2.4912  0.4537
16122TIP3   OH269780   0.968   5.337  11.380 -0.1453 -0.0590  0.2758
16122TIP3    H169781   0.921   5.260  11.350 -1.0696  0.6955 -0.2999
16122TIP3    H269782   0.907   5.381  11.439 -0.3179  1.0651 -0.6806
16123TIP3   OH269783   4.934   5.666  11.617  0.5144 -0.3841 -0.4571
16123TIP3    H169784   5.029   5.660  11.631  0.2687 -3.1412  0.7621
16123TIP3    H269785   4.925   5.681  11.523  2.2329 -2.9636 -1.1631
16124TIP3   OH269786   3.308   4.167   3.831  0.4727  0.0969 -0.1674
16124TIP3    H169787   3.322   4.147   3.738  0.2385  0.3050 -0.2485
16124TIP3    H269788   3.213   4.175   3.839  0.5738  1.5496 -0.2156
16125TIP3   OH269789   0.731   4.290  12.512  0.3377 -0.8166 -0.4111
16125TIP3    H169790   0.814   4.307  12.466 -0.0327 -1.8686 -1.5338
16125TIP3    H269791   0.666   4.285  12.442 -0.0815 -3.5022  0.0638
16126TIP3   OH269792   1.832   1.106   5.749  0.0645  0.8327  0.1981
16126TIP3    H169793   1.916   1.140   5.781 -0.1431  1.1728  0.3928
16126TIP3    H269794   1.833   1.013   5.771  1.3283  0.3255 -1.7763
16127TIP3   OH269795   5.931   3.759   5.536 -0.2314  0.0998 -0.6206
16127TIP3    H169796   5.909   3.797   5.621  0.9673 -0.3753 -0.0841
16127TIP3    H269797   5.968   3.673   5.557  1.6458  0.6491 -1.4929
16128TIP3   OH269798   5.091   1.950  11.507  0.2186 -1.0751 -1.3579
16128TIP3    H169799   5.094   2.046  11.512 -0.4307 -1.1387  1.1414
16128TIP3    H269800   5.003   1.931  11.476 -1.5196 -0.8389  2.7857
16129TIP3   OH269801   1.294   0.838  16.151  0.1493 -0.2502  0.5314
16129TIP3    H169802   1.236   0.782  16.202  0.9340 -0.6899  0.9378
16129TIP3    H269803   1.297   0.797  16.065  0.3588 -0.5812  0.6950
16130TIP3   OH269804   0.052   2.895  12.904 -0.5647 -0.2807  0.3329
16130TIP3    H169805  -0.016   2.892  12.836 -1.4564  0.6352  1.1554
16130TIP3    H269806   0.022   2.832  12.970 -0.3357 -0.2601  0.4556
16131TIP3   OH269807   0.092   3.079   2.166  0.1294  0.5542  0.4656
16131TIP3    H169808   0.011   3.127   2.180 -1.4919 -2.0251  0.3734
16131TIP3    H269809   0.077   2.992   2.203  2.3359 -0.4793 -0.8153
16132TIP3   OH269810   0.496   0.133   4.089 -0.3691  0.1903  0.3623
16132TIP3    H169811   0.415   0.101   4.130 -1.5275  1.3689 -0.8996
16132TIP3    H269812   0.479   0.225   4.072  0.3119 -0.0560 -2.0394
16133TIP3   OH269813   1.943   1.348  15.359 -0.1802  0.4121  0.2437
16133TIP3    H169814   2.023   1.362  15.309  0.9560 -1.5837  1.3792
16133TIP3    H269815   1.906   1.267  15.324 -0.0229 -0.3467  1.7513
16134TIP3   OH269816   2.465   5.862   3.951 -0.4765 -0.2232 -0.3203
16134TIP3    H169817   2.526   5.919   3.997  2.2052 -3.7375  0.9582
16134TIP3    H269818   2.473   5.888   3.859  0.6825  1.3450  0.1861
16135TIP3   OH269819   0.177   1.476   5.163  0.1336 -0.5256 -0.0811
16135TIP3    H169820   0.084   1.498   5.155  0.2156 -0.5644 -1.4321
16135TIP3    H269821   0.203   1.450   5.074  1.9208  1.4924 -0.2509
16136TIP3   OH269822   6.191   1.759   4.167 -0.0297 -0.4691 -0.2203
16136TIP3    H169823   6.158   1.833   4.117  1.2983 -0.5527 -1.2698
16136TIP3    H269824   6.204   1.793   4.256 -0.1476  0.3438 -0.5126
16137TIP3   OH269825   6.285   1.187   4.696 -0.9207  0.0007 -0.6485
16137TIP3    H169826   6.209   1.158   4.746 -2.0223  2.9298 -0.3850
16137TIP3    H269827   6.329   1.250   4.753 -0.2314  0.8605 -2.0553
16138TIP3   OH269828   3.444   3.480   3.766  0.4635  0.0278  0.1048
16138TIP3    H169829   3.358   3.515   3.791  0.0669 -0.1861 -0.9108
16138TIP3    H269830   3.479   3.445   3.848 -0.7028 -0.4780  0.4163
16139TIP3   OH269831   1.022   6.183  11.147  0.4005 -0.1581 -0.0110
16139TIP3    H169832   0.991   6.101  11.108 -0.3307  1.1475 -2.3627
16139TIP3    H269833   1.114   6.189  11.119 -0.4519  1.3807 -2.8503
16140TIP3   OH269834   5.581   4.226  17.137  0.1371  0.3314 -0.3679
16140TIP3    H169835   5.658   4.181  17.103 -1.2259 -1.0850 -1.8026
16140TIP3    H269836   5.574   4.306  17.085 -1.0134 -1.0313 -2.4502
16141TIP3   OH269837   3.381   1.906  16.736  0.1373  0.4108 -0.2483
16141TIP3    H169838   3.317   1.839  16.711  0.6581  0.1750 -0.9865
16141TIP3    H269839   3.411   1.943  16.653  1.5863 -0.0818  0.0259
16142TIP3   OH269840   1.417   3.013   6.102 -0.1053 -0.2257 -0.0780
16142TIP3    H169841   1.495   3.042   6.148 -0.8856  2.4551 -0.2715
16142TIP3    H269842   1.433   2.920   6.083  2.7804  0.1062  0.3032
16143TIP3   OH269843   0.152   4.255  13.390  0.4370  0.9786  0.2441
16143TIP3    H169844   0.153   4.327  13.453  1.5689  0.1755  1.1953
16143TIP3    H269845   0.202   4.287  13.316  1.2345  1.0610  0.8090
16144TIP3   OH269846   0.818   0.521  17.192  0.3936 -0.0884  0.3554
16144TIP3    H169847   0.868   0.442  17.216  1.5275 -0.0689 -1.7260
16144TIP3    H269848   0.870   0.562  17.124 -0.1843  2.5173  1.3871
16145TIP3   OH269849   0.139   1.718   6.429  0.3460 -0.5220 -0.2398
16145TIP3    H169850   0.113   1.627   6.443 -2.2217  0.2956  1.0291
16145TIP3    H269851   0.148   1.754   6.518  0.9448  0.5743 -0.7239
16146TIP3   OH269852   2.805   2.071   4.044  0.2687  0.7864 -0.8471
16146TIP3    H169853   2.757   2.064   4.127  2.4017 -1.7187  0.3364
16146TIP3    H269854   2.751   2.024   3.981  0.6558 -1.2670  0.2574
16147TIP3   OH269855   5.623   1.736   2.076  0.0102 -0.8469 -0.2937
16147TIP3    H169856   5.605   1.653   2.119  1.3099 -0.7706  0.4623
16147TIP3    H269857   5.624   1.716   1.983 -1.5001 -1.2886 -0.2380
16148TIP3   OH269858   2.479   5.393  16.708 -0.1017 -0.6939 -0.5511
16148TIP3    H169859   2.453   5.479  16.741  0.5639  0.3546 -2.5261
16148TIP3    H269860   2.397   5.348  16.691 -0.5003  0.0248 -0.5922
16149TIP3   OH269861   6.003   3.335  14.152 -0.1890 -0.0566 -0.3468
16149TIP3    H169862   5.953   3.407  14.113 -0.3010 -1.0785 -2.1922
16149TIP3    H269863   6.094   3.354  14.131 -0.2197 -0.4523 -0.8489
16150TIP3   OH269864   2.052   1.292   2.740  0.2754  0.1275 -0.0057
16150TIP3    H169865   1.976   1.315   2.686  2.2969  3.7104 -1.6627
16150TIP3    H269866   2.042   1.346   2.819 -0.2621 -1.5401  1.1078
16151TIP3   OH269867   6.132   1.796  13.712 -0.2483 -0.0390 -0.0968
16151TIP3    H169868   6.108   1.704  13.715 -0.1019 -0.0549  0.9510
16151TIP3    H269869   6.140   1.822  13.804 -2.6508  1.6555 -0.2864
16152TIP3   OH269870   5.092   3.684   5.144  0.5371  0.3277  0.3647
16152TIP3    H169871   5.112   3.595   5.170  0.0421  0.3298  0.7633
16152TIP3    H269872   5.054   3.724   5.222 -1.6517  0.1207 -0.5300
16153TIP3   OH269873   0.784   5.297  14.996 -0.9027  0.3450 -0.4848
16153TIP3    H169874   0.748   5.225  15.046  1.1773 -0.0795  0.5213
16153TIP3    H269875   0.708   5.346  14.965 -2.2994 -0.7226  1.1066
16154TIP3   OH269876   3.729   6.551   2.815 -0.3767  0.1886  0.5354
16154TIP3    H169877   3.636   6.538   2.795 -0.7543 -0.3449  2.3896
16154TIP3    H269878   3.775   6.486   2.762 -1.0702  0.3823 -0.3174
16155TIP3   OH269879   1.064   0.566   4.870  0.2895  0.0637 -0.6904
16155TIP3    H169880   1.099   0.491   4.822 -0.2024 -1.6049  1.4070
16155TIP3    H269881   0.978   0.537   4.901  0.9224  0.6764  1.8841
16156TIP3   OH269882   4.130   6.407   2.895  0.8383 -0.4004 -0.1870
16156TIP3    H169883   4.048   6.376   2.933  0.8532  0.5495  0.6813
16156TIP3    H269884   4.121   6.391   2.802 -0.7529  0.5383 -0.2374
16157TIP3   OH269885   4.630   2.557   1.595  0.1687  0.2034 -0.6413
16157TIP3    H169886   4.627   2.601   1.679  0.6047 -1.0702  0.0668
16157TIP3    H269887   4.554   2.590   1.547  0.4666  1.6788 -0.1500
16158TIP3   OH269888   4.310   2.981  11.493 -0.1059  0.3791  0.2661
16158TIP3    H169889   4.307   2.896  11.538 -0.1217 -0.5315 -1.3699
16158TIP3    H269890   4.218   3.008  11.487 -0.4348 -0.9683 -1.7891
16159TIP3   OH269891   2.058   2.048  17.231 -0.0937 -0.0804 -0.1553
16159TIP3    H169892   2.120   1.976  17.229 -1.2643 -1.2096  1.5159
16159TIP3    H269893   2.109   2.123  17.261  1.0872 -0.2338 -1.6947
16160TIP3   OH269894   5.510   5.650   5.355  0.4014 -0.3963  0.5013
16160TIP3    H169895   5.510   5.617   5.444 -0.3561 -3.0243 -0.3898
16160TIP3    H269896   5.598   5.631   5.322  0.0230 -1.4453  0.0465
16161TIP3   OH269897   3.933   3.202  12.247 -0.1569  0.8629  0.2326
16161TIP3    H169898   4.012   3.232  12.293  0.3587 -0.1658  0.0571
16161TIP3    H269899   3.864   3.261  12.277  0.8724  2.4885 -0.4311
16162TIP3   OH269900   1.019   0.645  15.860  0.4627 -0.1021 -0.6432
16162TIP3    H169901   1.044   0.582  15.927  0.3014  0.9975  0.5021
16162TIP3    H269902   0.942   0.607  15.819 -0.5175 -0.0105  1.0267
16163TIP3   OH269903   5.671   1.050   4.454 -0.2890 -0.0151  0.4240
16163TIP3    H169904   5.718   0.999   4.520  0.7436  0.2979 -0.0472
16163TIP3    H269905   5.678   1.141   4.484 -1.7872 -0.0707  1.0550
16164TIP3   OH269906   3.460   4.256   1.618 -0.0572  0.0797  0.9916
16164TIP3    H169907   3.507   4.230   1.539 -0.4459  0.2772  0.6903
16164TIP3    H269908   3.521   4.315   1.663  0.4022 -0.5054  1.1476
16165TIP3   OH269909   5.908   5.905   3.491  0.8085 -0.2220 -0.1404
16165TIP3    H169910   5.898   5.890   3.585  0.6362 -1.3176 -0.3269
16165TIP3    H269911   5.934   5.820   3.455  0.1109 -0.0122 -1.1890
16166TIP3   OH269912   4.836   1.933   0.647 -0.2029  0.4806 -0.2262
16166TIP3    H169913   4.785   1.874   0.592 -0.2182  0.6540 -0.3982
16166TIP3    H269914   4.808   2.021   0.621 -1.0255  0.5502  0.8346
16167TIP3   OH269915   6.484   5.623   1.618  0.1216  0.1550  0.1425
16167TIP3    H169916   6.465   5.687   1.549  0.2588  1.3394  1.1589
16167TIP3    H269917   6.426   5.550   1.599 -2.5299  1.9325  0.7630
16168TIP3   OH269918   4.962   5.666   2.422  0.4262  0.0933  0.3289
16168TIP3    H169919   4.866   5.656   2.418  0.4233 -0.4870  1.2919
16168TIP3    H269920   4.982   5.733   2.358 -1.0043  2.6931  2.3746
16169TIP3   OH269921   0.488   2.377  12.182  0.0028  0.1284 -0.0981
16169TIP3    H169922   0.578   2.409  12.182  0.3012 -0.6419  1.1038
16169TIP3    H269923   0.471   2.354  12.091  1.6588 -1.4048 -0.0776
16170TIP3   OH269924   2.545   5.598   4.006 -0.1325  0.0202 -0.2431
16170TIP3    H169925   2.494   5.678   3.992  1.1864  0.7631 -0.9763
16170TIP3    H269926   2.609   5.597   3.935  1.4113 -0.4462  1.0857
16171TIP3   OH269927   4.966   6.237  17.318 -0.1215  0.4407  0.8359
16171TIP3    H169928   4.943   6.238  17.411 -2.3350 -0.3314  0.3476
16171TIP3    H269929   5.013   6.154  17.306 -3.1759 -1.4158  0.6304
16172TIP3   OH269930   1.684   1.648   6.208  0.0264 -0.4458 -0.1586
16172TIP3    H169931   1.690   1.574   6.269  0.8438  0.2981  0.7107
16172TIP3    H269932   1.722   1.615   6.127 -0.6809 -1.3284 -0.1421
16173TIP3   OH269933   0.211   6.695   1.587  0.1335 -0.8075  0.4610
16173TIP3    H169934   0.168   6.631   1.643  0.0855 -1.0283  0.1736
16173TIP3    H269935   0.200   6.661   1.498  0.9704 -0.9141  0.3877
16174TIP3   OH269936   1.011   4.056   2.751  0.1909  0.4112  0.1844
16174TIP3    H169937   0.951   3.988   2.724 -0.1649  0.5850  0.5273
16174TIP3    H269938   0.956   4.122   2.794  0.2759  1.7412 -1.6351
16175TIP3   OH269939   1.956   2.909  15.772 -0.1420 -0.2044  0.4255
16175TIP3    H169940   1.915   2.840  15.720 -0.7448 -0.9088  1.7777
16175TIP3    H269941   1.905   2.911  15.854  1.4773  0.0703  1.4695
16176TIP3   OH269942   3.808   1.378  14.672 -0.1561  0.0031  0.2138
16176TIP3    H169943   3.893   1.418  14.688 -0.1814 -0.7472  2.4657
16176TIP3    H269944   3.826   1.306  14.612  1.0068 -0.8002  1.4753
16177TIP3   OH269945   1.987   1.296   0.820 -0.6106  0.0546 -0.2897
16177TIP3    H169946   2.046   1.254   0.757 -2.1233  1.3130 -2.6865
16177TIP3    H269947   1.900   1.262   0.797 -1.0550 -0.8705  2.4005
16178TIP3   OH269948   4.288   2.510  12.737 -0.1075 -0.4089 -0.1201
16178TIP3    H169949   4.336   2.428  12.743 -1.0346 -0.9741 -0.2521
16178TIP3    H269950   4.197   2.487  12.758 -0.2008  0.7700  0.8942
16179TIP3   OH269951   1.870   6.592   0.323  0.0772  0.4471 -0.5299
16179TIP3    H169952   1.871   6.558   0.233 -1.0890  0.5827 -0.6126
16179TIP3    H269953   1.820   6.528   0.373  1.7371 -0.2568  0.3268
16180TIP3   OH269954   3.217   0.563  11.755 -0.5501  0.7338  0.3974
16180TIP3    H169955   3.124   0.585  11.751 -0.5890  0.4719 -0.2547
16180TIP3    H269956   3.244   0.555  11.664  0.5125  2.4533  0.5159
16181TIP3   OH269957   2.997   5.754   3.452 -0.0975  0.4883 -0.4206
16181TIP3    H169958   2.985   5.822   3.386  1.6815  1.0277 -0.2387
16181TIP3    H269959   3.067   5.699   3.417  2.7390  2.2233  1.9840
16182TIP3   OH269960   1.768   5.818   3.912 -0.2571 -0.7510  0.2776
16182TIP3    H169961   1.756   5.912   3.920  3.1558 -0.1782  0.0023
16182TIP3    H269962   1.712   5.792   3.838 -1.3054  0.9881  0.4156
16183TIP3   OH269963   1.951   3.689  13.735 -0.3803 -0.6057  0.2974
16183TIP3    H169964   1.926   3.732  13.817 -0.7505  1.1666 -0.6840
16183TIP3    H269965   2.043   3.667  13.746  0.4382  2.3506  0.1501
16184TIP3   OH269966   2.099   2.884   6.514 -0.3712  0.0864 -0.6310
16184TIP3    H169967   2.164   2.910   6.580  0.7287  0.2685 -1.7389
16184TIP3    H269968   2.129   2.798   6.484 -1.2578 -0.3064 -0.4095
16185TIP3   OH269969   3.687   2.363  11.206 -0.3618  0.0285 -0.0261
16185TIP3    H169970   3.682   2.449  11.247  1.1712  0.0555  0.1737
16185TIP3    H269971   3.607   2.356  11.154  1.1511  3.1316 -3.1145
16186TIP3   OH269972   0.161   1.910   2.428 -0.2537 -0.2089  0.2912
16186TIP3    H169973   0.188   1.933   2.517  1.7191 -2.1499  0.2978
16186TIP3    H269974   0.093   1.844   2.439 -1.9601  1.4850  0.2933
16187TIP3   OH269975   4.835   2.434   4.938 -0.4499 -0.0839  0.5778
16187TIP3    H169976   4.804   2.359   4.887 -0.8151  0.7606 -0.4604
16187TIP3    H269977   4.926   2.446   4.911 -0.5189  0.1093  0.4338
16188TIP3   OH269978   6.026   5.787   2.507 -0.1871 -0.3041 -0.6594
16188TIP3    H169979   5.964   5.773   2.435  0.1656  0.4464 -1.1204
16188TIP3    H269980   6.095   5.723   2.492 -0.4857 -0.6477 -0.5677
16189TIP3   OH269981   3.096   2.606   3.693  0.1738 -0.2250  0.1068
16189TIP3    H169982   3.123   2.620   3.603 -1.6420  1.5126 -0.2332
16189TIP3    H269983   3.174   2.625   3.745  0.7620  0.5038 -1.0072
16190TIP3   OH269984   1.773   4.633   1.443 -0.2826  0.4312  0.1023
16190TIP3    H169985   1.759   4.544   1.411 -1.7992  0.9589 -0.7957
16190TIP3    H269986   1.851   4.663   1.397 -1.3281  0.4963 -1.7128
16191TIP3   OH269987   4.000   2.409   2.137 -0.4657 -0.2243 -0.0377
16191TIP3    H169988   4.027   2.352   2.065 -1.1684  0.3127 -0.7402
16191TIP3    H269989   3.968   2.488   2.094 -2.1924 -0.4231  0.7917
16192TIP3   OH269990   1.888   0.992   3.878 -0.2141 -0.0708  0.4877
16192TIP3    H169991   1.934   0.974   3.797 -1.6077 -0.6241 -0.2235
16192TIP3    H269992   1.909   1.083   3.898  0.7419 -0.1527 -0.0794
16193TIP3   OH269993   6.224   2.503  14.132  0.2801 -0.3174 -0.4670
16193TIP3    H169994   6.271   2.527  14.052 -0.3331 -0.6804 -0.9369
16193TIP3    H269995   6.132   2.500  14.107  0.1654 -1.3155  0.0361
16194TIP3   OH269996   4.538   2.400   0.647  0.5176  0.0342  0.8039
16194TIP3    H169997   4.566   2.385   0.737 -1.5247 -0.7773  1.3468
16194TIP3    H269998   4.492   2.320   0.623 -1.1227  1.2051 -0.0963
16195TIP3   OH269999   1.469   4.013   5.256 -0.4803  0.0873  0.2775
16195TIP3    H170000   1.481   4.077   5.185 -0.5764 -0.9730 -0.7231
16195TIP3    H270001   1.535   4.037   5.321 -0.4962  1.1835 -0.0890
16196TIP3   OH270002   2.081   2.455   6.225 -0.0775 -0.2481 -0.1281
16196TIP3    H170003   1.997   2.420   6.254  0.8839 -1.8885  0.8257
16196TIP3    H270004   2.103   2.405   6.147 -0.2745  0.6531 -0.7830
16197TIP3   OH270005   0.145   5.907   3.308 -0.2917 -0.4832 -0.5323
16197TIP3    H170006   0.101   5.915   3.223 -1.8548 -0.6400  0.2150
16197TIP3    H270007   0.233   5.876   3.287 -1.0424 -1.7301 -2.0343
16198TIP3   OH270008   3.491   0.814  14.118  0.5275  0.0828  0.0232
16198TIP3    H170009   3.467   0.735  14.071 -0.1816 -1.6383  3.0285
16198TIP3    H270010   3.423   0.877  14.096 -0.1405 -0.8799 -0.7042
16199TIP3   OH270011   3.980   0.960  16.562  0.2469  0.0802 -0.7430
16199TIP3    H170012   3.948   1.044  16.595  0.0408 -0.4297  0.4217
16199TIP3    H270013   3.900   0.914  16.534  0.2617 -0.0573 -0.5636
16200TIP3   OH270014   2.709   5.430  13.041  0.0523 -0.4749  0.2900
16200TIP3    H170015   2.620   5.444  13.010 -0.1729 -0.9745  0.7078
16200TIP3    H270016   2.699   5.383  13.124  0.7678 -3.7143 -1.2972
16201TIP3   OH270017   2.438   1.223  15.489 -0.5219  0.1936  0.0965
16201TIP3    H170018   2.528   1.253  15.483  0.0857 -1.6343 -0.7415
16201TIP3    H270019   2.407   1.256  15.574  1.1230  0.3827  0.6541
16202TIP3   OH270020   4.583   1.289   5.706  0.0029 -0.4099  0.7181
16202TIP3    H170021   4.627   1.274   5.789 -1.2049  0.7461  1.6107
16202TIP3    H270022   4.538   1.207   5.687  3.3690 -2.1012 -0.8626
16203TIP3   OH270023   2.526   3.260   0.971  0.0155 -0.7108 -0.0068
16203TIP3    H170024   2.511   3.330   0.907  1.6257 -0.5979 -0.2926
16203TIP3    H270025   2.511   3.302   1.055  0.5591 -0.1138 -0.1949
16204TIP3   OH270026   5.806   2.793   2.748 -0.0876  0.5050 -0.1090
16204TIP3    H170027   5.880   2.732   2.755 -1.5050 -1.1534  1.5951
16204TIP3    H270028   5.792   2.824   2.838 -1.0026  1.3629 -0.5330
16205TIP3   OH270029   1.058   1.125  16.933  0.1187  0.3294  0.2139
16205TIP3    H170030   1.024   1.036  16.918 -1.2345  0.6567  1.1416
16205TIP3    H270031   0.988   1.169  16.981  0.0672  2.4334 -1.6615
16206TIP3   OH270032   5.242   0.346  11.663  0.4005  0.1322  0.3774
16206TIP3    H170033   5.267   0.268  11.712  0.3481 -0.8216 -1.0594
16206TIP3    H270034   5.180   0.392  11.720 -0.5351 -1.5245  0.7349
16207TIP3   OH270035   5.191   3.141  13.804 -0.9014 -0.5689 -0.1648
16207TIP3    H170036   5.251   3.214  13.817  0.8891 -1.9959  0.0305
16207TIP3    H270037   5.108   3.170  13.844 -0.8610  2.0373 -1.7760
16208TIP3   OH270038   3.646   4.278  13.160 -0.0163  0.2036  0.1498
16208TIP3    H170039   3.718   4.277  13.097 -0.2911 -1.1830 -0.1632
16208TIP3    H270040   3.611   4.189  13.159 -0.1107  0.1835  2.1953
16209TIP3   OH270041   3.527   4.048   0.856  0.1377  0.0136  0.7227
16209TIP3    H170042   3.496   4.048   0.766  4.4157  2.5914 -1.0723
16209TIP3    H270043   3.575   3.966   0.865  0.8154  0.3232  0.0911
16210TIP3   OH270044   5.395   1.926  13.319  0.3764 -0.1733  0.5261
16210TIP3    H170045   5.488   1.908  13.333  0.6432  1.3902  1.0368
16210TIP3    H270046   5.363   1.953  13.405 -0.3629  0.0979  0.1784
16211TIP3   OH270047   2.728   4.473   2.398  0.6520  0.0974 -0.4603
16211TIP3    H170048   2.720   4.475   2.493 -2.1833 -0.1339 -0.5945
16211TIP3    H270049   2.725   4.565   2.371 -0.0971  0.1058 -0.3734
16212TIP3   OH270050   2.049   4.327  14.226  0.6078 -0.1928 -0.4516
16212TIP3    H170051   2.039   4.244  14.273 -1.7440  0.2750  0.0041
16212TIP3    H270052   1.981   4.383  14.262  1.7102  1.7469 -1.2280
16213TIP3   OH270053   4.531   1.267   6.261 -0.1277  0.3297  0.2057
16213TIP3    H170054   4.605   1.323   6.285  0.0847 -0.1801  0.7452
16213TIP3    H270055   4.472   1.272   6.337  0.0438 -0.4306  0.3910
16214TIP3   OH270056   2.163   6.734  16.592  0.0161 -0.1999 -0.6154
16214TIP3    H170057   2.191   6.646  16.565  0.9785 -0.0295 -0.2165
16214TIP3    H270058   2.216   6.753  16.669 -1.9941 -0.2859  0.8498
16215TIP3   OH270059   4.278   0.536  10.928  0.2298 -0.5171 -0.7621
16215TIP3    H170060   4.204   0.597  10.933  0.8617  0.2763 -0.9377
16215TIP3    H270061   4.252   0.472  10.862 -0.9024 -1.0910  0.1896
16216TIP3   OH270062   5.884   6.742   0.624  0.0277 -0.3476 -0.2964
16216TIP3    H170063   5.892   6.670   0.686 -2.4278 -0.4426  0.0003
16216TIP3    H270064   5.927   6.816   0.668 -0.3766 -0.7874  0.8840
16217TIP3   OH270065   1.175   0.931  14.601 -0.0743 -0.1590  0.6575
16217TIP3    H170066   1.110   0.860  14.593  0.9638 -1.1172  0.4095
16217TIP3    H270067   1.233   0.901  14.671  0.3976  0.4442  0.5259
16218TIP3   OH270068   4.019   5.211   1.004 -1.0441  0.3133  0.1581
16218TIP3    H170069   3.941   5.171   1.043 -0.1432 -1.7346 -0.0208
16218TIP3    H270070   4.032   5.164   0.922  1.2148 -0.4436  0.8796
16219TIP3   OH270071   0.386   4.631   0.303 -0.1225 -0.4069  0.3952
16219TIP3    H170072   0.403   4.660   0.214 -1.8127 -1.0618 -0.1852
16219TIP3    H270073   0.375   4.711   0.353 -0.1718 -0.0302 -0.2111
16220TIP3   OH270074   1.566   3.883  16.173 -0.1784  0.1238  0.8700
16220TIP3    H170075   1.622   3.869  16.096  1.0226  1.9045  1.3522
16220TIP3    H270076   1.612   3.951  16.223 -2.5442  1.3236  1.5450
16221TIP3   OH270077   5.995   1.408  12.379  0.2288  0.2129 -0.3656
16221TIP3    H170078   6.007   1.482  12.320  0.7972  0.2363 -0.2282
16221TIP3    H270079   5.908   1.422  12.417 -0.4825 -0.2201 -1.7613
16222TIP3   OH270080   1.292   1.125  10.795 -0.1510 -0.4626 -0.0430
16222TIP3    H170081   1.273   1.163  10.709  1.2590  0.5876  0.0692
16222TIP3    H270082   1.206   1.110  10.834 -0.8055  1.2213 -0.7249
16223TIP3   OH270083   1.459   1.280   1.328  0.4072 -0.1125  0.9270
16223TIP3    H170084   1.456   1.357   1.385  0.2242  0.7712 -0.2397
16223TIP3    H270085   1.551   1.252   1.332  1.0604  1.6326 -0.4711
16224TIP3   OH270086   1.531   3.356  16.846  0.2490 -0.5605  0.5468
16224TIP3    H170087   1.618   3.323  16.868 -0.5884 -2.4587  1.2676
16224TIP3    H270088   1.522   3.336  16.752  0.0066 -1.8952  0.8273
16225TIP3   OH270089   3.169   4.896  15.484  0.2549  0.6906  0.8878
16225TIP3    H170090   3.188   4.802  15.485  0.8901  0.7899 -0.2928
16225TIP3    H270091   3.246   4.935  15.443 -0.7082  1.5509 -0.1634
16226TIP3   OH270092   4.937   4.268   5.052 -0.2608 -0.2121  0.1672
16226TIP3    H170093   4.861   4.265   4.993 -0.5089  2.9291  0.1189
16226TIP3    H270094   4.902   4.245   5.138 -1.3237  1.1300  0.1334
16227TIP3   OH270095   0.177   5.304   2.483  0.1072  0.3372  0.3595
16227TIP3    H170096   0.153   5.393   2.457  1.3747  1.2716  2.1164
16227TIP3    H270097   0.102   5.274   2.534 -0.5796  0.1518 -0.7443
16228TIP3   OH270098   0.724   4.214   4.824  0.8794 -0.4565  0.2275
16228TIP3    H170099   0.707   4.224   4.917 -0.6765 -0.0934 -0.0734
16228TIP3    H270100   0.694   4.297   4.785  2.8884  0.0082 -0.4438
16229TIP3   OH270101   0.632   2.063  15.432  0.3147  0.5005  0.5143
16229TIP3    H170102   0.680   2.088  15.511 -0.3755  1.6369  0.6079
16229TIP3    H270103   0.656   2.130  15.368  0.4867 -0.1328 -0.0809
16230TIP3   OH270104   1.567   6.736  11.894  0.4483  0.2638  0.5669
16230TIP3    H170105   1.624   6.812  11.881 -1.3391  1.6016  0.0548
16230TIP3    H270106   1.582   6.710  11.985  0.3865  1.8753  1.0698
16231TIP3   OH270107   2.953   0.640  11.705 -0.2204 -0.2752 -0.1295
16231TIP3    H170108   3.002   0.720  11.724 -0.4153 -0.1031 -0.3447
16231TIP3    H270109   2.864   0.670  11.687 -0.4938 -0.6214  0.6184
16232TIP3   OH270110   4.350   2.421  11.860  1.0473  0.3355  0.4659
16232TIP3    H170111   4.399   2.445  11.781  0.0648  0.0156 -0.2594
16232TIP3    H270112   4.286   2.492  11.871 -0.2349 -0.6746 -0.2727
16233TIP3   OH270113   0.147   6.512  14.119 -0.8637 -0.3434  0.3589
16233TIP3    H170114   0.179   6.560  14.043 -0.9707 -1.0704 -0.1591
16233TIP3    H270115   0.058   6.544  14.133  0.1788  2.0840  2.1315
16234TIP3   OH270116   2.556   4.463  11.345  0.5132 -0.1642  0.0645
16234TIP3    H170117   2.488   4.435  11.406  0.0767 -1.5455 -1.0160
16234TIP3    H270118   2.638   4.456  11.395 -0.0240  0.7325  1.1168
16235TIP3   OH270119   5.999   2.813   2.363 -0.6762 -0.1638  0.3992
16235TIP3    H170120   6.049   2.877   2.312 -1.2830  0.6569  0.8043
16235TIP3    H270121   5.925   2.789   2.307 -0.7066 -0.1457  0.4310
16236TIP3   OH270122   4.699   4.268  15.107  0.6851  0.3060  0.2254
16236TIP3    H170123   4.691   4.220  15.024 -1.7652 -1.2952  1.2590
16236TIP3    H270124   4.696   4.360  15.082 -1.1998 -0.1312 -1.4447
16237TIP3   OH270125   3.734   5.298   2.815 -0.0432 -0.4805 -0.2199
16237TIP3    H170126   3.643   5.294   2.844  0.1423  2.1762  1.0465
16237TIP3    H270127   3.729   5.295   2.720 -1.8398  2.7289 -0.3650
16238TIP3   OH270128   5.006   4.939   5.025  0.3550  0.3466  0.1819
16238TIP3    H170129   4.944   5.006   4.995 -0.8788 -0.9546 -0.2386
16238TIP3    H270130   4.970   4.908   5.108 -0.1603 -1.1433 -0.5624
16239TIP3   OH270131   3.720   6.563  16.349 -0.3197 -0.1134 -0.0134
16239TIP3    H170132   3.655   6.493  16.351  0.8728 -1.2754 -0.5463
16239TIP3    H270133   3.796   6.526  16.393  0.4038  0.7795 -0.4799
16240TIP3   OH270134   1.974   6.075  16.822  0.6099  0.2953  0.4943
16240TIP3    H170135   2.017   6.130  16.757 -2.0434 -0.5714 -2.1698
16240TIP3    H270136   1.975   5.987  16.785 -0.7006 -0.3041  1.7589
16241TIP3   OH270137   6.335   4.954  13.703 -0.3034 -0.3481  0.0102
16241TIP3    H170138   6.358   4.987  13.790  1.8665  1.1502 -1.0373
16241TIP3    H270139   6.358   5.025  13.643  0.8988 -2.3039 -2.0220
16242TIP3   OH270140   4.332   0.403   3.864  0.5685  0.3776 -0.3585
16242TIP3    H170141   4.396   0.379   3.930  0.7241 -1.0885 -0.9929
16242TIP3    H270142   4.366   0.364   3.783 -1.5321 -1.2746 -0.5385
16243TIP3   OH270143   0.934   4.989  11.047  0.4684  0.2643 -0.3316
16243TIP3    H170144   0.918   4.907  11.001  3.0790 -0.4397 -0.1354
16243TIP3    H270145   0.904   4.973  11.136  0.2121 -0.1848 -0.4966
16244TIP3   OH270146   2.032   4.781  12.743 -0.4905 -0.8997 -0.0753
16244TIP3    H170147   1.989   4.745  12.821 -2.2273  0.3600 -0.3979
16244TIP3    H270148   2.037   4.708  12.682  0.8279 -1.8906  1.1387
16245TIP3   OH270149   3.820   1.163   1.612 -0.2992  0.2883 -0.3977
16245TIP3    H170150   3.808   1.087   1.669 -1.2223  0.4818 -0.3100
16245TIP3    H270151   3.912   1.187   1.622 -0.2947 -0.0718  0.5135
16246TIP3   OH270152   3.653   5.632   3.509  0.1710  0.2385 -0.5297
16246TIP3    H170153   3.590   5.700   3.534 -1.5297 -1.5820  0.4315
16246TIP3    H270154   3.639   5.620   3.415 -4.0394 -2.8612  0.1862
16247TIP3   OH270155   6.714   6.069   4.341 -0.1075  0.5577 -0.1120
16247TIP3    H170156   6.780   6.003   4.321  0.6730  1.1005  0.6295
16247TIP3    H270157   6.714   6.075   4.436 -2.6904 -0.9006  0.0809
16248TIP3   OH270158   5.385   5.550  13.957 -0.7189  0.3530  0.2678
16248TIP3    H170159   5.473   5.511  13.955 -0.8038  0.1776 -0.5783
16248TIP3    H270160   5.326   5.474  13.953 -0.9364  0.4186  1.7010
16249TIP3   OH270161   6.532   6.461   4.762  0.3567  0.1425  0.3620
16249TIP3    H170162   6.568   6.548   4.780  1.3390 -0.4688  1.4696
16249TIP3    H270163   6.491   6.433   4.844 -0.3607 -0.2657 -0.1172
16250TIP3   OH270164   1.948   4.128   6.156 -0.3410 -0.0328 -0.4458
16250TIP3    H170165   2.002   4.099   6.082  1.0022  1.3111 -0.0524
16250TIP3    H270166   1.949   4.054   6.217 -1.0937 -0.9796 -1.5627
16251TIP3   OH270167   1.862   5.745  17.148 -0.1569  0.2561  0.0692
16251TIP3    H170168   1.880   5.814  17.212 -0.7233  0.5990 -0.1308
16251TIP3    H270169   1.885   5.664  17.193  1.9802  0.6510 -0.2151
16252TIP3   OH270170   6.351   2.100  15.395 -0.2513 -0.1764  0.0068
16252TIP3    H170171   6.371   2.099  15.489  1.9667 -0.3412 -0.3980
16252TIP3    H270172   6.365   2.191  15.368  1.1532 -0.5034 -0.4878
16253TIP3   OH270173   1.936   1.423   1.890 -0.6505  0.5784 -0.2816
16253TIP3    H170174   1.885   1.451   1.814 -0.3317  1.6840 -0.0966
16253TIP3    H270175   1.959   1.332   1.870 -1.7561  0.4025 -0.8615
16254TIP3   OH270176   2.654   1.035   0.949 -0.0283 -0.2807  0.0422
16254TIP3    H170177   2.608   0.986   0.880 -2.1254  0.4818  0.8052
16254TIP3    H270178   2.710   1.096   0.901  1.2400 -2.0887 -0.9240
16255TIP3   OH270179   5.657   2.047   0.967 -0.2264 -0.1452  0.1422
16255TIP3    H170180   5.620   2.056   1.055 -0.1417  0.7560  0.0958
16255TIP3    H270181   5.673   1.953   0.957 -0.0516 -0.2352  1.1662
16256TIP3   OH270182   0.555   2.518  15.097  0.3728  0.2599  0.3187
16256TIP3    H170183   0.610   2.445  15.069 -0.2141 -0.2888  0.5980
16256TIP3    H270184   0.522   2.492  15.183 -0.0527  0.7441  0.3049
16257TIP3   OH270185   2.466   0.113   3.035  0.0175 -0.0542 -0.0021
16257TIP3    H170186   2.494   0.203   3.022 -1.9260  0.7392  0.9020
16257TIP3    H270187   2.466   0.074   2.948  0.7077  0.8617 -0.4204
16258TIP3   OH270188   4.670   4.577   2.856 -0.4900 -0.5187  0.0743
16258TIP3    H170189   4.764   4.579   2.837 -0.6532 -0.4286 -0.7866
16258TIP3    H270190   4.664   4.584   2.951  0.3873 -0.8545  0.1652
16259TIP3   OH270191   5.662   4.936  11.994  0.5987  0.2202 -0.1473
16259TIP3    H170192   5.578   4.977  12.012 -0.8759 -2.2818 -0.9528
16259TIP3    H270193   5.671   4.868  12.061  1.6860  0.0363 -0.4536
16260TIP3   OH270194   3.548   4.065  16.198 -0.6850 -0.1069  0.3813
16260TIP3    H170195   3.551   4.039  16.106  0.4741  0.3068  0.2786
16260TIP3    H270196   3.483   4.134  16.202  0.1458  0.7532 -0.3890
16261TIP3   OH270197   1.626   3.909   1.800 -0.1523 -0.0236 -0.0793
16261TIP3    H170198   1.610   3.818   1.775  1.2031  0.0677 -1.4286
16261TIP3    H270199   1.670   3.948   1.724 -0.5207  1.7189  0.5369
16262TIP3   OH270200   3.161   1.596   2.086 -0.2623  0.1218 -0.6088
16262TIP3    H170201   3.080   1.636   2.117  0.1563  0.0441  0.6676
16262TIP3    H270202   3.189   1.541   2.159  0.9272  0.1341 -1.0398
16263TIP3   OH270203   0.896   0.542   6.076 -0.8333  0.2740 -0.0195
16263TIP3    H170204   0.855   0.457   6.062  1.1006 -0.7724  0.3359
16263TIP3    H270205   0.881   0.561   6.168  2.1413 -1.7075  1.0248
16264TIP3   OH270206   4.137   1.667  10.887 -0.7560  0.5205  0.2592
16264TIP3    H170207   4.111   1.576  10.873  0.1829  0.4269 -1.1163
16264TIP3    H270208   4.056   1.717  10.883 -1.5634 -0.3847  2.9112
16265TIP3   OH270209   4.893   1.589  13.240  0.5161 -0.2471 -0.2077
16265TIP3    H170210   4.923   1.512  13.288  0.3789 -0.2573 -0.1394
16265TIP3    H270211   4.811   1.614  13.282 -0.6776 -1.4465 -1.6821
16266TIP3   OH270212   2.136   2.750   2.096  0.3599  0.4384 -0.3428
16266TIP3    H170213   2.084   2.808   2.041  0.6663  0.9181 -0.1276
16266TIP3    H270214   2.224   2.754   2.061  0.9023  1.9248  1.0664
16267TIP3   OH270215   6.112   3.323   5.264 -0.7114 -0.4551 -0.3989
16267TIP3    H170216   6.092   3.242   5.217  1.0145 -2.3108  1.8864
16267TIP3    H270217   6.122   3.297   5.355  1.1190  2.1341  0.2452
16268TIP3   OH270218   0.551   0.654   2.595  0.0591 -0.1295 -0.0836
16268TIP3    H170219   0.481   0.592   2.573  0.1512 -0.1093 -0.4387
16268TIP3    H270220   0.630   0.600   2.600  0.5373  0.2366 -2.5080
16269TIP3   OH270221   2.647   6.670   5.557  0.5941 -0.3624 -0.3608
16269TIP3    H170222   2.629   6.590   5.508  1.9371 -0.3085 -0.9978
16269TIP3    H270223   2.734   6.697   5.526 -0.2551  1.9097 -0.9483
16270TIP3   OH270224   1.474   5.117  11.764  0.0801 -0.7826 -0.4957
16270TIP3    H170225   1.560   5.122  11.722  0.1621 -0.8099 -0.3338
16270TIP3    H270226   1.451   5.208  11.782  0.4480 -0.8205  0.2032
16271TIP3   OH270227   4.569   5.773   0.225 -0.0743  0.0191 -0.0441
16271TIP3    H170228   4.629   5.783   0.299  0.6944  1.6220 -0.8243
16271TIP3    H270229   4.502   5.712   0.256  0.6033  0.1098  1.7123
16272TIP3   OH270230   0.487   3.451   6.482 -0.1080 -0.2897  0.5594
16272TIP3    H170231   0.558   3.492   6.431 -0.9697  2.6208  1.4815
16272TIP3    H270232   0.509   3.471   6.573 -2.9525  2.5446  0.8207
16273TIP3   OH270233   2.477   4.000  11.703  0.9360 -0.1131 -0.6772
16273TIP3    H170234   2.445   4.011  11.792  2.0524  0.7064 -0.3502
16273TIP3    H270235   2.522   4.082  11.683  0.8036 -0.3277 -1.9597
16274TIP3   OH270236   4.473   5.016   4.814  0.3400  0.2193 -0.0930
16274TIP3    H170237   4.378   5.029   4.810 -0.1553 -2.4233  0.6233
16274TIP3    H270238   4.510   5.099   4.787 -2.1887  0.7615 -2.3091
16275TIP3   OH270239   4.905   2.296   0.128  0.0171 -0.5637  0.1122
16275TIP3    H170240   4.974   2.354   0.160 -1.4299  1.0501  0.4558
16275TIP3    H270241   4.881   2.331   0.043  0.2132 -1.6588 -0.4120
16276TIP3   OH270242   4.261   1.207  15.945  0.2108 -0.0631  0.0911
16276TIP3    H170243   4.196   1.270  15.976 -1.0814 -1.1021 -0.4398
16276TIP3    H270244   4.288   1.160  16.023  0.9014  0.8565  0.4289
16277TIP3   OH270245   6.199   3.077   1.651 -0.5773 -0.1097 -0.3363
16277TIP3    H170246   6.172   3.142   1.587 -2.8005 -0.0870  0.5552
16277TIP3    H270247   6.200   2.994   1.602  1.7810  0.4407 -1.3452
16278TIP3   OH270248   5.810   3.006   6.664 -0.1011  0.0682  0.4749
16278TIP3    H170249   5.867   3.067   6.617 -0.9439  1.4968  1.2267
16278TIP3    H270250   5.864   2.975   6.737  1.0620 -1.8235 -1.0778
16279TIP3   OH270251   0.137   2.534  16.227 -0.0081 -0.1186  0.0089
16279TIP3    H170252   0.157   2.565  16.316 -0.5025  1.5860 -0.4361
16279TIP3    H270253   0.203   2.576  16.172  1.1987 -2.2836 -0.3202
16280TIP3   OH270254   6.125   2.574  13.192 -0.3777 -0.2783  0.2599
16280TIP3    H170255   6.145   2.653  13.143  0.7820 -0.2637  0.7161
16280TIP3    H270256   6.141   2.502  13.131  0.0998 -0.2128  0.2970
16281TIP3   OH270257   4.876   4.155  12.856  0.7923  0.1912  0.1132
16281TIP3    H170258   4.918   4.209  12.789  1.4659  0.4748  0.7597
16281TIP3    H270259   4.933   4.078  12.863  1.2372  0.5954  1.0235
16282TIP3   OH270260   2.731   1.862  15.783  0.4347 -0.2838  0.0143
16282TIP3    H170261   2.656   1.816  15.745  0.7534 -1.3443  0.6483
16282TIP3    H270262   2.769   1.910  15.710 -1.2459  0.8366 -0.2028
16283TIP3   OH270263   4.766   0.585  16.932  0.1482 -0.3005 -0.3240
16283TIP3    H170264   4.858   0.590  16.960 -0.7429  0.7059  2.8013
16283TIP3    H270265   4.744   0.492  16.937  0.3852 -0.2918  1.2982
16284TIP3   OH270266   5.033   6.142  12.252  0.1480  0.1503 -0.0941
16284TIP3    H170267   5.056   6.178  12.338  1.2052  1.0438 -0.7234
16284TIP3    H270268   4.937   6.147  12.249  0.1826  1.7688  0.3486
16285TIP3   OH270269   1.823   4.526  10.924 -0.2199 -0.3304 -0.0090
16285TIP3    H170270   1.851   4.434  10.932  1.7777  0.2042 -0.2879
16285TIP3    H270271   1.817   4.541  10.830 -0.4844 -0.1626  0.0356
16286TIP3   OH270272   2.066   3.539   4.512 -0.0754  0.4610  0.1508
16286TIP3    H170273   1.973   3.559   4.516  0.1095  2.0267 -1.7338
16286TIP3    H270274   2.102   3.577   4.592 -0.6878  2.4413 -0.4413
16287TIP3   OH270275   1.654   1.091  17.225  0.3763 -0.6370 -0.3615
16287TIP3    H170276   1.715   1.050  17.286 -0.6873 -1.4023  0.2336
16287TIP3    H270277   1.695   1.173  17.201  0.4625  0.1142  2.0723
16288TIP3   OH270278   0.127   4.175  17.182 -0.0221  0.3003 -0.3915
16288TIP3    H170279   0.169   4.118  17.118 -0.5756 -1.3164  0.6287
16288TIP3    H270280   0.052   4.212  17.135 -1.2867 -2.0121 -0.3241
16289TIP3   OH270281   0.818   5.250   0.346  0.3371 -0.8678  0.8436
16289TIP3    H170282   0.845   5.208   0.264 -2.5860 -1.3597  0.0320
16289TIP3    H270283   0.744   5.305   0.321 -0.2729 -0.6153  3.0722
16290TIP3   OH270284   5.336   3.912   4.110 -0.4682 -0.9124 -0.1432
16290TIP3    H170285   5.245   3.922   4.083  0.4211 -0.4462 -3.3469
16290TIP3    H270286   5.360   3.997   4.147 -1.0184 -0.6810 -0.3208
16291TIP3   OH270287   5.858   1.826   3.301 -0.9165  0.0260  0.3480
16291TIP3    H170288   5.942   1.797   3.264 -0.7115 -1.0221  1.5432
16291TIP3    H270289   5.839   1.762   3.370 -1.0407  2.0986  2.3612
16292TIP3   OH270290   2.752   4.150  14.422  0.2259  0.2593  0.1636
16292TIP3    H170291   2.817   4.149  14.493  0.5227 -1.1533 -0.0886
16292TIP3    H270292   2.712   4.063  14.425 -1.0326  0.7983 -0.2691
16293TIP3   OH270293   6.600   0.952  16.237  0.4777  0.2889  0.2229
16293TIP3    H170294   6.577   1.006  16.313 -1.4573  0.8834 -0.7091
16293TIP3    H270295   6.693   0.969  16.223  1.3236 -1.0215  3.3179
16294TIP3   OH270296   2.561   3.476  13.458  0.4295  0.3002  0.8494
16294TIP3    H170297   2.481   3.515  13.495 -0.0229 -0.1075  0.3224
16294TIP3    H270298   2.584   3.406  13.519 -0.2163 -0.2595  0.4681
16295TIP3   OH270299   1.500   1.833   2.596  0.0167  0.3565 -0.1615
16295TIP3    H170300   1.555   1.830   2.517 -1.8700 -0.6393 -1.5189
16295TIP3    H270301   1.428   1.891   2.573  0.3379  1.5019  1.5347
16296TIP3   OH270302   1.752   5.696   3.651 -0.1590  0.0123 -1.0963
16296TIP3    H170303   1.732   5.638   3.577  0.1621 -2.3649  0.5879
16296TIP3    H270304   1.830   5.658   3.691 -0.0714  1.5010  0.2481
16297TIP3   OH270305   6.603   3.726  13.818  0.3989 -0.2258 -0.0382
16297TIP3    H170306   6.695   3.753  13.819  0.2550  0.3409 -0.9485
16297TIP3    H270307   6.579   3.727  13.725 -0.7084  0.2499  0.2406
16298TIP3   OH270308   3.845   5.599  14.924 -0.2735  0.3371  0.9651
16298TIP3    H170309   3.872   5.520  14.877  0.4565  2.0604 -1.7305
16298TIP3    H270310   3.749   5.596  14.923 -0.2647 -0.8703  1.6310
16299TIP3   OH270311   4.895   6.538   0.703  0.3912 -0.2069 -0.2164
16299TIP3    H170312   4.939   6.516   0.785 -0.6350 -0.5154  0.2566
16299TIP3    H270313   4.843   6.616   0.722  2.0960  1.2768 -1.2566
16300TIP3   OH270314   1.790   3.204  15.929 -0.2086 -0.1239  0.1196
16300TIP3    H170315   1.695   3.216  15.938 -0.2894 -0.6008 -0.0719
16300TIP3    H270316   1.828   3.276  15.981 -0.6665  0.6863 -0.6403
16301TIP3   OH270317   4.106   5.111   6.542  0.2364 -0.1057 -0.1984
16301TIP3    H170318   4.189   5.084   6.581 -0.5627 -0.0103  1.6912
16301TIP3    H270319   4.043   5.105   6.614 -1.6137 -1.1202 -1.7965
16302TIP3   OH270320   5.267   1.607   4.803 -0.3267 -0.1117 -0.0717
16302TIP3    H170321   5.173   1.591   4.804 -0.4600  0.6124  0.7750
16302TIP3    H270322   5.297   1.579   4.890 -0.0406  1.0967  0.2429
16303TIP3   OH270323   5.315   4.110  16.619 -0.2963  0.1462  0.5115
16303TIP3    H170324   5.255   4.053  16.571  0.4561  1.0128 -1.5541
16303TIP3    H270325   5.268   4.130  16.701 -2.0444 -0.6151 -0.2512
16304TIP3   OH270326   1.049   0.308   0.171  0.0914 -0.0499 -0.3027
16304TIP3    H170327   1.107   0.353   0.109  0.6607  1.6271  1.3686
16304TIP3    H270328   0.975   0.368   0.182 -0.0401 -0.3595  0.5690
16305TIP3   OH270329   3.443   0.483  11.190  0.0478  0.1662 -0.2296
16305TIP3    H170330   3.528   0.466  11.232 -0.3948 -1.3325  0.1297
16305TIP3    H270331   3.404   0.397  11.180 -1.1875  0.7841 -0.9573
16306TIP3   OH270332   4.810   1.723  15.435  0.2629 -0.3942  0.5216
16306TIP3    H170333   4.875   1.658  15.462  0.0153 -0.2583  1.4723
16306TIP3    H270334   4.840   1.804  15.475 -0.2461 -0.2360  0.5814
16307TIP3   OH270335   1.369   5.362  16.012 -0.2655  0.3403  0.4056
16307TIP3    H170336   1.360   5.311  15.931 -0.7972 -0.5648  1.0253
16307TIP3    H270337   1.449   5.413  15.999 -0.1763 -0.0230 -0.5649
16308TIP3   OH270338   3.752   2.298  14.972 -0.3870 -0.2023 -0.1537
16308TIP3    H170339   3.825   2.298  14.909 -0.9478 -0.0452 -0.8224
16308TIP3    H270340   3.703   2.377  14.950 -1.4052 -0.9047 -0.4901
16309TIP3   OH270341   6.104   6.242   0.198  0.2165 -0.1921 -0.3869
16309TIP3    H170342   6.177   6.303   0.180 -0.0578  0.2383 -0.0704
16309TIP3    H270343   6.031   6.299   0.221 -0.0429 -0.6496 -0.0662
16310TIP3   OH270344   2.388   5.900   3.293  0.1130  0.2364  0.4619
16310TIP3    H170345   2.359   5.932   3.207 -0.4469  3.2018  1.6162
16310TIP3    H270346   2.307   5.881   3.340  0.4031 -0.9872  0.4893
16311TIP3   OH270347   3.337   5.782  12.315  0.1376  0.5304 -0.0943
16311TIP3    H170348   3.265   5.812  12.371 -0.8837 -1.0721 -0.5051
16311TIP3    H270349   3.406   5.758  12.376 -0.3219  0.4520  0.4029
16312TIP3   OH270350   5.486   3.172   2.325 -0.3446 -0.1926  0.4141
16312TIP3    H170351   5.568   3.168   2.374 -1.0152 -0.9640  1.5103
16312TIP3    H270352   5.513   3.169   2.233  0.9445  1.5600  0.6929
16313TIP3   OH270353   0.632   6.516   3.269  0.1789  0.5187  0.0677
16313TIP3    H170354   0.712   6.466   3.283  0.6725  1.2829  0.0229
16313TIP3    H270355   0.655   6.580   3.201 -0.4934  0.6858 -0.0119
16314TIP3   OH270356   4.498   3.892  16.778 -0.6432 -0.0804 -0.4770
16314TIP3    H170357   4.579   3.844  16.796  0.7358  2.2159 -0.1194
16314TIP3    H270358   4.428   3.834  16.807  0.8018 -2.4596 -1.4823
16315TIP3   OH270359   2.625   0.329  11.128  0.1943  0.3970 -0.6243
16315TIP3    H170360   2.709   0.323  11.082  0.2208 -0.8678 -0.4457
16315TIP3    H270361   2.640   0.281  11.210 -0.6605  0.2691 -0.5395
16316TIP3   OH270362   6.210   5.685  15.639  0.2878  0.2264  0.3340
16316TIP3    H170363   6.232   5.652  15.726 -1.5499  2.4065  1.7107
16316TIP3    H270364   6.216   5.780  15.647  0.3091  0.4770 -2.0100
16317TIP3   OH270365   4.481   1.395   3.928  0.2521 -0.4573 -0.0041
16317TIP3    H170366   4.421   1.404   3.854 -0.3457  0.1005  0.5276
16317TIP3    H270367   4.479   1.481   3.971  0.4329 -0.8322  0.7738
16318TIP3   OH270368   3.555   5.250   5.817  0.0734 -0.9284 -0.5637
16318TIP3    H170369   3.508   5.235   5.899 -1.1104  1.9892 -0.5705
16318TIP3    H270370   3.584   5.341   5.823 -2.3576  0.3339 -4.3535
16319TIP3   OH270371   3.772   2.608  14.657  0.1059 -0.0380  0.0646
16319TIP3    H170372   3.742   2.649  14.576  1.4009  0.9121  0.0281
16319TIP3    H270373   3.732   2.660  14.727  0.9853  0.7612  0.0117
16320TIP3   OH270374   4.413   5.311  12.486 -0.1645 -0.2327 -0.2908
16320TIP3    H170375   4.450   5.361  12.414  0.3339 -0.1399  0.0292
16320TIP3    H270376   4.320   5.335  12.487  0.0474  0.6087 -0.2037
16321TIP3   OH270377   0.188   1.877  13.634 -0.2012 -0.8098 -0.5991
16321TIP3    H170378   0.100   1.844  13.616 -0.8584 -0.7723  2.0828
16321TIP3    H270379   0.184   1.969  13.610 -1.4161 -0.4421  0.8160
16322TIP3   OH270380   3.810   6.289   3.679  0.3398 -0.3841 -0.9331
16322TIP3    H170381   3.871   6.286   3.606  1.5159 -0.1002  0.0204
16322TIP3    H270382   3.766   6.204   3.677  0.8333 -0.6280 -1.5640
16323TIP3   OH270383   4.760   4.506  13.075  0.5009 -0.0969 -0.1971
16323TIP3    H170384   4.768   4.600  13.059 -2.7843  0.3209 -0.0660
16323TIP3    H270385   4.744   4.469  12.988 -1.0690 -0.0920  0.0666
16324TIP3   OH270386   1.973   3.506   6.140 -0.3350  0.3870 -0.0454
16324TIP3    H170387   1.982   3.510   6.236 -0.7308  0.0163  0.0096
16324TIP3    H270388   2.063   3.504   6.108 -0.1353  2.5522  0.2114
16325TIP3   OH270389   4.399   5.937  15.902  0.4340 -0.3104  0.3574
16325TIP3    H170390   4.325   5.985  15.940  0.3534  0.2983 -0.5389
16325TIP3    H270391   4.376   5.845  15.911 -1.1230 -0.1142 -1.2374
16326TIP3   OH270392   6.692   0.646  15.731 -0.1831  0.0231 -0.3081
16326TIP3    H170393   6.760   0.695  15.778 -1.6924  1.6274  0.3099
16326TIP3    H270394   6.696   0.680  15.642  0.5347 -0.6889 -0.5584
16327TIP3   OH270395   0.465   0.725   4.180  0.1866  0.1851 -0.1052
16327TIP3    H170396   0.432   0.735   4.270  2.7489  0.9444  0.8500
16327TIP3    H270397   0.487   0.632   4.173 -0.5557  0.0079 -0.1739
16328TIP3   OH270398   2.147   4.176   3.291 -1.2686  0.1880 -0.0578
16328TIP3    H170399   2.094   4.121   3.349 -0.1314 -2.4538 -1.3756
16328TIP3    H270400   2.233   4.179   3.334 -0.6374 -1.1594 -1.1598
16329TIP3   OH270401   3.878   0.925   5.914  0.2229 -0.6523 -0.1775
16329TIP3    H170402   3.846   0.973   5.838  1.5017 -0.0053 -0.3310
16329TIP3    H270403   3.909   0.842   5.879 -0.4088 -0.8947 -0.1646
16330TIP3   OH270404   0.004   5.721   2.470 -0.2801 -0.1674  0.1765
16330TIP3    H170405  -0.044   5.641   2.491 -0.9940  0.3251  0.4688
16330TIP3    H270406   0.069   5.694   2.406 -1.8691 -0.6085 -1.3235
16331TIP3   OH270407   4.190   3.223  14.973  0.1861  0.0582  0.2742
16331TIP3    H170408   4.176   3.317  14.980 -2.0132 -0.2592  1.0800
16331TIP3    H270409   4.228   3.199  15.058  1.3436  0.2818 -0.1667
16332TIP3   OH270410   5.998   0.009   5.021  0.4147  0.2018 -0.4174
16332TIP3    H170411   6.032   0.094   4.996 -0.3981  1.4059  2.1460
16332TIP3    H270412   5.947  -0.020   4.945 -1.5371  3.3072 -0.4804
16333TIP3   OH270413   2.695   5.206   2.948 -0.0800  0.4028 -0.1677
16333TIP3    H170414   2.774   5.203   2.894  0.9347  2.1487  1.1001
16333TIP3    H270415   2.631   5.254   2.896  0.3582  0.6793 -0.4540
16334TIP3   OH270416   4.671   3.133  14.549  0.0403  0.1766 -0.4370
16334TIP3    H170417   4.712   3.215  14.572  1.4819 -0.1437 -1.7097
16334TIP3    H270418   4.666   3.084  14.631  2.1798  0.2521 -0.2238
16335TIP3   OH270419   1.023   5.542   5.275  0.6355 -0.1000  0.1863
16335TIP3    H170420   1.052   5.470   5.331 -0.2397 -0.0977  0.6661
16335TIP3    H270421   0.985   5.499   5.198 -1.8122 -0.2894  1.3968
16336TIP3   OH270422   5.025   6.457  16.465  0.1709  0.4859 -0.2617
16336TIP3    H170423   5.070   6.540  16.482  1.5596 -0.0957 -0.9487
16336TIP3    H270424   5.086   6.390  16.495 -0.9642 -0.3074  0.3462
16337TIP3   OH270425   1.494   0.952  11.208  0.3346  0.8443 -0.3925
16337TIP3    H170426   1.450   0.902  11.277  2.2985 -1.3482 -0.5874
16337TIP3    H270427   1.517   1.034  11.250  1.1706 -0.2951  1.5380
16338TIP3   OH270428   5.565   6.556   2.995 -0.4425  0.1085 -0.1306
16338TIP3    H170429   5.636   6.602   2.950 -0.2936 -1.4368 -1.5530
16338TIP3    H270430   5.486   6.583   2.947 -0.7243  1.0198  0.8030
16339TIP3   OH270431   6.668   3.467  13.289 -0.3986 -0.1533  1.0211
16339TIP3    H170432   6.720   3.471  13.209  0.1863 -1.3393  1.3299
16339TIP3    H270433   6.634   3.556  13.300 -0.5968  0.0044 -0.6089
16340TIP3   OH270434   5.348   3.220   5.639 -0.0963 -0.3184  0.5444
16340TIP3    H170435   5.405   3.218   5.563 -0.7763  0.4430  0.0059
16340TIP3    H270436   5.264   3.189   5.607  0.0304 -1.6196  1.3761
16341TIP3   OH270437   0.024   0.927  14.051 -0.0322 -0.2399 -0.4746
16341TIP3    H170438  -0.021   0.991  14.106 -0.8969  0.5333 -2.0092
16341TIP3    H270439   0.009   0.843  14.094 -1.2383  0.2589  0.1144
16342TIP3   OH270440   3.375   2.975   0.887 -0.6160 -0.0296  0.1086
16342TIP3    H170441   3.396   2.954   0.978  2.6803 -0.6583 -0.6814
16342TIP3    H270442   3.421   3.057   0.870  0.7566 -1.1060 -1.6025
16343TIP3   OH270443   1.081   1.677   2.156 -0.3968  0.4112  0.2426
16343TIP3    H170444   1.008   1.668   2.217  0.4453  1.2223  1.4100
16343TIP3    H270445   1.148   1.723   2.206  0.6600  0.2891 -1.0248
16344TIP3   OH270446   1.744   2.473  11.292 -0.5937 -0.5425  0.8183
16344TIP3    H170447   1.681   2.542  11.270 -0.2339 -0.0620  1.2605
16344TIP3    H270448   1.701   2.392  11.265 -1.5626 -0.2556  1.4343
16345TIP3   OH270449   1.561   3.684  13.028  0.3700  0.3142  0.5616
16345TIP3    H170450   1.631   3.733  13.070  0.4397  0.7578 -0.0604
16345TIP3    H270451   1.573   3.594  13.058  1.2766  0.3634  0.3546
16346TIP3   OH270452   3.157   1.952  15.725  0.1327  0.0959 -0.7964
16346TIP3    H170453   3.197   2.030  15.687 -0.4230  0.5004 -0.5570
16346TIP3    H270454   3.232   1.894  15.744  0.4234 -0.0744 -2.3690
16347TIP3   OH270455   3.530   4.937   1.281 -0.1158  0.3365  0.7426
16347TIP3    H170456   3.592   4.892   1.338  0.4343  0.2238  0.0735
16347TIP3    H270457   3.444   4.906   1.308  0.2247 -0.7431  0.6186
16348TIP3   OH270458   2.544   2.690   3.436 -1.1361  0.0067  0.0776
16348TIP3    H170459   2.511   2.603   3.416 -0.2659 -0.1084 -0.9695
16348TIP3    H270460   2.594   2.715   3.358  0.0577  0.7270  1.0386
16349TIP3   OH270461   1.292   1.323  15.335  0.1513  0.0497  0.2164
16349TIP3    H170462   1.359   1.270  15.378 -0.1936 -0.5933 -0.0218
16349TIP3    H270463   1.212   1.270  15.342 -0.2417  0.6211  0.1320
16350TIP3   OH270464   0.691   5.387  13.753  0.3064 -0.3998  0.2818
16350TIP3    H170465   0.611   5.345  13.723  1.9105 -3.8748  0.4153
16350TIP3    H270466   0.733   5.420  13.674  0.3339 -1.6351 -0.2330
16351TIP3   OH270467   6.070   6.239  11.685  0.0610  0.1295  0.6464
16351TIP3    H170468   6.098   6.149  11.700 -2.9907 -0.8794  0.9457
16351TIP3    H270469   6.073   6.280  11.772  1.2709  0.3199  0.5392
16352TIP3   OH270470   2.115   2.949   1.902 -0.5443  0.7077 -0.1003
16352TIP3    H170471   2.149   3.020   1.848 -1.1861  0.3131 -1.0631
16352TIP3    H270472   2.020   2.960   1.898 -0.7273 -0.8564 -1.2442
16353TIP3   OH270473   3.834   1.192  14.462  0.3357  0.5233  0.2293
16353TIP3    H170474   3.771   1.125  14.435  0.7349 -0.2046  1.0747
16353TIP3    H270475   3.919   1.153  14.446  0.5976  1.6134 -1.1637
16354TIP3   OH270476   3.671   3.632  12.184 -0.8934 -0.2830 -0.1207
16354TIP3    H170477   3.681   3.644  12.089 -2.4692 -0.2445 -0.3198
16354TIP3    H270478   3.607   3.698  12.209  1.1246  1.1692  1.3990
16355TIP3   OH270479   1.973   4.408  14.853  0.5749 -0.1495  0.3183
16355TIP3    H170480   1.947   4.385  14.764 -1.0499  0.6057  0.5599
16355TIP3    H270481   1.919   4.484  14.875 -0.7057 -1.6109  2.7304
16356TIP3   OH270482   3.952   2.093  12.604  0.1610  0.1569  0.2483
16356TIP3    H170483   3.903   2.045  12.538  0.0977 -1.0716  1.1659
16356TIP3    H270484   4.040   2.101  12.567 -0.3854  1.3324 -0.8801
16357TIP3   OH270485   2.268   2.451   3.641  0.4895 -0.2810  0.3198
16357TIP3    H170486   2.354   2.430   3.604  0.6999 -1.0071  1.2001
16357TIP3    H270487   2.286   2.471   3.733 -0.2083  0.1976  0.3573
16358TIP3   OH270488   3.622   0.597  16.290 -0.3933  0.0684  0.3304
16358TIP3    H170489   3.680   0.546  16.346 -0.5260 -0.9597 -0.4423
16358TIP3    H270490   3.680   0.646  16.233 -0.2229 -2.0345 -1.4081
16359TIP3   OH270491   1.461   5.655  16.595  0.1474 -0.7707 -0.0347
16359TIP3    H170492   1.536   5.714  16.599  0.3857 -1.1227  1.8392
16359TIP3    H270493   1.401   5.689  16.662 -0.1230 -2.0795  0.4154
16360TIP3   OH270494   0.029   0.251  15.340  0.3245  0.4258 -0.0812
16360TIP3    H170495  -0.066   0.261  15.337  0.2174 -0.6367 -2.0215
16360TIP3    H270496   0.052   0.268  15.431 -1.9788 -1.1988  0.9167
16361TIP3   OH270497   5.082   5.847  13.272 -0.6289  0.4081 -0.7224
16361TIP3    H170498   5.087   5.899  13.352  0.4263  0.9766 -1.1501
16361TIP3    H270499   5.132   5.896  13.208 -0.8849 -0.3920 -1.5546
16362TIP3   OH270500   1.140   2.148  14.914  0.5797 -0.4016 -0.4970
16362TIP3    H170501   1.129   2.105  14.999 -0.3064  0.3326 -0.2192
16362TIP3    H270502   1.113   2.081  14.851 -1.3633 -0.1228 -0.0421
16363TIP3   OH270503   2.641   5.427  14.917 -0.0032 -0.1849  0.5663
16363TIP3    H170504   2.570   5.460  14.972  0.4977  0.8197  0.6367
16363TIP3    H270505   2.687   5.363  14.972 -1.0130 -1.0693  0.4161
16364TIP3   OH270506   1.096   1.334  16.292 -0.1669 -0.2362 -0.2519
16364TIP3    H170507   1.046   1.342  16.211  0.1942 -0.0044 -0.4539
16364TIP3    H270508   1.062   1.404  16.348 -0.8373 -0.7752  0.0254
16365TIP3   OH270509   3.567   0.506   4.884  0.1933  0.2096  1.1618
16365TIP3    H170510   3.555   0.593   4.924 -1.9079  0.1568  0.7637
16365TIP3    H270511   3.655   0.509   4.846  0.1745  2.1768  1.1594
16366TIP3   OH270512   0.608   4.598  14.836  0.1677 -0.0784 -0.0658
16366TIP3    H170513   0.597   4.610  14.931 -0.3622 -0.8557 -0.0208
16366TIP3    H270514   0.592   4.505  14.822  0.9097 -0.0951 -0.8365
16367TIP3   OH270515   0.932   0.034  13.926 -0.2359 -0.1119  0.1966
16367TIP3    H170516   1.009   0.009  13.876 -0.3729 -0.9014  0.3549
16367TIP3    H270517   0.963   0.097  13.991 -0.0947  1.0619 -0.9885
16368TIP3   OH270518   3.247   0.335  16.088  0.5461 -0.5340  0.3481
16368TIP3    H170519   3.302   0.289  16.152 -0.1842  1.0275  2.1718
16368TIP3    H270520   3.310   0.372  16.026  1.5042  0.1118  1.6488
16369TIP3   OH270521   1.821   6.027  12.971 -0.4270 -0.0650 -0.1943
16369TIP3    H170522   1.913   6.047  12.955 -0.3138 -0.0407  0.4484
16369TIP3    H270523   1.815   5.932  12.968 -0.8302 -0.0358 -2.5353
16370TIP3   OH270524   2.122   2.969  11.813 -0.5605  0.0417  0.3544
16370TIP3    H170525   2.137   3.004  11.726 -0.6149 -1.6534 -0.3711
16370TIP3    H270526   2.028   2.978  11.827 -0.8305 -1.2818 -0.5052
16371TIP3   OH270527   4.765   4.984  16.530  0.8033 -0.1574  0.3750
16371TIP3    H170528   4.744   4.948  16.443  0.8590 -0.1903  0.3746
16371TIP3    H270529   4.753   4.909  16.589 -1.1898  0.3407  0.6783
16372TIP3   OH270530   4.590   4.599   6.466 -0.0368  0.3939  0.4181
16372TIP3    H170531   4.667   4.604   6.408 -0.2984 -0.1641  0.0082
16372TIP3    H270532   4.558   4.689   6.471  0.4351  0.5724  0.3001
16373TIP3   OH270533   6.103   6.635  11.056 -0.4460  0.2347 -0.0072
16373TIP3    H170534   6.018   6.620  11.098 -0.3707  0.8912  0.3972
16373TIP3    H270535   6.163   6.577  11.102  0.0702  2.4282  2.3149
16374TIP3   OH270536   3.805   2.184  12.274  0.2437  0.3623 -0.1311
16374TIP3    H170537   3.730   2.160  12.328 -0.5238  1.3747 -0.7238
16374TIP3    H270538   3.836   2.267  12.311 -0.6887  1.4047 -1.5982
16375TIP3   OH270539   5.972   2.688  12.782  0.2053 -0.7088  0.4029
16375TIP3    H170540   5.916   2.634  12.726 -0.9420  0.9589 -0.1588
16375TIP3    H270541   5.985   2.769  12.731  1.1739 -0.1153  1.5346
16376TIP3   OH270542   4.781   6.341   3.662  0.0245 -0.3641 -0.1596
16376TIP3    H170543   4.735   6.350   3.746 -0.7328 -0.2526 -0.5712
16376TIP3    H270544   4.861   6.293   3.683 -0.2967 -0.5981  0.5774
16377TIP3   OH270545   0.766   2.769   3.174 -0.1246  0.5105 -0.2996
16377TIP3    H170546   0.841   2.722   3.210 -0.9477  0.1715  1.0684
16377TIP3    H270547   0.780   2.860   3.201 -0.0131  0.5161 -0.3770
16378TIP3   OH270548   0.136   4.094  11.536 -0.2258 -0.1430 -0.6092
16378TIP3    H170549   0.231   4.106  11.547 -0.0554 -0.2755 -1.7761
16378TIP3    H270550   0.100   4.181  11.552  0.1844  0.1031 -0.9878
16379TIP3   OH270551   2.307   5.608   0.168 -0.1913 -0.4897 -0.1181
16379TIP3    H170552   2.352   5.693   0.166 -3.3067  1.4027  1.8211
16379TIP3    H270553   2.350   5.560   0.238  0.0955  0.4729  0.3907
16380TIP3   OH270554   4.293   4.109   2.553  0.0167 -0.2167  0.1267
16380TIP3    H170555   4.347   4.054   2.610 -0.4648 -1.3443 -0.4803
16380TIP3    H270556   4.292   4.194   2.596  1.1438 -0.5544  0.8594
16381TIP3   OH270557   0.190   6.331  12.584 -0.3040 -0.6918 -0.2319
16381TIP3    H170558   0.121   6.319  12.519  0.1865 -0.3264 -0.8299
16381TIP3    H270559   0.236   6.411  12.556 -0.8421  0.1845  1.2406
16382TIP3   OH270560   0.265   4.430  13.756  0.5258 -0.1150  0.1131
16382TIP3    H170561   0.187   4.434  13.810  0.5842 -1.3237  0.3090
16382TIP3    H270562   0.234   4.442  13.666 -0.0703 -1.8483  0.0584
16383TIP3   OH270563   3.508   3.086  12.051 -0.2380 -0.6071  0.1309
16383TIP3    H170564   3.436   3.134  12.011 -0.7053 -1.7584 -0.4784
16383TIP3    H270565   3.565   3.063  11.977 -0.3011 -1.4136  0.3179
16384TIP3   OH270566   6.623   5.399   5.014  0.3272 -0.2988  0.6934
16384TIP3    H170567   6.612   5.342   5.090 -0.0365  0.1398  0.9760
16384TIP3    H270568   6.671   5.475   5.048  2.7331 -1.3695 -0.1359
16385TIP3   OH270569   1.580   3.443   5.683 -0.0168  0.0701  0.1131
16385TIP3    H170570   1.507   3.429   5.743 -0.3416  0.0501 -0.2842
16385TIP3    H270571   1.549   3.408   5.599  0.7842 -0.7686  0.1549
16386TIP3   OH270572   6.306   5.034   0.324  0.4746 -0.2545  0.2135
16386TIP3    H170573   6.341   5.061   0.409  1.1967  1.1698 -0.4966
16386TIP3    H270574   6.316   5.112   0.268 -0.0442 -1.1309 -1.1560
16387TIP3   OH270575   1.089   5.352   0.481 -0.1859  0.0310 -0.2435
16387TIP3    H170576   1.104   5.264   0.515 -0.3516 -0.5819 -1.6510
16387TIP3    H270577   1.021   5.340   0.414  1.4663  0.7628 -2.1777
16388TIP3   OH270578   3.815   1.318  16.327  0.2432 -0.5277 -0.6099
16388TIP3    H170579   3.846   1.299  16.416 -1.6891 -0.6732  0.0738
16388TIP3    H270580   3.816   1.233  16.283 -1.8219 -1.0791  0.3034
16389TIP3   OH270581   3.298   2.862   6.264  0.1359  0.0041  0.1877
16389TIP3    H170582   3.260   2.857   6.352 -0.7778  0.6586 -0.1592
16389TIP3    H270583   3.392   2.851   6.279 -0.0660 -0.5403  1.1783
16390TIP3   OH270584   2.199   4.766  10.623 -0.7071 -0.0349 -0.0211
16390TIP3    H170585   2.172   4.858  10.620  0.0239  0.2848  1.9223
16390TIP3    H270586   2.178   4.737  10.712  1.4986 -0.9326  0.2966
16391TIP3   OH270587   4.613   1.778  14.285  0.2467 -0.1952  0.1248
16391TIP3    H170588   4.686   1.716  14.285  1.1126  0.7899  0.3806
16391TIP3    H270589   4.652   1.861  14.258 -0.2611  0.9058  2.5159
16392TIP3   OH270590   4.180   2.816  14.937  0.4576  0.4765  0.2278
16392TIP3    H170591   4.267   2.813  14.895  0.2419  0.4202 -0.2253
16392TIP3    H270592   4.198   2.845  15.026  1.0362 -0.4011  0.4086
16393TIP3   OH270593   3.321   6.483  15.599  0.2175 -0.0059 -0.1440
16393TIP3    H170594   3.225   6.483  15.606  0.0412  0.1784 -2.1633
16393TIP3    H270595   3.351   6.458  15.687 -1.6122  2.2852  1.2587
16394TIP3   OH270596   2.321   5.718  16.578 -0.2536  0.3946  0.0028
16394TIP3    H170597   2.268   5.796  16.593 -0.9569 -0.4369  2.2942
16394TIP3    H270598   2.409   5.752  16.561 -0.6405  1.6998  0.4642
16395TIP3   OH270599   4.011   5.991   3.047 -0.5595 -0.3641  0.1602
16395TIP3    H170600   3.959   6.058   3.092 -1.2467 -0.6887 -0.1455
16395TIP3    H270601   3.994   6.005   2.954  0.9663  0.3910 -0.0398
16396TIP3   OH270602   2.290   1.292   4.175  0.2075 -0.1700 -0.7859
16396TIP3    H170603   2.355   1.363   4.180  0.0227 -0.0763  0.8021
16396TIP3    H270604   2.207   1.334   4.200  0.3611 -1.2082  1.7575
16397TIP3   OH270605   3.510   4.582  15.777 -0.3152  0.2979  0.6252
16397TIP3    H170606   3.452   4.534  15.837  0.1279 -0.0937  0.7416
16397TIP3    H270607   3.463   4.664  15.759 -2.3525 -1.2320 -1.6695
16398TIP3   OH270608   3.153   4.978  11.861  0.1418 -0.8774 -0.7521
16398TIP3    H170609   3.186   4.889  11.875 -0.9060 -0.9200  2.4079
16398TIP3    H270610   3.058   4.968  11.855  0.0374 -0.0123 -0.7463
16399TIP3   OH270611   3.733   0.887   1.331 -0.4687 -0.2642  0.4050
16399TIP3    H170612   3.784   0.869   1.410 -1.5735  2.1154  1.7564
16399TIP3    H270613   3.739   0.982   1.319 -2.4183 -0.2363 -0.9139
16400TIP3   OH270614   1.667   5.064  10.764 -0.0968 -0.2248  0.2764
16400TIP3    H170615   1.603   5.013  10.714  0.4939  0.4938 -1.2841
16400TIP3    H270616   1.654   5.154  10.735  1.4171 -0.0221  0.1329
16401TIP3   OH270617   1.766   1.020  13.671  0.4724  0.3931  0.4854
16401TIP3    H170618   1.799   1.084  13.607  0.1924 -0.8979 -1.0173
16401TIP3    H270619   1.835   0.953  13.675  0.2869  0.2349  1.2306
16402TIP3   OH270620   6.713   1.365  17.096  0.0454  0.4547  0.2502
16402TIP3    H170621   6.748   1.285  17.056  2.7037  0.5999  2.0313
16402TIP3    H270622   6.758   1.436  17.051  0.3639  0.7698  1.0514
16403TIP3   OH270623   1.885   5.483  16.642  0.5115  0.3970 -0.5498
16403TIP3    H170624   1.835   5.482  16.723  1.2614 -1.4876 -0.0643
16403TIP3    H270625   1.965   5.529  16.663  1.3958 -1.4106  0.2848
16404TIP3   OH270626   1.384   1.714   3.180 -0.2088 -0.0597 -0.0142
16404TIP3    H170627   1.318   1.672   3.236  1.0381 -2.0614  0.0485
16404TIP3    H270628   1.335   1.780   3.132 -2.0127 -0.6297  0.9337
16405TIP3   OH270629   4.564   5.815  13.927  0.1619  0.2072 -0.0606
16405TIP3    H170630   4.487   5.859  13.963  0.7215 -0.8596  2.7512
16405TIP3    H270631   4.636   5.875  13.944  0.1886  0.5086 -1.2052
16406TIP3   OH270632   3.419   5.675   5.786 -0.5082 -0.4863  0.5701
16406TIP3    H170633   3.474   5.686   5.864  0.2787  0.7608 -0.1294
16406TIP3    H270634   3.374   5.758   5.776 -0.0297 -0.3566 -0.7218
16407TIP3   OH270635   2.890   0.831   5.867  0.1624 -0.4530 -0.4614
16407TIP3    H170636   2.823   0.763   5.857  1.6779 -2.4004  1.7565
16407TIP3    H270637   2.859   0.885   5.939  0.9417 -1.4398  0.6620
16408TIP3   OH270638   4.231   0.723   1.463  0.0358  0.3405  0.0076
16408TIP3    H170639   4.320   0.722   1.427  0.8655 -0.4891  1.9561
16408TIP3    H270640   4.188   0.796   1.419  1.6870  0.7899 -0.9392
16409TIP3   OH270641   5.144   5.045   5.388 -0.6027  0.3711  0.4029
16409TIP3    H170642   5.239   5.053   5.395 -0.4428  0.0341 -1.0085
16409TIP3    H270643   5.116   5.003   5.469  0.8645 -2.6233 -0.5118
16410TIP3   OH270644   6.738   2.426  13.056 -0.1158 -0.7686 -1.1537
16410TIP3    H170645   6.772   2.507  13.095  1.2192 -2.0064  0.4081
16410TIP3    H270646   6.643   2.440  13.052  0.0308  0.6710 -0.4212
16411TIP3   OH270647   4.769   0.130   2.362 -0.7544  0.2331  0.5906
16411TIP3    H170648   4.759   0.192   2.290 -2.7380  0.4676  1.0037
16411TIP3    H270649   4.751   0.182   2.441  0.2533 -0.2773  1.1816
16412TIP3   OH270650   0.021   4.473   1.718 -0.4558  0.2596 -0.8807
16412TIP3    H170651  -0.050   4.537   1.726 -0.2205  0.2807  1.7702
16412TIP3    H270652   0.064   4.496   1.636 -1.5636  2.2686 -0.9735
16413TIP3   OH270653   4.532   3.143   0.572  0.2230  0.3004 -0.2911
16413TIP3    H170654   4.589   3.097   0.634  1.3018  2.0491  0.0764
16413TIP3    H270655   4.445   3.139   0.612  0.7745  0.8052  1.0453
16414TIP3   OH270656   3.896   2.807   3.645 -0.0642 -0.2708  0.3229
16414TIP3    H170657   3.887   2.805   3.740  0.7644 -0.7684  0.3953
16414TIP3    H270658   3.986   2.835   3.630 -0.2151 -0.1221 -0.3194
16415TIP3   OH270659   6.377   6.253   4.558  0.1502 -0.2880  0.3131
16415TIP3    H170660   6.417   6.244   4.471  0.4435 -0.5362  0.4743
16415TIP3    H270661   6.450   6.271   4.617  0.0752 -1.0944  0.6674
16416TIP3   OH270662   1.835   2.158  14.890 -0.0382  0.1970 -0.2406
16416TIP3    H170663   1.868   2.089  14.831 -0.5262  0.7830 -1.2260
16416TIP3    H270664   1.760   2.195  14.843 -0.6729  0.4403  0.9284
16417TIP3   OH270665   5.250   3.169   0.335 -0.3224  0.2050 -0.3615
16417TIP3    H170666   5.217   3.258   0.339  0.1876  0.3572  1.0697
16417TIP3    H270667   5.214   3.133   0.254 -0.6855  1.6397 -0.8619
16418TIP3   OH270668   5.659   1.100  12.453 -0.6104 -0.2176  0.9255
16418TIP3    H170669   5.567   1.075  12.444 -0.3737 -0.5854 -0.7409
16418TIP3    H270670   5.661   1.192  12.425 -0.5384 -0.0252  1.5290
16419TIP3   OH270671   3.354   0.211   3.972  0.0681 -0.0526  0.3417
16419TIP3    H170672   3.368   0.139   3.910 -3.2909  0.2458 -0.9931
16419TIP3    H270673   3.413   0.280   3.942  3.2718 -2.0005  1.5600
16420TIP3   OH270674   5.820   2.514   2.434 -0.0296 -0.4751 -0.5450
16420TIP3    H170675   5.915   2.510   2.426  0.2059  2.0777  0.1623
16420TIP3    H270676   5.790   2.551   2.351 -0.0409  1.6666  0.3449
16421TIP3   OH270677   2.189   1.925  16.629 -0.2967  0.3312  0.2158
16421TIP3    H170678   2.201   2.018  16.610 -3.1572  1.4817  3.1124
16421TIP3    H270679   2.103   1.905  16.591 -0.0315 -0.9439  0.2667
16422TIP3   OH270680   6.259   3.670   1.791 -0.4814  0.3174  0.3238
16422TIP3    H170681   6.296   3.730   1.726  1.4198 -0.1429  0.9261
16422TIP3    H270682   6.250   3.587   1.744  1.2784 -0.1252  0.7025
16423TIP3   OH270683   5.995   4.972   5.156  0.1751 -0.0073  0.2071
16423TIP3    H170684   6.028   4.985   5.244  0.1382 -1.8734  0.5375
16423TIP3    H270685   6.038   4.892   5.125 -1.5399 -0.6990 -0.5637
16424TIP3   OH270686   1.491   3.692   2.747 -0.0307 -0.2797 -0.0981
16424TIP3    H170687   1.430   3.743   2.692  2.3464  1.5409 -1.2183
16424TIP3    H270688   1.476   3.724   2.835 -0.6085  0.2157 -0.3657
16425TIP3   OH270689   5.437   0.626  14.953 -0.7195  0.6268 -0.3873
16425TIP3    H170690   5.458   0.655  14.864 -2.3046 -0.7379 -1.2369
16425TIP3    H270691   5.494   0.551  14.968 -1.5684 -0.1398 -0.8937
16426TIP3   OH270692   4.776   1.674  11.544 -0.5483  0.6479 -0.6177
16426TIP3    H170693   4.720   1.626  11.605 -0.3383  0.1191 -0.8323
16426TIP3    H270694   4.865   1.657  11.574 -0.3676 -0.6619 -1.7837
16427TIP3   OH270695   6.221   5.335  13.860 -0.4060  0.5593 -0.7126
16427TIP3    H170696   6.154   5.266  13.857  0.9218 -0.9754  1.6290
16427TIP3    H270697   6.215   5.370  13.948  2.1497  0.0217 -0.2499
16428TIP3   OH270698   6.196   5.446   2.078 -0.0059 -0.4782 -0.6129
16428TIP3    H170699   6.165   5.457   2.167 -2.1166  1.2349 -1.4645
16428TIP3    H270700   6.257   5.372   2.082 -0.7984 -1.0728  2.0219
16429TIP3   OH270701   3.465   5.751  17.181 -0.5862  0.0298  0.0671
16429TIP3    H170702   3.542   5.795  17.218  0.1976 -2.7115  2.0404
16429TIP3    H270703   3.486   5.739  17.089  0.6258  0.7711  0.2282
16430TIP3   OH270704   3.043   4.131   1.916  0.0216  0.1122 -0.0300
16430TIP3    H170705   3.121   4.106   1.867  0.7106  0.5208  0.8566
16430TIP3    H270706   3.042   4.226   1.912 -0.3096  0.1168  0.1675
16431TIP3   OH270707   6.451   0.544  12.569 -0.0352  0.3342  0.2431
16431TIP3    H170708   6.496   0.582  12.493  1.7649  0.6242  1.3904
16431TIP3    H270709   6.507   0.472  12.596  0.4735  1.4911  2.4919
16432TIP3   OH270710   1.342   1.251   3.404  0.1126  0.2079 -0.2209
16432TIP3    H170711   1.266   1.283   3.355 -0.2936 -0.2633  0.0937
16432TIP3    H270712   1.305   1.221   3.488  0.3897 -1.5964 -0.7054
16433TIP3   OH270713   1.676   2.663   0.341  0.0352  0.4159 -0.1481
16433TIP3    H170714   1.627   2.581   0.343  0.1018  0.3695 -0.3097
16433TIP3    H270715   1.659   2.704   0.425 -0.3021  0.4144 -0.2164
16434TIP3   OH270716   4.245   5.406   0.769  0.3988 -0.1891 -0.2787
16434TIP3    H170717   4.159   5.394   0.729  0.4882  0.1284 -0.5668
16434TIP3    H270718   4.302   5.343   0.724  0.3826 -0.2025 -0.2805
16435TIP3   OH270719   1.918   1.865   3.910 -0.3112 -0.5769 -0.4213
16435TIP3    H170720   1.827   1.888   3.888 -0.5923 -1.2813 -0.0470
16435TIP3    H270721   1.964   1.949   3.916 -1.9541  0.2847  3.9951
16436TIP3   OH270722   5.044   2.237   6.496 -0.1582  0.4142 -0.1524
16436TIP3    H170723   5.101   2.204   6.427  0.3370  0.2505  0.3343
16436TIP3    H270724   5.049   2.171   6.566  0.3346  1.1986  0.5663
16437TIP3   OH270725   1.734   1.613  12.761  0.1871  0.3045  0.0640
16437TIP3    H170726   1.678   1.545  12.723  1.3047  0.6838 -2.4912
16437TIP3    H270727   1.789   1.566  12.824  0.0873 -0.9374 -0.7406
16438TIP3   OH270728   3.785   0.694   0.295  0.4599 -0.5060  0.2035
16438TIP3    H170729   3.771   0.726   0.206  2.4108  2.0303  0.7034
16438TIP3    H270730   3.725   0.746   0.348 -0.0347 -1.3778  0.5372
16439TIP3   OH270731   2.696   3.496  14.873  0.6696  0.6101  0.3922
16439TIP3    H170732   2.786   3.474  14.893  0.3717 -0.2951  0.7900
16439TIP3    H270733   2.650   3.486  14.956 -0.4310 -2.3534 -0.4398
16440TIP3   OH270734   6.685   0.526   1.602 -0.8234  0.0373  0.0870
16440TIP3    H170735   6.735   0.605   1.581 -0.4073 -0.1979  0.1805
16440TIP3    H270736   6.692   0.518   1.698 -1.0738  0.0252  0.1046
16441TIP3   OH270737   4.959   1.596  14.056 -0.2530  0.5187 -0.2138
16441TIP3    H170738   4.876   1.554  14.033 -0.1540  0.1172  0.1363
16441TIP3    H270739   4.953   1.610  14.151  0.8085 -1.2220  0.1550
16442TIP3   OH270740   0.929   1.565   0.205  0.0468  0.5620 -0.0264
16442TIP3    H170741   0.937   1.472   0.185 -0.7528  0.1380  1.4244
16442TIP3    H270742   1.013   1.603   0.178  0.0678 -0.4130 -1.3980
16443TIP3   OH270743   2.549   1.014  13.481  0.0177 -0.0447 -0.5109
16443TIP3    H170744   2.584   1.073  13.414 -0.0976  1.4668  0.7097
16443TIP3    H270745   2.489   1.068  13.532  1.2576 -0.6887  1.7754
16444TIP3   OH270746   5.985   2.861   5.915 -0.0885  0.6249  0.2619
16444TIP3    H170747   5.978   2.934   5.975 -0.5507 -1.0824  2.4150
16444TIP3    H270748   6.006   2.786   5.970  2.8845 -0.5019 -2.0963
16445TIP3   OH270749   1.492   5.097   2.289  0.6899  0.2449 -0.0336
16445TIP3    H170750   1.552   5.023   2.295  0.0397 -0.2091  1.4954
16445TIP3    H270751   1.505   5.144   2.371 -1.2882 -0.0803  0.5086
16446TIP3   OH270752   5.051   2.117   5.446 -0.7921 -0.4777  0.1517
16446TIP3    H170753   4.962   2.084   5.458 -0.7552 -1.1346 -1.2016
16446TIP3    H270754   5.044   2.176   5.371 -0.7393  2.2633  2.1389
16447TIP3   OH270755   3.402   0.864   5.056  0.4973  0.0926 -0.5728
16447TIP3    H170756   3.368   0.892   4.972  2.7322  1.7862 -1.0182
16447TIP3    H270757   3.426   0.945   5.101  0.5441 -0.8303  1.1728
16448TIP3   OH270758   6.320   1.010   0.373  0.1311 -0.1196 -0.5746
16448TIP3    H170759   6.342   1.048   0.458  0.5140  0.7436 -1.0441
16448TIP3    H270760   6.227   1.029   0.362 -0.0609 -0.7515 -0.0969
16449TIP3   OH270761   1.916   3.967   2.770 -0.0315 -0.5161  0.3930
16449TIP3    H170762   1.964   3.910   2.710 -0.6568 -0.6040 -0.0274
16449TIP3    H270763   1.875   3.907   2.833 -1.6962 -0.6415 -0.7710
16450TIP3   OH270764   3.649   4.956   1.569 -0.4429  0.4896  0.6309
16450TIP3    H170765   3.693   4.935   1.652  0.9997  1.3575  0.1062
16450TIP3    H270766   3.557   4.965   1.593 -0.4883 -1.9204  1.6675
16451TIP3   OH270767   5.792   1.180  15.534 -0.0476  0.0546  0.0351
16451TIP3    H170768   5.883   1.211  15.539  0.1518 -0.6596  1.0517
16451TIP3    H270769   5.792   1.119  15.460  0.4177 -0.3440  0.3648
16452TIP3   OH270770   3.003   0.338  12.066  0.1026  0.0561  0.4605
16452TIP3    H170771   3.089   0.379  12.064 -0.7148  2.4117  3.9029
16452TIP3    H270772   2.997   0.301  12.155 -2.4138 -0.0090  0.3333
16453TIP3   OH270773   3.971   4.782  11.670 -0.0254  0.8628  0.0139
16453TIP3    H170774   4.038   4.726  11.631 -1.0443 -0.0487 -0.4826
16453TIP3    H270775   3.888   4.735  11.655 -0.6905  1.5303  1.3587
16454TIP3   OH270776   0.460   2.753   0.478 -0.5174 -0.0730  0.6501
16454TIP3    H170777   0.460   2.829   0.419 -1.8977 -0.6728 -0.1748
16454TIP3    H270778   0.442   2.790   0.565 -2.3123  0.4719  0.0925
16455TIP3   OH270779   6.283   2.618   5.220  0.3076  0.6381 -0.3351
16455TIP3    H170780   6.196   2.651   5.196 -0.0665 -0.1726 -0.1114
16455TIP3    H270781   6.268   2.528   5.247  1.1603  0.6224  0.1148
16456TIP3   OH270782   2.401   1.864   6.224 -0.3468  0.1454 -0.3470
16456TIP3    H170783   2.354   1.909   6.294 -0.1271 -0.3415  0.1177
16456TIP3    H270784   2.385   1.771   6.240  0.3356 -0.0023 -0.4972
16457TIP3   OH270785   0.223   6.022   2.997  0.1003 -0.3530 -0.2542
16457TIP3    H170786   0.268   5.946   2.959  0.0134 -1.0158  0.9030
16457TIP3    H270787   0.135   5.990   3.015  0.4152 -0.4024  1.3953
16458TIP3   OH270788   0.844   4.841  14.522  0.0910  0.2031  0.1750
16458TIP3    H170789   0.926   4.888  14.508 -0.1916  0.2177 -1.7037
16458TIP3    H270790   0.866   4.749  14.505  0.0860 -0.0267  1.3682
16459TIP3   OH270791   3.015   5.660  12.379  0.1426  0.0122  0.1756
16459TIP3    H170792   3.050   5.596  12.441  2.5655  1.1375  0.0786
16459TIP3    H270793   2.940   5.616  12.339  1.6786 -2.7667  0.1193
16460TIP3   OH270794   4.889   6.383  11.631 -0.2984 -0.2980 -0.2209
16460TIP3    H170795   4.824   6.349  11.570  1.9141 -0.9335 -2.3634
16460TIP3    H270796   4.974   6.364  11.591  1.2577  1.2305  2.0214
16461TIP3   OH270797   3.794   1.710  11.540  0.1622 -0.6054 -0.3884
16461TIP3    H170798   3.724   1.775  11.551  0.4491 -0.2490 -0.6475
16461TIP3    H270799   3.752   1.626  11.559 -0.0195 -0.2776  0.7667
16462TIP3   OH270800   1.070   6.598   1.651  0.3745 -0.2376  0.6030
16462TIP3    H170801   1.025   6.631   1.573  0.3537 -1.0767  0.2431
16462TIP3    H270802   1.157   6.573   1.618 -0.1478 -2.0287  0.4998
16463TIP3   OH270803   1.369   6.517  14.431 -0.0335  0.6411 -0.2900
16463TIP3    H170804   1.417   6.457  14.374 -0.4958  0.1818 -0.2061
16463TIP3    H270805   1.424   6.526  14.508 -1.0693 -1.6621  0.8050
16464TIP3   OH270806   0.555   6.080   6.229  0.1276  0.3466  0.3339
16464TIP3    H170807   0.518   6.163   6.260  0.4808  0.6310  0.0021
16464TIP3    H270808   0.624   6.060   6.293 -1.5587 -0.9694  1.8433
16465TIP3   OH270809   0.211   5.291   5.554  0.2428  0.5961  0.3085
16465TIP3    H170810   0.176   5.266   5.639  1.6052 -3.6296 -0.1271
16465TIP3    H270811   0.133   5.312   5.502 -0.8773  0.1421  1.7360
16466TIP3   OH270812   6.734   5.081  12.947  0.0075  0.1488 -0.0741
16466TIP3    H170813   6.711   5.141  13.018  1.5774  1.9772 -1.0109
16466TIP3    H270814   6.651   5.043  12.919 -1.1784  2.5491 -0.0086
16467TIP3   OH270815   2.298   2.666  16.016 -0.4469 -0.0043 -0.2300
16467TIP3    H170816   2.280   2.580  16.054  1.3739 -0.3960 -0.1240
16467TIP3    H270817   2.319   2.721  16.091  0.3421 -0.0145 -0.4343
16468TIP3   OH270818   0.695   2.435   1.019  0.5084  0.3621 -0.4333
16468TIP3    H170819   0.769   2.412   0.963  0.2291 -0.3612 -0.5167
16468TIP3    H270820   0.633   2.364   1.007 -0.2378  0.9922 -0.4228
16469TIP3   OH270821   6.216   0.244  15.704  0.3704  0.6451  0.4241
16469TIP3    H170822   6.245   0.175  15.765  0.6057  2.1644  2.1040
16469TIP3    H270823   6.121   0.243  15.710  0.2905 -0.3845 -0.5869
16470TIP3   OH270824   5.160   3.327  12.778 -0.3192 -0.0813 -0.5525
16470TIP3    H170825   5.072   3.355  12.751 -0.0784  0.4995 -0.7435
16470TIP3    H270826   5.219   3.391  12.738  0.1374  0.0177  0.2555
16471TIP3   OH270827   1.549   1.282  13.848  0.1779  0.3529 -0.5180
16471TIP3    H170828   1.631   1.325  13.823  0.4085 -0.3535 -1.0141
16471TIP3    H270829   1.481   1.327  13.798  0.1422  1.4743  0.4952
16472TIP3   OH270830   5.751   6.120   4.997  0.6013 -0.1714 -0.3881
16472TIP3    H170831   5.670   6.071   5.011  1.3919 -1.6659 -0.8775
16472TIP3    H270832   5.792   6.124   5.084  0.4331 -0.1820 -0.3082
16473TIP3   OH270833   4.066   6.158   4.448 -0.2511 -0.2627 -0.3433
16473TIP3    H170834   4.147   6.209   4.447  0.2381 -1.0219 -1.1731
16473TIP3    H270835   4.003   6.214   4.494  0.8639  0.1441  0.7660
16474TIP3   OH270836   4.368   5.405   2.755 -0.3762  0.4422  0.3116
16474TIP3    H170837   4.345   5.415   2.847  0.4289  1.3526  0.4330
16474TIP3    H270838   4.319   5.329   2.726 -0.7449  0.2238  1.4580
16475TIP3   OH270839   5.629   0.518  13.121  0.1265 -0.6433  0.4751
16475TIP3    H170840   5.652   0.577  13.050  0.0451 -0.3484  0.6930
16475TIP3    H270841   5.533   0.524  13.128  0.3130  1.5152  2.4579
16476TIP3   OH270842   4.857   2.613  14.370 -0.1946  0.6784 -0.9199
16476TIP3    H170843   4.782   2.579  14.321  0.5630 -0.6540 -1.1909
16476TIP3    H270844   4.853   2.707  14.357 -1.7819  0.6328 -0.9856
16477TIP3   OH270845   0.731   3.268  15.921  0.1574 -0.2635  0.2113
16477TIP3    H170846   0.665   3.245  15.855 -0.4457  0.1416  0.6620
16477TIP3    H270847   0.812   3.230  15.888 -0.1010  0.0678 -0.8425
16478TIP3   OH270848   4.134   4.830  12.500  0.6913 -0.1550  0.1451
16478TIP3    H170849   4.222   4.813  12.534  1.4868 -0.0154 -1.7266
16478TIP3    H270850   4.103   4.745  12.468  1.2724  0.2435 -1.6080
16479TIP3   OH270851   4.894   2.561  16.916  0.1525 -0.1225 -0.2066
16479TIP3    H170852   4.810   2.546  16.873  0.7192 -2.4180 -0.6627
16479TIP3    H270853   4.956   2.506  16.867  1.5175 -0.0759  1.3837
16480TIP3   OH270854   0.646   2.528  11.490  0.2673 -0.4256  0.3649
16480TIP3    H170855   0.610   2.610  11.523  0.1881 -1.2778  2.5133
16480TIP3    H270856   0.575   2.465  11.500 -0.8703 -0.2440 -4.3060
16481TIP3   OH270857   2.681   1.210  11.313  0.2083  0.0179  0.5069
16481TIP3    H170858   2.712   1.127  11.277  0.1105 -0.4010  1.3602
16481TIP3    H270859   2.658   1.263  11.237 -2.1610 -1.6633 -0.0619
16482TIP3   OH270860   1.084   1.059  12.931  0.8529  0.0986  0.1686
16482TIP3    H170861   1.087   1.150  12.961  0.9647 -0.0282  0.5481
16482TIP3    H270862   1.133   1.060  12.848  1.0590  0.3386  0.2895
16483TIP3   OH270863   0.906   1.467   5.631  0.1039 -0.2689 -0.0394
16483TIP3    H170864   1.000   1.460   5.616  0.2362 -0.4630  0.8416
16483TIP3    H270865   0.867   1.454   5.545  0.8332 -1.2486 -0.2423
16484TIP3   OH270866   0.926   0.477  14.368  0.2939  0.2538 -0.0805
16484TIP3    H170867   0.844   0.497  14.323 -0.5556 -1.4640  0.6332
16484TIP3    H270868   0.902   0.414  14.436  1.8045  1.5055  1.7358
16485TIP3   OH270869   3.727   5.661  15.479  0.8586 -0.0022 -0.6127
16485TIP3    H170870   3.711   5.745  15.437 -0.7239  0.6923  1.2610
16485TIP3    H270871   3.821   5.647  15.467  1.8054  3.4572  1.4632
16486TIP3   OH270872   1.467   3.871  12.627  0.0515  0.2988  0.0874
16486TIP3    H170873   1.429   3.786  12.647  0.3206  0.1132 -0.1691
16486TIP3    H270874   1.556   3.850  12.596  0.2657  0.7007  0.4253
16487TIP3   OH270875   0.612   4.521  10.821 -0.4522 -0.2302  0.7972
16487TIP3    H170876   0.664   4.578  10.765  0.3224 -0.3673  1.3620
16487TIP3    H270877   0.534   4.572  10.842  0.2845  0.6800  1.4033
16488TIP3   OH270878   4.469   4.654  15.244 -0.2726  0.4472  1.6297
16488TIP3    H170879   4.377   4.667  15.267 -0.5879 -0.4542  0.9313
16488TIP3    H270880   4.474   4.670  15.150 -0.0286 -0.9748  1.3720
16489TIP3   OH270881   2.198   0.405  13.354 -0.0967 -0.2881  0.3480
16489TIP3    H170882   2.121   0.379  13.304 -0.7984  0.9294  0.7509
16489TIP3    H270883   2.177   0.378  13.444 -0.1377  0.1902  0.4855
16490TIP3   OH270884   4.790   4.154   2.282 -0.0624 -0.0363  0.7426
16490TIP3    H170885   4.822   4.151   2.372  0.1707  0.4882  0.6798
16490TIP3    H270886   4.695   4.151   2.290 -0.1082  1.4862  1.0982
16491TIP3   OH270887   4.029   4.677   0.892  0.1122 -0.3069 -0.3137
16491TIP3    H170888   4.109   4.655   0.940  0.7267 -0.8485 -1.5564
16491TIP3    H270889   4.013   4.602   0.835  0.3992  1.0122 -2.2323
16492TIP3   OH270890   0.546   4.127  13.974  0.1028 -0.0195 -0.1562
16492TIP3    H170891   0.499   4.084  14.046  0.1013 -0.4093 -0.3818
16492TIP3    H270892   0.627   4.077  13.966 -1.1201 -1.8639 -2.2754
16493TIP3   OH270893   1.412   4.976   2.668  0.3125  0.1245  0.0768
16493TIP3    H170894   1.459   5.055   2.694 -0.5172  0.3702  0.9062
16493TIP3    H270895   1.379   4.995   2.580  0.3184  0.6129  0.1780
16494TIP3   OH270896   0.286   5.975   0.602 -0.2214 -0.4238  0.2639
16494TIP3    H170897   0.369   5.953   0.561 -0.2331 -2.6895  1.3538
16494TIP3    H270898   0.308   6.043   0.666  0.3790  0.5443 -0.9132
16495TIP3   OH270899   0.338   0.855   1.764 -0.1686  0.4483  0.0610
16495TIP3    H170900   0.351   0.893   1.677 -1.0946 -1.2048 -0.8574
16495TIP3    H270901   0.357   0.926   1.825  0.6119  1.6167 -1.4880
16496TIP3   OH270902   5.658   2.038   2.997 -0.4695  0.0222  0.0068
16496TIP3    H170903   5.573   2.022   3.037 -0.6148 -1.0080 -0.6971
16496TIP3    H270904   5.669   1.968   2.934 -0.3077  1.6778 -1.8972
16497TIP3   OH270905   3.702   5.924   0.044  0.2123 -0.1054  0.3225
16497TIP3    H170906   3.797   5.920   0.055  0.2683 -1.0199 -0.3624
16497TIP3    H270907   3.667   5.866   0.111  0.1941 -0.5165 -0.0396
16498TIP3   OH270908   2.708   0.112  16.979  0.0879 -0.2598  0.2664
16498TIP3    H170909   2.671   0.099  17.066 -0.3537 -1.8465 -0.1377
16498TIP3    H270910   2.735   0.025  16.950 -1.0653 -0.0043 -1.7457
16499TIP3   OH270911   2.959   2.604   5.729 -0.0386 -0.3084 -0.1544
16499TIP3    H170912   3.032   2.586   5.788  0.4402 -0.9120 -0.9206
16499TIP3    H270913   2.998   2.605   5.642 -1.4766 -4.9492 -1.1555
16500TIP3   OH270914   3.637   1.536   0.957  0.0136 -0.6651  0.1272
16500TIP3    H170915   3.562   1.499   1.003 -1.1268  0.2554 -0.9443
16500TIP3    H270916   3.600   1.585   0.884  1.6581 -0.1866 -0.4445
16501TIP3   OH270917   2.510   4.936  13.848 -0.4378  0.0882 -0.2540
16501TIP3    H170918   2.418   4.955  13.831 -0.6099  0.5429  1.0614
16501TIP3    H270919   2.557   5.014  13.817 -0.6073  0.3273  0.0860
16502TIP3   OH270920   4.387   5.059  12.586  0.2055 -0.7248  0.1803
16502TIP3    H170921   4.371   5.153  12.579 -1.2377 -0.8030  1.6864
16502TIP3    H270922   4.417   5.033  12.499 -2.9710  0.5028 -1.4464
16503TIP3   OH270923   5.729   4.813   0.492 -0.2628  0.3503  0.4327
16503TIP3    H170924   5.740   4.900   0.455  1.9136 -0.2715 -0.5121
16503TIP3    H270925   5.727   4.754   0.416 -1.8550 -0.4559  1.0407
16504TIP3   OH270926   3.508   6.539  11.990 -0.0105 -0.5234 -0.3598
16504TIP3    H170927   3.420   6.503  11.975  0.3806 -1.8081  0.3164
16504TIP3    H270928   3.567   6.465  11.975  0.7766 -0.3842  1.6734
16505TIP3   OH270929   4.863   2.550   4.152 -0.0793  0.6173  0.3327
16505TIP3    H170930   4.927   2.527   4.084  0.1072 -0.2558  0.7880
16505TIP3    H270931   4.866   2.476   4.213 -0.5345  1.2040  1.0789
16506TIP3   OH270932   3.770   4.027   5.351  0.2196 -0.1257  0.0618
16506TIP3    H170933   3.805   4.111   5.321 -2.1523  0.5171 -1.2065
16506TIP3    H270934   3.675   4.038   5.346 -0.1705 -2.9553 -0.3465
16507TIP3   OH270935   4.229   3.856   1.403 -1.2524  0.0175 -0.4657
16507TIP3    H170936   4.318   3.889   1.421 -1.6914 -0.1094  2.4056
16507TIP3    H270937   4.188   3.925   1.351  0.1474  0.6072 -0.8363
16508TIP3   OH270938   6.525   5.932  14.051  0.0089  0.8823  0.4482
16508TIP3    H170939   6.544   5.900  13.962  0.0242  0.4011  0.6216
16508TIP3    H270940   6.573   6.015  14.057 -0.9176  1.5021 -0.3902
16509TIP3   OH270941   0.522   5.631  15.038  0.1703 -0.4442 -0.7273
16509TIP3    H170942   0.428   5.632  15.018  0.4801  1.3927 -2.4607
16509TIP3    H270943   0.555   5.553  14.994 -0.5937 -1.4478  0.4083
16510TIP3   OH270944   0.861   3.016   3.213  0.2753 -0.1321 -0.0082
16510TIP3    H170945   0.884   3.095   3.262  2.3423 -1.3887  1.1844
16510TIP3    H270946   0.945   2.975   3.193 -0.7553 -2.4815  0.2102
16511TIP3   OH270947   1.415   6.313   5.382 -0.2231 -0.1182 -0.4220
16511TIP3    H170948   1.467   6.329   5.304  1.3588  1.9134  0.9452
16511TIP3    H270949   1.336   6.366   5.370  0.0941  0.3212 -0.5735
16512TIP3   OH270950   5.955   4.453  11.053 -0.0305  0.2536  0.5683
16512TIP3    H170951   6.051   4.453  11.044  0.1049 -0.8948  1.7342
16512TIP3    H270952   5.930   4.361  11.042 -0.9024  0.3972  1.2422
16513TIP3   OH270953   6.146   1.512  13.782  0.2529  0.7256 -0.2335
16513TIP3    H170954   6.212   1.546  13.843 -0.6314  1.7618  0.1722
16513TIP3    H270955   6.197   1.470  13.713  1.3310  1.2803  0.1992
16514TIP3   OH270956   6.606   3.513  11.221  0.4698 -0.0424  0.5144
16514TIP3    H170957   6.555   3.436  11.248 -0.5055  1.1424  2.2483
16514TIP3    H270958   6.696   3.480  11.214 -0.1381 -1.6547 -0.2574
16515TIP3   OH270959   6.094   1.674   5.721 -0.5938 -0.5477 -0.4051
16515TIP3    H170960   6.166   1.673   5.785 -0.1021 -1.3508 -0.9482
16515TIP3    H270961   6.076   1.767   5.707 -2.4896 -0.2727  2.8153
16516TIP3   OH270962   0.179   6.139  10.488  0.9894  0.4569 -0.2590
16516TIP3    H170963   0.191   6.156  10.394  1.7367  3.2126  0.2407
16516TIP3    H270964   0.266   6.119  10.520  0.7275 -0.5253 -0.1404
16517TIP3   OH270965   1.580   1.392   4.531 -0.7949  0.0497  0.7258
16517TIP3    H170966   1.577   1.326   4.600 -0.0275  0.6324  1.3467
16517TIP3    H270967   1.641   1.458   4.565 -1.6187  1.1186  0.1714
16518TIP3   OH270968   6.335   4.808   1.431  0.4735  0.0694  0.2043
16518TIP3    H170969   6.400   4.784   1.364 -0.8768  0.2880 -1.2480
16518TIP3    H270970   6.374   4.882   1.477  0.6771  1.1587 -1.6308
16519TIP3   OH270971   0.087   2.821   2.283  0.5303  0.1464 -0.1840
16519TIP3    H170972   0.059   2.782   2.366  0.8376  1.1629  0.4087
16519TIP3    H270973   0.164   2.769   2.258  0.6501  0.0624  0.3448
16520TIP3   OH270974   4.383   5.442   1.260  0.4155 -0.2837  0.7438
16520TIP3    H170975   4.297   5.441   1.303  0.7385  1.7255  1.5238
16520TIP3    H270976   4.367   5.398   1.176 -1.7871  1.4459  0.1623
16521TIP3   OH270977   4.185   2.136   2.267 -0.0510  0.0782  0.1146
16521TIP3    H170978   4.229   2.061   2.307 -1.9870  0.1794  2.6507
16521TIP3    H270979   4.243   2.210   2.285  0.6784 -0.3924 -0.2316
16522TIP3   OH270980   3.871   3.997   4.160 -0.1042  0.1567  0.1512
16522TIP3    H170981   3.929   4.064   4.124  0.2972  0.6606  1.6552
16522TIP3    H270982   3.876   3.924   4.098 -0.1572  1.3119 -1.2502
16523TIP3   OH270983   0.177   4.787   4.846  0.5387  0.9729  0.2183
16523TIP3    H170984   0.188   4.761   4.938 -0.3052 -0.3289 -0.0185
16523TIP3    H270985   0.153   4.706   4.801 -0.5339  1.8615 -0.8904
16524TIP3   OH270986   4.923   0.725   3.229  0.0203 -1.0221  0.2487
16524TIP3    H170987   4.868   0.648   3.220 -1.5963 -0.2117  2.3401
16524TIP3    H270988   4.996   0.696   3.284 -1.8835 -0.6071  3.2255
16525TIP3   OH270989   2.455   3.371  17.150 -0.7409 -0.5666  0.2886
16525TIP3    H170990   2.423   3.404  17.066  0.0555  1.1192  0.6075
16525TIP3    H270991   2.379   3.327  17.188 -1.2321 -1.0090 -1.1057
16526TIP3   OH270992   1.058   0.587  14.103  0.0615 -0.1748 -0.3823
16526TIP3    H170993   1.111   0.609  14.026  1.5793  0.5830  0.8281
16526TIP3    H270994   0.967   0.599  14.073  0.6477  1.5677 -1.6278
16527TIP3   OH270995   4.355   3.921   4.013  0.2989 -0.4097  0.1771
16527TIP3    H170996   4.439   3.893   4.047  0.6518  0.5104  0.0940
16527TIP3    H270997   4.329   3.994   4.069  0.2705  0.2834 -0.7123
16528TIP3   OH270998   3.712   3.411   0.911  0.2761  0.4633 -0.0941
16528TIP3    H170999   3.761   3.461   0.976  0.3771 -0.8402  0.8805
16528TIP3    H271000   3.629   3.457   0.902  0.9408  1.6390 -0.3591
16529TIP3   OH271001   5.513   4.389  14.838  0.4648  0.6849 -1.1581
16529TIP3    H171002   5.545   4.369  14.750  0.5650  1.3468 -1.2764
16529TIP3    H271003   5.418   4.399  14.827  0.1441 -1.4220 -0.7822
16530TIP3   OH271004   6.657   6.237   0.676  0.5037 -0.1654  0.2619
16530TIP3    H171005   6.585   6.294   0.647  0.0034 -1.6402 -1.6598
16530TIP3    H271006   6.615   6.151   0.689  1.6863 -0.7466  0.3489
16531TIP3   OH271007   4.985   3.780   5.380  0.3840  0.2315 -0.1253
16531TIP3    H171008   5.017   3.843   5.445 -1.1742  0.4783  0.4505
16531TIP3    H271009   4.948   3.709   5.432  1.2597 -0.7212 -0.7766
16532TIP3   OH271010   4.779   6.217   4.484 -0.1063  0.0274  0.0216
16532TIP3    H171011   4.821   6.133   4.501  0.2656  0.3934  0.9236
16532TIP3    H271012   4.696   6.212   4.531  0.3294  0.5191  0.8566
16533TIP3   OH271013   3.310   2.153   6.428 -0.5857  0.7190  0.3132
16533TIP3    H171014   3.247   2.210   6.471  0.5255  1.4791  0.9962
16533TIP3    H271015   3.342   2.095   6.497 -0.8104  0.0690 -0.1116
16534TIP3   OH271016   5.783   5.969  15.799 -0.1196 -0.4741  0.8374
16534TIP3    H171017   5.755   5.925  15.718 -0.5482  0.4371  0.4739
16534TIP3    H271018   5.845   5.908  15.839 -0.0337 -1.0183 -0.0889
16535TIP3   OH271019   5.356   5.908   0.365  0.0329  0.2918  0.5313
16535TIP3    H171020   5.361   5.953   0.280  1.7430  1.1784  1.0507
16535TIP3    H271021   5.408   5.829   0.352 -0.9659 -0.3369  0.3234
16536TIP3   OH271022   4.840   5.833  13.467  0.0669  0.4747 -0.0110
16536TIP3    H171023   4.771   5.897  13.451 -2.8595 -2.4745 -0.1923
16536TIP3    H271024   4.856   5.793  13.382 -0.5721 -1.2412  0.6469
16537TIP3   OH271025   2.613   5.328  17.185 -0.1302 -0.1987 -0.2073
16537TIP3    H171026   2.576   5.278  17.257  0.7121 -1.3121 -0.5323
16537TIP3    H271027   2.626   5.264  17.115  0.9308  0.4668 -0.6441
16538TIP3   OH271028   5.911   2.185   5.433 -0.1941  0.5634 -0.2298
16538TIP3    H171029   5.875   2.263   5.391 -0.5699  1.0434  0.9467
16538TIP3    H271030   5.951   2.135   5.362  0.0790  1.8431 -0.9940
16539TIP3   OH271031   2.281   3.336   4.653  0.6031  0.1523 -0.3810
16539TIP3    H171032   2.321   3.279   4.587  0.4622 -1.2296  0.6634
16539TIP3    H271033   2.272   3.421   4.610  2.6648 -0.0603 -1.3592
16540TIP3   OH271034   4.546   5.294   0.752 -0.7565 -1.0441 -0.1203
16540TIP3    H171035   4.624   5.281   0.806  0.3505 -1.5160 -1.7523
16540TIP3    H271036   4.580   5.319   0.666 -2.5145  3.5961  0.2581
16541TIP3   OH271037   0.915   6.754  14.505 -0.1028  0.0457 -0.3544
16541TIP3    H171038   0.892   6.714  14.421  0.2229 -0.8669 -0.0256
16541TIP3    H271039   0.987   6.701  14.538  1.1984  1.6864 -0.4610
16542TIP3   OH271040   4.103   2.221   5.429  0.0055 -0.3200  0.0956
16542TIP3    H171041   4.182   2.205   5.480 -1.1216  0.3918  2.1360
16542TIP3    H271042   4.063   2.134   5.419  0.5922 -0.5583 -0.2020
16543TIP3   OH271043   0.130   3.806  13.829 -0.1998  0.6464  0.0242
16543TIP3    H171044   0.160   3.769  13.746  0.0523  0.5232  0.1675
16543TIP3    H271045   0.171   3.893  13.833  0.3819  0.3677  0.3497
16544TIP3   OH271046   2.208   0.284   0.399  0.5093 -0.5531  0.3794
16544TIP3    H171047   2.237   0.205   0.444  0.5467  1.5030  4.3688
16544TIP3    H271048   2.143   0.323   0.457  1.4329  3.0337 -0.7200
16545TIP3   OH271049   3.634   6.079  15.827 -0.0495 -0.4772 -0.0787
16545TIP3    H171050   3.696   6.006  15.821  0.0878 -0.4134  0.4740
16545TIP3    H271051   3.685   6.155  15.799 -0.8316 -0.8972 -2.9274
16546TIP3   OH271052   5.571   2.101   5.576  0.6794 -0.1153 -0.3099
16546TIP3    H171053   5.586   2.086   5.670 -0.6367 -0.7069 -0.1687
16546TIP3    H271054   5.582   2.015   5.536 -0.8074 -0.3012 -0.3809
16547TIP3   OH271055   6.001   5.444   5.002 -0.0366 -0.5333 -0.3467
16547TIP3    H171056   6.003   5.475   5.092  3.5856 -0.7976 -0.2068
16547TIP3    H271057   5.940   5.371   5.003  0.4592 -0.9751  2.0618
16548TIP3   OH271058   6.694   2.593   5.951  0.0530 -0.5078  0.2490
16548TIP3    H171059   6.725   2.611   5.862  0.1805 -0.9867  0.1913
16548TIP3    H271060   6.678   2.498   5.952 -1.9605 -0.2248  0.1022
16549TIP3   OH271061   2.832   5.369   6.167  0.0601 -0.8278 -0.1416
16549TIP3    H171062   2.775   5.415   6.106  0.3832  0.0759  0.2320
16549TIP3    H271063   2.776   5.347   6.241 -0.0159 -0.7622 -0.1808
16550TIP3   OH271064   5.170   3.366   4.024  0.1064  0.2997 -0.4208
16550TIP3    H171065   5.206   3.393   3.939 -1.1517 -0.7863 -1.3408
16550TIP3    H271066   5.248   3.350   4.078  0.9993 -0.5161 -1.8632
16551TIP3   OH271067   1.758   6.231   1.607 -0.1965 -0.0720 -0.2817
16551TIP3    H171068   1.849   6.241   1.576 -0.5093 -0.8097 -1.5100
16551TIP3    H271069   1.743   6.137   1.606 -1.4308  0.0985 -1.5503
16552TIP3   OH271070   2.837   0.108  17.247 -0.3115  0.4202 -0.1143
16552TIP3    H171071   2.795   0.193  17.239  0.4513  0.8538  0.3748
16552TIP3    H271072   2.931   0.126  17.235 -0.0701 -0.2435  0.6602
16553TIP3   OH271073   5.724   6.081   1.856 -0.2552  0.2684  0.1226
16553TIP3    H171074   5.683   6.089   1.770 -0.9939 -0.0871  0.4329
16553TIP3    H271075   5.718   6.169   1.893 -1.9529 -0.0331  0.6831
16554TIP3   OH271076   6.428   1.235  11.406  0.1360 -0.0306  0.0112
16554TIP3    H171077   6.500   1.173  11.394 -0.3127 -0.8893  1.4490
16554TIP3    H271078   6.430   1.290  11.328  1.7359 -0.6531 -0.4237
16555TIP3   OH271079   0.947   0.928   6.395  0.3586 -0.1156 -0.0450
16555TIP3    H171080   0.946   0.947   6.489 -0.2424 -0.9986  0.1483
16555TIP3    H271081   0.906   1.004   6.355 -0.4567 -0.2316  0.5348
16556TIP3   OH271082   3.712   0.101  17.162  0.6992  0.3382  0.3042
16556TIP3    H171083   3.646   0.032  17.162 -0.4230  1.3577  1.2047
16556TIP3    H271084   3.764   0.085  17.241  1.7512 -0.6276 -0.5520
16557TIP3   OH271085   3.958   0.925  14.820  0.2829 -0.1972 -0.1639
16557TIP3    H171086   4.008   0.889  14.746 -0.4234  1.6510 -1.6386
16557TIP3    H271087   4.024   0.971  14.872  0.7815 -1.4795  0.3934
16558TIP3   OH271088   6.517   5.090   0.778 -0.0163  0.4812 -0.6697
16558TIP3    H171089   6.434   5.045   0.793 -0.1063  0.5067 -1.0846
16558TIP3    H271090   6.571   5.067   0.854 -0.2631  0.1457 -0.5934
16559TIP3   OH271091   3.733   3.896   5.928 -0.4229 -0.3975 -0.0985
16559TIP3    H171092   3.824   3.904   5.957 -0.9979  1.3092  1.3978
16559TIP3    H271093   3.704   3.986   5.915 -2.3702 -0.8284  0.9764
16560TIP3   OH271094   5.439   0.074  11.434 -0.0887 -0.4711  0.4127
16560TIP3    H171095   5.347   0.098  11.446  0.0702  0.7262 -0.5500
16560TIP3    H271096   5.448   0.059  11.340  0.8147  0.0038  0.4094
16561TIP3   OH271097   4.351   2.542   3.920 -0.0344  0.2437  1.1048
16561TIP3    H171098   4.380   2.537   4.012  0.4450 -1.4747  0.9021
16561TIP3    H271099   4.427   2.578   3.873  0.2071 -0.1480  1.1922
16562TIP3   OH271100   6.163   5.403   0.966 -0.3734  0.7521 -0.0432
16562TIP3    H171101   6.086   5.346   0.959  0.2681 -0.1525  0.1561
16562TIP3    H271102   6.130   5.482   1.009 -0.9719 -0.0842  1.1053
16563TIP3   OH271103   0.251   2.649   3.425  0.1658  0.2394 -0.1877
16563TIP3    H171104   0.320   2.596   3.385  0.5835  0.6128  0.0301
16563TIP3    H271105   0.280   2.662   3.515 -1.5980 -2.0938  0.8343
16564TIP3   OH271106   1.936   5.159  16.057 -0.4253  0.2370  0.0652
16564TIP3    H171107   1.881   5.194  15.987 -1.9066  0.1862  1.1376
16564TIP3    H271108   1.890   5.080  16.086  1.2350 -0.8860 -0.2363
16565TIP3   OH271109   1.546   5.296   4.592  0.4351 -0.5826 -0.0942
16565TIP3    H171110   1.598   5.352   4.534  1.1659 -0.3673  0.7414
16565TIP3    H271111   1.608   5.233   4.627  0.6881  0.9267  2.5099
16566TIP3   OH271112   0.662   1.505   5.804  0.3299  0.3400  0.1481
16566TIP3    H171113   0.578   1.466   5.780 -0.5164  3.3894 -2.5948
16566TIP3    H271114   0.725   1.463   5.745  0.3694 -0.4052  0.7064
16567TIP3   OH271115   0.599   4.792  11.903  0.0174 -0.0233  0.4379
16567TIP3    H171116   0.608   4.842  11.984  1.0812  0.4887  0.0249
16567TIP3    H271117   0.642   4.846  11.836  0.3703 -1.0630 -0.2006
16568TIP3   OH271118   2.146   0.451  12.988  0.2788 -0.3194  0.7149
16568TIP3    H171119   2.221   0.510  12.991  0.7134 -0.8996  2.3093
16568TIP3    H271120   2.083   0.496  12.931  1.4173  0.6567  0.1664
16569TIP3   OH271121   3.686   5.003  12.758 -0.3835 -0.5410 -0.2064
16569TIP3    H171122   3.651   5.065  12.694  2.2344  0.7868 -0.5179
16569TIP3    H271123   3.759   5.050  12.799  0.6669 -2.8549  0.7512
16570TIP3   OH271124   0.476   5.687   2.243 -0.2522  0.0113 -0.1138
16570TIP3    H171125   0.565   5.655   2.235 -0.6025 -1.1002  0.2686
16570TIP3    H271126   0.480   5.778   2.215  0.9644 -0.0806 -0.2580
16571TIP3   OH271127   6.636   5.772  13.431 -0.2555 -0.4180  0.0726
16571TIP3    H171128   6.655   5.766  13.337 -1.9637  0.5241 -0.3685
16571TIP3    H271129   6.586   5.693  13.450  0.1048 -0.6173  0.2125
16572TIP3   OH271130   2.391   1.389   1.330  0.2753 -0.6137 -0.4753
16572TIP3    H171131   2.424   1.304   1.300  0.0023 -0.9793  0.2306
16572TIP3    H271132   2.379   1.377   1.424 -1.0063 -0.1953 -0.5750
16573TIP3   OH271133   4.171   6.410  16.512 -0.1178 -0.0163 -0.0553
16573TIP3    H171134   4.209   6.496  16.498 -1.1312  0.2826 -1.1199
16573TIP3    H271135   4.188   6.390  16.604 -1.6558  2.2260  0.7890
16574TIP3   OH271136   2.597   2.042   1.402  0.2879  0.3540 -1.0691
16574TIP3    H171137   2.564   1.957   1.431 -0.1346  0.8554  0.0062
16574TIP3    H271138   2.536   2.105   1.441  0.0076  1.1180 -2.6738
16575TIP3   OH271139   6.580   5.426   2.853  0.0340 -0.3570 -0.1730
16575TIP3    H171140   6.588   5.443   2.946  2.1763 -1.8161 -0.0532
16575TIP3    H271141   6.634   5.349   2.836 -0.4800 -0.2868 -2.5839
16576TIP3   OH271142   3.347   3.835  15.803  1.1559  0.1542  0.4926
16576TIP3    H171143   3.312   3.865  15.719  2.2437 -1.5642 -0.6336
16576TIP3    H271144   3.272   3.795  15.847  0.7270  0.4592  0.0478
16577TIP3   OH271145   1.244   2.985  13.910 -0.0813  0.0002  0.2328
16577TIP3    H171146   1.185   2.912  13.925  0.4208 -0.1994  1.3483
16577TIP3    H271147   1.311   2.977  13.978 -0.2614  1.7427  0.6700
16578TIP3   OH271148   0.423   4.843   2.435  0.4974 -0.0562 -0.1269
16578TIP3    H171149   0.435   4.752   2.407  2.2178  0.1569 -0.2015
16578TIP3    H271150   0.459   4.845   2.524 -0.8694  0.2453  0.4334
16579TIP3   OH271151   3.245   2.140   3.242  0.0023  0.2628  0.2431
16579TIP3    H171152   3.206   2.225   3.266  0.6817  0.7282 -0.2699
16579TIP3    H271153   3.334   2.144   3.275  0.1501 -0.1062 -0.1059
16580TIP3   OH271154   3.861   0.611  16.690  0.7372 -0.7411  0.6141
16580TIP3    H171155   3.898   0.699  16.696 -0.4439 -0.0626 -1.1242
16580TIP3    H271156   3.921   0.564  16.632 -0.1709 -0.1392 -0.8692
16581TIP3   OH271157   2.077   4.818  12.020  0.3028 -0.3563 -0.1310
16581TIP3    H171158   2.060   4.725  12.009  1.0068 -0.5587  0.4889
16581TIP3    H271159   2.009   4.848  12.081  0.2079 -0.5010 -0.1650
16582TIP3   OH271160   5.437   4.267  12.209 -0.2591 -0.0598 -0.9585
16582TIP3    H171161   5.416   4.360  12.202  0.5082  0.1370 -0.7559
16582TIP3    H271162   5.356   4.228  12.243 -0.0647  0.8070  0.6386
16583TIP3   OH271163   2.962   0.488   3.072 -0.3178 -0.0132 -0.2265
16583TIP3    H171164   2.954   0.503   2.977  0.6467 -1.7071 -0.6110
16583TIP3    H271165   3.056   0.496   3.089 -0.2644 -1.4161  0.2516
16584TIP3   OH271166   3.647   5.371  16.518 -0.3765  0.4632  0.3494
16584TIP3    H171167   3.721   5.382  16.459  0.4490 -0.1672  1.2425
16584TIP3    H271168   3.629   5.277  16.517  1.2049  0.0289  2.8646
16585TIP3   OH271169   1.991   4.186   3.923 -0.3141  0.4237  0.1564
16585TIP3    H171170   1.938   4.125   3.871  0.4089  0.0838 -0.1926
16585TIP3    H271171   2.024   4.250   3.859  0.8184 -0.1645  0.1222
16586TIP3   OH271172   6.009   5.835  13.272  0.5953  0.0317  0.3795
16586TIP3    H171173   6.061   5.837  13.352  0.3565 -0.6291  0.5592
16586TIP3    H271174   6.067   5.869  13.204  0.5494  1.3431  0.9628
16587TIP3   OH271175   0.839   1.461  13.822 -0.4955 -0.4987  0.4056
16587TIP3    H171176   0.883   1.460  13.907  0.1847  0.5348  0.0806
16587TIP3    H271177   0.868   1.381  13.779  1.5507  0.4208 -0.0245
16588TIP3   OH271178   0.878   2.197   4.657  0.0479  0.0119 -0.0508
16588TIP3    H171179   0.955   2.153   4.620 -0.8031 -1.0942 -0.5201
16588TIP3    H271180   0.881   2.175   4.750 -0.9078 -1.9243 -0.4295
16589TIP3   OH271181   1.074   5.989   1.667 -0.5898 -0.0201  0.2434
16589TIP3    H171182   1.111   6.005   1.754 -1.7862 -0.0390  0.7781
16589TIP3    H271183   1.000   6.049   1.661  0.5261  1.3015 -1.5014
16590TIP3   OH271184   1.017   2.394  12.425  0.1460 -0.1867  0.8855
16590TIP3    H171185   0.978   2.479  12.447 -1.5157 -1.3009  2.5124
16590TIP3    H271186   1.083   2.379  12.492  0.1562 -0.3716  0.8351
16591TIP3   OH271187   0.685   4.076  17.064 -0.2485  0.0634 -0.1942
16591TIP3    H171188   0.603   4.106  17.103 -0.5837  0.4849 -1.2037
16591TIP3    H271189   0.736   4.156  17.051  0.7428 -0.2806  1.3041
16592TIP3   OH271190   1.817   3.248   5.983  0.1224  0.4011  0.3963
16592TIP3    H171191   1.907   3.276   5.967 -0.1128  0.5017 -0.8497
16592TIP3    H271192   1.772   3.261   5.899 -1.3723  1.5604  1.3209
16593TIP3   OH271193   5.952   2.442   4.261 -0.4824  0.1931  0.0968
16593TIP3    H171194   5.951   2.503   4.188  1.3887 -0.6047 -0.6612
16593TIP3    H271195   5.861   2.419   4.274 -0.8282 -0.2339 -2.5207
16594TIP3   OH271196   5.045   0.574  15.405  0.3371 -0.3712 -0.2023
16594TIP3    H171197   5.016   0.614  15.488  1.3690 -0.5364  0.2571
16594TIP3    H271198   4.966   0.536  15.368  0.1181 -1.7129  1.5075
16595TIP3   OH271199   5.893   6.167   0.734 -0.5821  0.4755 -0.0564
16595TIP3    H171200   5.821   6.125   0.782  0.0389  1.6160  1.9891
16595TIP3    H271201   5.854   6.246   0.698 -0.7122  0.3339 -0.2295
16596TIP3   OH271202   3.305   0.548   3.217  0.1404 -0.0754 -0.4261
16596TIP3    H171203   3.301   0.602   3.296 -0.6986 -0.2307 -0.3554
16596TIP3    H271204   3.289   0.609   3.145 -3.5549 -0.5564 -0.2009
16597TIP3   OH271205   0.881   1.368  16.117 -0.1100  0.4526 -0.1814
16597TIP3    H171206   0.836   1.284  16.123 -1.3659  0.8273 -2.9490
16597TIP3    H271207   0.819   1.431  16.153  1.3292  0.2059  3.1363
16598TIP3   OH271208   3.923   4.434  11.669  0.1052 -0.6152 -0.4177
16598TIP3    H171209   3.856   4.499  11.647 -0.6849 -1.5982 -1.0332
16598TIP3    H271210   3.965   4.468  11.747 -1.0092  0.1226 -0.1145
16599TIP3   OH271211   4.253   0.776   0.830  0.1757 -0.2246 -0.5087
16599TIP3    H171212   4.349   0.775   0.831  0.2482  2.0294  0.8004
16599TIP3    H271213   4.231   0.815   0.745  0.4041 -0.5624 -0.7278
16600TIP3   OH271214   5.961   2.783   0.195 -0.2450 -0.0175  0.0638
16600TIP3    H171215   5.961   2.856   0.257  2.6923  0.1808  0.0055
16600TIP3    H271216   5.949   2.825   0.110  0.9598  0.4038  0.0745
16601TIP3   OH271217   2.965   2.392  15.056  0.4161 -0.6285 -0.5208
16601TIP3    H171218   2.905   2.442  15.001 -0.6487 -1.2729  0.0303
16601TIP3    H271219   2.963   2.303  15.020  0.9065 -0.6986 -0.3835
16602TIP3   OH271220   4.105   5.909   2.379 -0.4553 -0.2481  0.3013
16602TIP3    H171221   4.181   5.851   2.392 -0.2637 -0.2743 -0.8281
16602TIP3    H271222   4.034   5.849   2.358 -0.2524 -0.0889 -0.8901
16603TIP3   OH271223   1.305   3.404  12.326  0.6951 -0.2376  0.0341
16603TIP3    H171224   1.359   3.427  12.250 -0.8412 -1.0636 -1.3818
16603TIP3    H271225   1.221   3.445  12.309  0.2857 -0.5080  1.2757
16604TIP3   OH271226   1.065   5.660  13.078 -0.4794 -0.0760  0.2019
16604TIP3    H171227   1.096   5.581  13.122 -0.9617 -1.5405 -1.9633
16604TIP3    H271228   0.971   5.648  13.071 -1.0475  2.1457  2.4807
16605TIP3   OH271229   5.983   4.368   1.329  0.0879  0.4926  0.4601
16605TIP3    H171230   5.991   4.276   1.355 -2.0838  0.0346 -0.2857
16605TIP3    H271231   6.013   4.369   1.237 -0.7246  0.3382  0.1872
16606TIP3   OH271232   5.085   6.365   5.202  0.0237  0.0404  0.5903
16606TIP3    H171233   5.164   6.325   5.240 -0.3090 -1.7940 -0.5388
16606TIP3    H271234   5.048   6.297   5.147 -2.0168  1.0958  0.5680
16607TIP3   OH271235   2.263   6.357  16.097 -0.7535  0.7781 -0.0569
16607TIP3    H171236   2.292   6.448  16.101  0.0215  0.5073  0.8567
16607TIP3    H271237   2.311   6.321  16.023  1.2277  0.3787  1.3431
16608TIP3   OH271238   3.408   0.383   0.386 -0.3667 -0.8070  0.5530
16608TIP3    H171239   3.497   0.395   0.354 -0.9553  2.9014 -0.1607
16608TIP3    H271240   3.417   0.321   0.459  2.5943 -1.3382 -0.1328
16609TIP3   OH271241   0.539   3.376  12.003 -0.4299 -0.0421  0.0960
16609TIP3    H171242   0.535   3.452  11.945 -1.1334 -0.6828 -0.7379
16609TIP3    H271243   0.516   3.410  12.089 -0.1730  0.7863 -0.1536
16610TIP3   OH271244   2.919   4.391  17.198  0.0292 -0.0973 -0.2831
16610TIP3    H171245   2.972   4.444  17.258 -1.3785 -0.3807  1.3036
16610TIP3    H271246   2.832   4.433  17.200 -0.1459 -0.3348 -1.8840
16611TIP3   OH271247   3.841   6.054  14.023  0.3634  0.5882  0.2412
16611TIP3    H171248   3.788   6.114  13.971 -0.3837  1.4854  1.9457
16611TIP3    H271249   3.778   5.995  14.064  0.7430  0.9461  1.4012
16612TIP3   OH271250   0.881   3.912  16.377 -0.0424  0.2345 -0.8793
16612TIP3    H171251   0.907   3.973  16.446 -0.6694 -1.1465  0.6476
16612TIP3    H271252   0.962   3.887  16.335  0.2092  2.2991 -1.7442
16613TIP3   OH271253   6.139   6.554   3.286 -0.4355 -0.7475  0.3509
16613TIP3    H171254   6.095   6.469   3.290 -0.9303 -0.5370 -0.5202
16613TIP3    H271255   6.213   6.540   3.226 -1.5266 -0.1354 -1.1937
16614TIP3   OH271256   4.252   1.062   1.457 -0.2194 -0.5197  0.6027
16614TIP3    H171257   4.200   1.127   1.504 -1.8865  0.1119 -1.9144
16614TIP3    H271258   4.188   1.011   1.408  1.3340 -1.8178 -0.1595
16615TIP3   OH271259   3.270   0.481  17.153 -0.5429  0.3202  0.6548
16615TIP3    H171260   3.306   0.542  17.217  0.9037  0.6302 -0.4134
16615TIP3    H271261   3.307   0.396  17.178 -0.5561  0.3131  0.6499
16616TIP3   OH271262   3.271   2.507   5.708  0.0083 -0.1986  0.3768
16616TIP3    H171263   3.227   2.530   5.790  0.9907 -1.1515  1.2072
16616TIP3    H271264   3.361   2.488   5.734  0.8731  1.4365 -1.2423
16617TIP3   OH271265   3.133   0.791   5.161 -0.1693  0.0206 -1.1049
16617TIP3    H171266   3.073   0.770   5.089 -0.1333  3.4187 -2.3429
16617TIP3    H271267   3.140   0.887   5.158  1.1709  0.1699  2.4160
16618TIP3   OH271268   3.809   3.817  16.908  0.5292  0.0441 -0.0784
16618TIP3    H171269   3.800   3.771  16.825  0.2114  2.9313 -1.7806
16618TIP3    H271270   3.738   3.784  16.963 -0.2584 -0.7556 -1.5417
16619TIP3   OH271271   3.155   2.294  11.786  0.1658  0.6892  0.0740
16619TIP3    H171272   3.224   2.347  11.747  1.0000 -0.5035 -0.1270
16619TIP3    H271273   3.141   2.223  11.724  0.2503 -0.2386  1.0751
16620TIP3   OH271274   0.959   0.882   4.923  0.1901  0.2206 -0.4501
16620TIP3    H171275   0.966   0.956   4.983  1.0793 -1.1512  1.2074
16620TIP3    H271276   0.923   0.811   4.976  2.3439 -1.4653 -1.1114
16621TIP3   OH271277   0.492   5.895  11.870  0.1328 -0.6208  0.1677
16621TIP3    H171278   0.453   5.813  11.840 -0.4464  0.1282 -1.2128
16621TIP3    H271279   0.553   5.920  11.800 -2.1518  1.7959 -1.1392
16622TIP3   OH271280   4.612   3.179   1.410 -0.3376 -0.5810  0.5327
16622TIP3    H171281   4.663   3.115   1.361 -0.2874  0.2786 -0.5747
16622TIP3    H271282   4.566   3.229   1.343  0.6351  1.3950  1.2556
16623TIP3   OH271283   6.580   1.212  11.927 -0.3464  0.1742 -0.2249
16623TIP3    H171284   6.523   1.204  11.850 -1.5783  1.7102  0.4843
16623TIP3    H271285   6.522   1.242  11.997  0.8130 -0.8716  1.2535
16624TIP3   OH271286   0.837   5.282   1.275  0.2667 -0.0251  0.2797
16624TIP3    H171287   0.773   5.287   1.204 -0.5491 -0.3205  0.9704
16624TIP3    H271288   0.787   5.305   1.353  0.7569 -1.2506  0.9815
16625TIP3   OH271289   0.132   5.193  17.056  0.3794 -0.5528  0.0561
16625TIP3    H171290   0.046   5.165  17.025  0.0417  0.6081 -0.1231
16625TIP3    H271291   0.176   5.226  16.977  0.2356  0.6585  0.4664
16626TIP3   OH271292   5.128   2.869   2.101  0.7436 -0.1604  0.1374
16626TIP3    H171293   5.192   2.934   2.128  0.8380  0.1149 -0.6984
16626TIP3    H271294   5.084   2.843   2.181 -0.7454  2.4670  0.2735
16627TIP3   OH271295   5.617   2.746   3.611 -0.0124 -0.2442  0.2694
16627TIP3    H171296   5.596   2.677   3.549 -0.3155 -1.7125  1.9306
16627TIP3    H271297   5.538   2.756   3.664  0.5046  0.4113  0.9441
16628TIP3   OH271298   2.845   4.962   5.906 -0.1851  0.2247 -0.5161
16628TIP3    H171299   2.831   4.993   5.995  0.4300  0.1315 -0.3814
16628TIP3    H271300   2.773   4.900   5.891 -1.0997  1.2678 -0.5979
16629TIP3   OH271301   2.865   0.592   2.014 -0.3462  0.0280  0.4060
16629TIP3    H171302   2.805   0.521   2.038 -0.2610 -0.1443  0.1143
16629TIP3    H271303   2.922   0.600   2.091 -0.5522 -0.0072  0.5662
16630TIP3   OH271304   0.465   5.720   6.257  0.4226  0.3630  0.3376
16630TIP3    H171305   0.517   5.769   6.193 -0.6682  1.7619  0.4723
16630TIP3    H271306   0.457   5.779   6.331  1.2345 -1.0485  1.5932
16631TIP3   OH271307   0.589   1.096  15.509  0.1996  0.1446 -0.9265
16631TIP3    H171308   0.578   1.191  15.503 -0.7310  0.0943 -0.2680
16631TIP3    H271309   0.536   1.071  15.585  0.2761 -0.9259 -1.2138
16632TIP3   OH271310   4.722   0.117  14.864 -0.0425  0.3975 -0.3803
16632TIP3    H171311   4.759   0.155  14.944 -0.6386  0.5139 -0.1567
16632TIP3    H271312   4.696   0.193  14.812 -0.5423  0.3058 -0.2643
16633TIP3   OH271313   2.430   6.702   2.248  0.2873  0.3897 -0.4091
16633TIP3    H171314   2.510   6.722   2.297 -0.1171 -0.1907  0.5173
16633TIP3    H271315   2.359   6.731   2.305 -0.2288 -1.3721 -0.0773
16634TIP3   OH271316   2.386   0.488  14.863 -0.0234 -0.2152 -0.2532
16634TIP3    H171317   2.351   0.530  14.941 -0.4747 -0.3899 -0.3600
16634TIP3    H271318   2.473   0.456  14.889 -0.3112 -0.5719  0.2761
16635TIP3   OH271319   4.262   5.316   3.013 -0.4072 -0.2372 -0.2745
16635TIP3    H171320   4.263   5.268   3.096  0.2967  1.2803  0.6501
16635TIP3    H271321   4.254   5.408   3.039  3.9625  0.7425 -1.5964
16636TIP3   OH271322   3.800   2.197  14.402 -0.0564 -0.3348 -0.2708
16636TIP3    H171323   3.875   2.148  14.438 -0.8088 -1.0041  0.4307
16636TIP3    H271324   3.838   2.251  14.333  1.0537 -0.7770 -0.0346
16637TIP3   OH271325   1.762   5.550   3.404  0.3260 -0.3148  0.1819
16637TIP3    H171326   1.687   5.495   3.428  0.8958 -0.2893  2.2161
16637TIP3    H271327   1.772   5.537   3.310 -1.2612 -1.5364  0.1370
16638TIP3   OH271328   2.369   3.643  12.937  0.1365  0.0463  0.0317
16638TIP3    H171329   2.427   3.707  12.978 -1.2289  1.2987  0.0816
16638TIP3    H271330   2.421   3.605  12.866  1.8615 -0.7178  1.6152
16639TIP3   OH271331   0.343   2.630  11.955  0.1933 -0.8285  0.5561
16639TIP3    H171332   0.312   2.655  11.868  1.5593  1.0819  0.5501
16639TIP3    H271333   0.402   2.556  11.940 -0.0097 -0.8645 -0.0816
16640TIP3   OH271334   5.891   5.547   6.180  0.0127 -0.4330 -0.4954
16640TIP3    H171335   5.924   5.470   6.227  0.0026 -0.6276 -0.8033
16640TIP3    H271336   5.962   5.611   6.186  0.1870 -0.6168 -0.5967
16641TIP3   OH271337   3.207   0.700  12.277  0.5679 -0.5040  0.7525
16641TIP3    H171338   3.259   0.654  12.343 -1.2272 -2.0129  1.2193
16641TIP3    H271339   3.122   0.713  12.319 -0.8586 -2.1379 -1.4269
16642TIP3   OH271340   3.321   1.676   0.668 -0.2412 -0.5616 -0.0318
16642TIP3    H171341   3.275   1.637   0.742 -1.7036  0.0548 -0.5685
16642TIP3    H271342   3.268   1.654   0.591  1.3679 -1.3871 -0.9586
16643TIP3   OH271343   0.389   1.486   1.548 -0.1133 -0.1975 -0.3039
16643TIP3    H171344   0.381   1.423   1.620 -0.0942 -0.3417 -0.4279
16643TIP3    H271345   0.391   1.433   1.469  2.0648 -0.2172 -0.3006
16644TIP3   OH271346   5.360   0.862  13.497  0.1870  0.9650  0.2273
16644TIP3    H171347   5.325   0.946  13.527  1.2651  1.6764 -0.4501
16644TIP3    H271348   5.337   0.858  13.404  0.2930  0.5833  0.2152
16645TIP3   OH271349   5.167   5.514  16.007  0.5937  0.0326  0.4163
16645TIP3    H171350   5.160   5.418  16.011  2.2744 -0.1032  0.8402
16645TIP3    H271351   5.175   5.541  16.098 -2.7606  0.9022  0.5643
16646TIP3   OH271352   6.385   5.449  11.417 -0.6281 -0.2249  0.3042
16646TIP3    H171353   6.303   5.429  11.371 -0.7673 -0.9212  0.8427
16646TIP3    H271354   6.357   5.498  11.494 -0.5337 -0.3416  0.4138
16647TIP3   OH271355   6.002   4.983  15.641 -0.1023  0.6618 -0.4618
16647TIP3    H171356   6.012   5.031  15.723 -1.5791 -0.3566  0.3639
16647TIP3    H271357   6.008   4.891  15.665 -1.5956  0.2997 -1.2885
16648TIP3   OH271358   3.425   4.348  11.389 -0.1365  0.4187  0.3986
16648TIP3    H171359   3.435   4.264  11.344  0.0294  0.9276 -0.5470
16648TIP3    H271360   3.492   4.348  11.458  0.3643  0.0822 -0.0831
16649TIP3   OH271361   1.097   1.816   0.909 -0.2344  0.2725  0.0828
16649TIP3    H171362   1.081   1.783   0.821  0.4431 -1.9220  0.7195
16649TIP3    H271363   1.065   1.746   0.967  1.9506  0.3549  1.5135
16650TIP3   OH271364   1.205   4.955  11.818  0.1178 -0.1729 -0.5226
16650TIP3    H171365   1.269   5.023  11.796  1.0264 -0.7123  0.3815
16650TIP3    H271366   1.136   5.002  11.865  0.7140  0.1483  0.0526
16651TIP3   OH271367   5.550   1.326  14.352  0.2425 -0.2383 -0.5052
16651TIP3    H171368   5.491   1.314  14.277  1.4685  0.0052 -1.5525
16651TIP3    H271369   5.495   1.310  14.429 -1.4487  0.9394 -1.3817
16652TIP3   OH271370   2.451   4.811   5.303  0.5442  0.1800 -0.3437
16652TIP3    H171371   2.407   4.727   5.317  2.1324 -0.4697  1.1571
16652TIP3    H271372   2.407   4.872   5.361  0.6338 -0.1088  0.0354
16653TIP3   OH271373   4.825   0.769  13.897 -0.2376 -0.1903 -0.2049
16653TIP3    H171374   4.893   0.836  13.906 -0.5092  0.4446 -2.3264
16653TIP3    H271375   4.754   0.800  13.953  0.4322  0.1961  0.4543
16654TIP3   OH271376   3.499   3.267   6.027  0.3839 -0.6500 -0.1500
16654TIP3    H171377   3.552   3.329   5.977  0.4299 -4.5615 -5.9827
16654TIP3    H271378   3.412   3.307   6.031  0.9291  0.7964 -1.6168
16655TIP3   OH271379   4.392   5.021  13.759 -1.0349 -0.0671  0.5043
16655TIP3    H171380   4.470   5.009  13.813  1.0037  2.3251 -1.6949
16655TIP3    H271381   4.357   5.105  13.788 -0.8032  0.4967 -0.8194
16656TIP3   OH271382   0.659   4.011   4.498 -0.3435 -0.1065 -0.6982
16656TIP3    H171383   0.688   3.929   4.460  0.4670  0.1140 -0.5825
16656TIP3    H271384   0.711   4.078   4.454 -0.1980  0.2442 -0.0136
16657TIP3   OH271385   6.239   5.350   4.877  0.2249 -0.2882  0.5342
16657TIP3    H171386   6.287   5.419   4.833 -1.2420  0.8253  0.6081
16657TIP3    H271387   6.169   5.395   4.923  0.3981 -1.6262  2.2299
16658TIP3   OH271388   3.195   3.367  13.104 -0.1004 -0.3631  0.2675
16658TIP3    H171389   3.136   3.304  13.144  0.9095 -2.0874 -0.8594
16658TIP3    H271390   3.248   3.316  13.044 -0.6084  1.8992 -2.2708
16659TIP3   OH271391   4.520   3.220   5.235 -0.2415  0.0600 -0.2198
16659TIP3    H171392   4.466   3.174   5.300 -0.9459  0.3972 -0.5516
16659TIP3    H271393   4.478   3.306   5.226  2.4603  1.7975  2.2515
16660TIP3   OH271394   4.239   5.019   2.301  0.3047 -0.2176 -0.1589
16660TIP3    H171395   4.197   5.063   2.228  0.3380 -0.3075 -0.2331
16660TIP3    H271396   4.170   4.965   2.340  0.6150 -1.2319 -0.9646
16661TIP3   OH271397   1.688   3.958  17.144  0.4474  0.3818  0.0749
16661TIP3    H171398   1.634   4.036  17.158 -0.3434 -0.4983  2.4562
16661TIP3    H271399   1.638   3.887  17.185  1.7084 -1.1747 -0.9624
16662TIP3   OH271400   5.892   5.925   0.212  0.0489  0.4216  0.1778
16662TIP3    H171401   5.862   5.837   0.191  1.1807  0.3635 -1.3868
16662TIP3    H271402   5.979   5.912   0.250  0.3938  0.8760 -0.4412
16663TIP3   OH271403   5.336   0.092   5.330  0.0723  0.0792  0.4171
16663TIP3    H171404   5.290   0.008   5.341 -1.5853  0.7363 -0.9015
16663TIP3    H271405   5.332   0.108   5.235 -1.0154  2.3572  0.7906
16664TIP3   OH271406   5.679   0.501  12.237  0.5234 -0.0228  0.8102
16664TIP3    H171407   5.709   0.591  12.248  1.0435  0.0136 -0.6766
16664TIP3    H271408   5.756   0.447  12.255  0.6018 -0.0995  0.2395
16665TIP3   OH271409   1.715   1.612  16.473 -0.3086  0.0940  0.6945
16665TIP3    H171410   1.671   1.557  16.408  0.4725  0.8279 -0.4796
16665TIP3    H271411   1.682   1.580  16.557 -2.2678 -0.0674 -0.0886
16666TIP3   OH271412   5.804   6.263  14.899  0.6233  1.2753  0.1768
16666TIP3    H171413   5.775   6.174  14.920 -0.3428  1.4031 -0.5598
16666TIP3    H271414   5.897   6.254  14.877  0.5975  0.4983  0.3575
16667TIP3   OH271415   3.899   5.112   2.677 -0.1031  0.4518 -0.4386
16667TIP3    H171416   3.982   5.124   2.630 -0.3841  2.8163 -0.4177
16667TIP3    H271417   3.906   5.170   2.753 -1.7631  0.6501 -0.4062
16668TIP3   OH271418   2.994   0.750  16.021  0.5553  0.3577 -0.1127
16668TIP3    H171419   2.984   0.681  15.955  0.2287  1.1712 -0.9354
16668TIP3    H271420   2.906   0.788  16.029  0.9913  1.4874 -0.5743
16669TIP3   OH271421   5.174   1.444   1.289 -0.5321  0.3232  0.0405
16669TIP3    H171422   5.152   1.352   1.304 -0.0939  0.3621  0.9871
16669TIP3    H271423   5.091   1.490   1.296 -0.6761  0.0585  0.0719
16670TIP3   OH271424   0.248   1.987   3.449  0.1289  0.5208 -0.4299
16670TIP3    H171425   0.155   1.988   3.473  0.3523 -2.0158  0.8382
16670TIP3    H271426   0.287   2.057   3.502 -0.9416  1.3406 -0.6776
16671TIP3   OH271427   3.694   0.034  12.957  0.3176 -0.6147 -0.2344
16671TIP3    H171428   3.673  -0.007  13.040  0.8201 -0.3754  0.0147
16671TIP3    H271429   3.742  -0.033  12.908  3.1131  0.2906  1.0168
16672TIP3   OH271430   3.668   5.281   4.301 -0.1531 -0.0278 -0.5136
16672TIP3    H171431   3.603   5.211   4.306 -2.3826  1.9919  3.2898
16672TIP3    H271432   3.687   5.289   4.207 -2.4525 -3.2719 -1.4333
16673TIP3   OH271433   6.279   3.007  17.005 -0.0396 -0.2651  0.2340
16673TIP3    H171434   6.260   2.926  16.957  0.7838 -1.5328  1.9268
16673TIP3    H271435   6.372   3.001  17.026  0.3651  1.7933 -0.7171
16674TIP3   OH271436   6.076   0.670  13.286  0.0992 -0.1869 -0.2237
16674TIP3    H171437   6.166   0.652  13.259  0.6723  1.5309  0.3986
16674TIP3    H271438   6.068   0.631  13.373  0.3728 -0.0214 -0.1233
16675TIP3   OH271439   6.156   5.537   5.502  0.0354  0.5102 -0.0189
16675TIP3    H171440   6.216   5.577   5.439  0.6417 -0.1956  0.0950
16675TIP3    H271441   6.131   5.609   5.560 -1.7557  1.5326 -1.9481
16676TIP3   OH271442   2.182   1.062   6.437  0.2623  0.1024 -0.6768
16676TIP3    H171443   2.174   1.148   6.479 -2.4563 -0.3317 -0.1062
16676TIP3    H271444   2.097   1.021   6.451  1.1250 -2.2761 -1.8936
16677TIP3   OH271445   4.048   3.250   0.396  0.1768  0.3267 -0.0306
16677TIP3    H171446   4.053   3.255   0.301  1.0392  0.3454  0.0082
16677TIP3    H271447   4.095   3.327   0.427  0.9965 -0.3351  0.4163
16678TIP3   OH271448   3.532   0.958  14.645 -0.6092  0.2566 -0.4308
16678TIP3    H171449   3.529   1.034  14.702 -1.1435  0.8546 -1.2300
16678TIP3    H271450   3.603   0.904  14.679 -0.3681  1.0092  0.2730
16679TIP3   OH271451   2.061   3.244  15.359  0.4906  0.3663  0.2440
16679TIP3    H171452   2.080   3.225  15.267  1.9097  1.6104  0.2487
16679TIP3    H271453   1.992   3.310  15.355  0.6626  0.5369  0.0702
16680TIP3   OH271454   5.464   0.599  17.156 -0.3394  0.4142 -0.0942
16680TIP3    H171455   5.393   0.577  17.216 -2.6631  2.2631 -1.9259
16680TIP3    H271456   5.447   0.546  17.078 -0.5252  1.7869 -1.0322
16681TIP3   OH271457   5.507   0.155  16.789  0.3235  0.2011  0.2765
16681TIP3    H171458   5.465   0.149  16.703  0.9626  1.6720 -0.1753
16681TIP3    H271459   5.578   0.091  16.785  0.5523  0.4913 -0.4185
16682TIP3   OH271460   0.814   1.986   0.829  0.0480 -0.4825 -0.2456
16682TIP3    H171461   0.745   1.968   0.892  0.3311 -0.9586 -0.0692
16682TIP3    H271462   0.894   1.996   0.882  0.4249 -1.6174 -0.5657
16683TIP3   OH271463   3.284   0.053  15.167  0.1593 -0.1906  0.0466
16683TIP3    H171464   3.336   0.092  15.097 -0.2858  2.1029  0.9218
16683TIP3    H271465   3.238  -0.020  15.125  2.3945 -0.9667 -1.2370
16684TIP3   OH271466   0.679   3.057  14.043  0.5307 -0.6860  0.4283
16684TIP3    H171467   0.643   3.140  14.073  0.3354 -0.9362  0.9047
16684TIP3    H271468   0.710   3.074  13.954  0.2717 -0.1708  0.4355
16685TIP3   OH271469   3.061   2.803   4.754  0.5308 -0.1233  0.4635
16685TIP3    H171470   3.084   2.738   4.687 -3.6547  0.1690 -1.6100
16685TIP3    H271471   3.069   2.887   4.709  0.5791  0.3362  1.3240
16686TIP3   OH271472   2.568   1.029   3.528  0.2818 -0.2107 -0.1213
16686TIP3    H171473   2.525   1.044   3.612 -0.9142 -3.2351 -0.0834
16686TIP3    H271474   2.514   1.075   3.464 -1.3763 -1.5349  0.2797
16687TIP3   OH271475   0.702   0.867  13.948  0.0820 -0.1968 -0.1531
16687TIP3    H171476   0.655   0.819  13.880 -0.7164 -0.9576  0.9021
16687TIP3    H271477   0.636   0.884  14.016  1.1895 -0.8243  1.1257
16688TIP3   OH271478   5.397   6.370   2.652  0.7529  0.3463  0.4486
16688TIP3    H171479   5.308   6.351   2.623  1.0083 -2.7494  1.4070
16688TIP3    H271480   5.441   6.404   2.574 -1.2498  2.1499  0.0089
16689TIP3   OH271481   2.792   1.369  13.968 -0.2018  0.1719  0.1656
16689TIP3    H171482   2.797   1.318  14.049 -1.5900  1.2850  0.9983
16689TIP3    H271483   2.836   1.314  13.903 -0.2340 -1.3587  1.3708
16690TIP3   OH271484   3.141   5.814   1.461  0.0917 -0.2542  0.1770
16690TIP3    H171485   3.070   5.816   1.525  0.9995  0.2826  1.2049
16690TIP3    H271486   3.197   5.887   1.486 -0.4016  1.0755 -2.2870
16691TIP3   OH271487   1.586   4.654   2.399 -0.8277  0.2243  0.9016
16691TIP3    H171488   1.589   4.717   2.327 -1.4261  2.1544  2.4447
16691TIP3    H271489   1.601   4.569   2.358  0.8493  1.4315 -1.1904
16692TIP3   OH271490   3.177   3.001   0.289  0.1949 -0.7101  0.4343
16692TIP3    H171491   3.204   2.913   0.265 -0.3317 -0.6988 -0.2203
16692TIP3    H271492   3.084   3.006   0.266  1.1524  1.4554 -4.0601
16693TIP3   OH271493   2.166   2.481  15.570 -0.0379 -0.3935 -0.7244
16693TIP3    H171494   2.090   2.496  15.514 -0.7485 -0.9431  0.0739
16693TIP3    H271495   2.145   2.526  15.652 -0.4463 -2.2922  0.2528
16694TIP3   OH271496   4.656   4.529  14.374  0.1883 -0.2520  0.4175
16694TIP3    H171497   4.711   4.525  14.296  1.5393  0.8392  1.2756
16694TIP3    H271498   4.593   4.598  14.355  0.7178  0.2332  0.4136
16695TIP3   OH271499   4.518   3.961  11.067  0.2077 -0.0974  0.7668
16695TIP3    H171500   4.551   4.048  11.045  0.9510  0.1656  2.7004
16695TIP3    H271501   4.466   3.935  10.992 -0.3944  2.2042  0.3207
16696TIP3   OH271502   5.304   4.786   5.722  0.2772 -0.1777 -0.5374
16696TIP3    H171503   5.216   4.756   5.746 -0.1517 -0.2181 -2.0500
16696TIP3    H271504   5.358   4.707   5.725  0.4790 -0.0192  1.1735
16697TIP3   OH271505   0.964   0.812   3.956  0.1575  0.6926  0.1237
16697TIP3    H171506   0.949   0.827   3.863 -0.6595 -0.5588  0.0285
16697TIP3    H271507   0.877   0.817   3.996  0.3264 -0.0998  0.6110
16698TIP3   OH271508   0.405   5.353   0.308 -0.7182  0.4323  0.0256
16698TIP3    H171509   0.360   5.276   0.345  0.0900  0.2252  0.6011
16698TIP3    H271510   0.339   5.422   0.308 -0.6302  0.5779  2.3257
16699TIP3   OH271511   1.372   6.215   3.429 -0.5169  0.0633 -0.5444
16699TIP3    H171512   1.430   6.205   3.354  1.7693  0.3148  1.0789
16699TIP3    H271513   1.301   6.271   3.397  0.4227  0.2484 -2.4670
16700TIP3   OH271514   2.775   5.490  15.320  0.0630 -0.0276  0.1569
16700TIP3    H171515   2.846   5.434  15.350 -2.0179 -1.7394  2.2219
16700TIP3    H271516   2.749   5.540  15.397 -1.1310  0.3753 -0.4746
16701TIP3   OH271517   6.020   3.742  12.665  0.8233  0.2665 -0.0070
16701TIP3    H171518   5.957   3.699  12.607  1.7738 -0.0694 -0.8258
16701TIP3    H271519   6.095   3.760  12.609  2.4483 -1.5562  1.4801
16702TIP3   OH271520   4.421   3.433   3.320  0.2725  0.0275 -0.4193
16702TIP3    H171521   4.375   3.396   3.396 -0.3025 -1.0336 -1.2665
16702TIP3    H271522   4.357   3.490   3.278  0.7156  0.9246  0.0947
16703TIP3   OH271523   4.985   5.580  17.135 -0.4127  0.4067 -0.0205
16703TIP3    H171524   4.904   5.537  17.107 -0.3624  0.3648 -0.0986
16703TIP3    H271525   4.966   5.674  17.126 -1.4486  0.5451  2.5527
16704TIP3   OH271526   6.208   4.145  12.932 -0.9540 -0.2386 -0.1997
16704TIP3    H171527   6.150   4.147  13.008 -1.1728 -1.0384 -0.3318
16704TIP3    H271528   6.166   4.202  12.868 -2.1782 -1.5937 -0.6785
16705TIP3   OH271529   0.179   2.424   6.620 -0.0853  0.1229 -0.0477
16705TIP3    H171530   0.208   2.456   6.705  1.1531  1.4246 -0.9245
16705TIP3    H271531   0.234   2.348   6.603 -0.3491 -0.1526  0.3042
16706TIP3   OH271532   2.609   5.722   0.337  0.1995  0.3750  0.1496
16706TIP3    H171533   2.649   5.746   0.254  0.3574 -0.3011  0.0289
16706TIP3    H271534   2.662   5.649   0.369  0.1678  0.6610  0.8658
16707TIP3   OH271535   0.422   6.681   2.693  0.2642 -0.1455 -0.1218
16707TIP3    H171536   0.333   6.656   2.669  0.5284 -0.2174 -1.0596
16707TIP3    H271537   0.476   6.652   2.620  1.4351 -2.3431  1.4679
16708TIP3   OH271538   5.774   1.298   5.184  0.0194  0.7000  0.5729
16708TIP3    H171539   5.680   1.309   5.199 -0.0890 -0.9437  1.3907
16708TIP3    H271540   5.815   1.340   5.260 -0.2126 -0.9500  1.6701
16709TIP3   OH271541   0.758   5.506   5.669 -0.3499 -0.2999 -0.2395
16709TIP3    H171542   0.755   5.458   5.752 -0.9113  0.8539  0.4220
16709TIP3    H271543   0.813   5.451   5.613 -1.6513 -2.1526  0.1929
16710TIP3   OH271544   6.503   6.219  13.096  0.1099 -0.2952 -0.0819
16710TIP3    H171545   6.412   6.192  13.111 -0.2979  1.3401  0.5824
16710TIP3    H271546   6.509   6.231  13.001 -0.4261 -0.2164 -0.1101
16711TIP3   OH271547   0.738   0.262  16.399 -0.2259 -0.1338  0.1290
16711TIP3    H171548   0.713   0.266  16.491 -2.0745 -2.7959 -0.1139
16711TIP3    H271549   0.682   0.327  16.356  0.1602  0.6432  0.7907
16712TIP3   OH271550   1.496   5.938  13.149  0.3360  0.0909 -0.1519
16712TIP3    H171551   1.532   6.012  13.197 -0.8505 -0.1570  1.1910
16712TIP3    H271552   1.401   5.946  13.159  0.0399 -0.0694 -2.3699
16713TIP3   OH271553   5.502   0.036  11.178  0.2474  0.4800  0.0959
16713TIP3    H171554   5.590   0.006  11.197 -0.2154  0.1367  1.8063
16713TIP3    H271555   5.513   0.099  11.107  1.9608  1.0953  0.8630
16714TIP3   OH271556   5.506   6.053  13.945  0.5274 -0.3137 -0.3823
16714TIP3    H171557   5.458   6.134  13.930 -0.3903 -0.5071  1.2170
16714TIP3    H271558   5.595   6.071  13.916 -0.2598  0.3704 -2.5452
16715TIP3   OH271559   5.367   2.540   1.134  0.2745 -0.4098  0.3793
16715TIP3    H171560   5.399   2.471   1.191  0.4844 -0.8419 -0.2566
16715TIP3    H271561   5.405   2.521   1.049  1.8944  1.5496  0.5965
16716TIP3   OH271562   2.503   6.520   4.938 -0.1486 -0.3572 -0.4554
16716TIP3    H171563   2.472   6.463   5.008  1.0574  1.1142  1.3478
16716TIP3    H271564   2.548   6.591   4.982  1.1614  0.3601 -2.7553
16717TIP3   OH271565   5.781   5.472   1.648 -0.0916  0.1496  0.0100
16717TIP3    H171566   5.856   5.426   1.686  0.3366  2.2019  1.9243
16717TIP3    H271567   5.817   5.556   1.618 -0.9236 -0.4136 -2.8269
16718TIP3   OH271568   4.936   6.227   2.385 -0.2094 -0.2161  0.2925
16718TIP3    H171569   4.882   6.263   2.456  1.4429 -1.9063  2.5536
16718TIP3    H271570   4.890   6.149   2.357  0.5255 -1.1593  1.5986
16719TIP3   OH271571   0.072   3.575  16.609  0.0446 -0.7482 -0.0068
16719TIP3    H171572   0.039   3.618  16.530  2.3413  1.4289  0.0691
16719TIP3    H271573   0.102   3.489  16.579 -0.7000 -0.6283 -1.1284
16720TIP3   OH271574   0.207   3.313  15.386  0.1743 -0.6634 -0.2003
16720TIP3    H171575   0.246   3.372  15.449 -1.1568 -0.7792  0.7749
16720TIP3    H271576   0.139   3.267  15.435  0.1987 -1.9468 -1.3062
16721TIP3   OH271577   0.563   0.124  17.130  0.2157  0.2116  0.0313
16721TIP3    H171578   0.535   0.073  17.054 -2.5071  0.4455  0.7679
16721TIP3    H271579   0.651   0.155  17.108  0.0431 -0.8640 -2.4176
16722TIP3   OH271580   6.583   5.119  15.401 -0.3675  0.0677  0.0898
16722TIP3    H171581   6.604   5.200  15.447  0.8121 -0.2225  0.1047
16722TIP3    H271582   6.517   5.144  15.336  1.0170  1.3569 -0.8925
16723TIP3   OH271583   1.330   6.589   4.253 -0.0760  0.1235 -0.5556
16723TIP3    H171584   1.277   6.535   4.193 -1.0363 -0.6588  0.9441
16723TIP3    H271585   1.305   6.560   4.340  2.0500  0.5043  0.2498
16724TIP3   OH271586   3.355   0.943  13.209  0.1794  0.0626  0.0460
16724TIP3    H171587   3.389   0.883  13.142 -0.2664  0.7826 -0.8599
16724TIP3    H271588   3.263   0.919  13.218  0.4541 -0.6353  1.0944
16725TIP3   OH271589   5.771   2.639   0.927 -0.0551 -0.5467  0.7954
16725TIP3    H171590   5.843   2.670   0.872 -1.0843 -0.7242 -0.6998
16725TIP3    H271591   5.738   2.718   0.970 -0.3835 -0.1131 -0.2346
16726TIP3   OH271592   3.022   1.822  15.099 -0.2337  0.2700  0.5686
16726TIP3    H171593   3.038   1.728  15.097 -0.0455  0.2988  0.7447
16726TIP3    H271594   3.103   1.861  15.065  0.2246  0.4317  1.7963
16727TIP3   OH271595   0.717   5.196   5.465  0.3573 -0.6302  0.2305
16727TIP3    H171596   0.698   5.249   5.387  1.3639 -0.9514 -0.2438
16727TIP3    H271597   0.805   5.161   5.450 -0.0966 -2.0691  0.7401
16728TIP3   OH271598   1.609   2.446   0.543  0.4369  0.1826 -0.3108
16728TIP3    H171599   1.676   2.387   0.577 -0.2594 -1.0754 -1.0306
16728TIP3    H271600   1.628   2.531   0.582  0.5623 -0.8470  1.9871
16729TIP3   OH271601   2.838   1.744  16.324  0.3206  0.1884  0.9716
16729TIP3    H171602   2.781   1.783  16.257  0.1732 -2.7344 -0.8162
16729TIP3    H271603   2.921   1.729  16.279  0.5583 -0.8968  1.7254
16730TIP3   OH271604   5.825   1.697   0.119  0.3668 -0.1328 -0.0429
16730TIP3    H171605   5.837   1.691   0.214 -1.3954 -0.0392  0.2255
16730TIP3    H271606   5.898   1.751   0.088 -0.2787  1.8418  1.6087
16731TIP3   OH271607   6.543   2.278   0.501 -0.5643 -0.0895 -1.1030
16731TIP3    H171608   6.581   2.322   0.577 -0.1146 -1.6882 -0.3498
16731TIP3    H271609   6.463   2.327   0.482  0.0330  1.1698 -0.4770
16732TIP3   OH271610   0.691   2.399   4.726  0.2282 -0.0498 -0.2882
16732TIP3    H171611   0.778   2.364   4.707  0.4772  1.4932 -2.5008
16732TIP3    H271612   0.686   2.479   4.674 -2.9374 -0.6661 -1.1723
16733TIP3   OH271613   4.883   0.328  15.524 -0.2224  0.2014  0.1351
16733TIP3    H171614   4.792   0.307  15.506 -0.0769 -0.6707  0.3678
16733TIP3    H271615   4.879   0.406  15.579 -0.7849  0.7657 -0.6788
16734TIP3   OH271616   5.257   0.930   1.393  0.0392  0.0374 -0.0178
16734TIP3    H171617   5.210   0.847   1.389 -0.8258  0.4460  1.1483
16734TIP3    H271618   5.234   0.975   1.312  0.2628 -0.7216 -0.5087
16735TIP3   OH271619   6.049   0.461   4.233 -0.2173  0.1498  0.1942
16735TIP3    H171620   6.032   0.533   4.173 -0.3626  0.8872  1.0914
16735TIP3    H271621   6.039   0.382   4.180  0.2219  0.7892 -0.8801
16736TIP3   OH271622   2.705   4.030  16.535 -0.2842  0.0106  0.3869
16736TIP3    H171623   2.647   4.022  16.611 -1.2285  1.2204 -0.1530
16736TIP3    H271624   2.679   3.958  16.477 -2.3870  1.3884 -0.5164
16737TIP3   OH271625   2.279   5.862   2.352  0.9761  0.8093  0.5917
16737TIP3    H171626   2.241   5.858   2.440 -1.2116  0.6531 -0.3005
16737TIP3    H271627   2.316   5.776   2.337 -1.6040 -0.3387  0.1930
16738TIP3   OH271628   4.912   1.060   5.927  0.6809 -0.7452 -0.5323
16738TIP3    H171629   4.961   0.985   5.962  0.2133 -1.5031 -1.4491
16738TIP3    H271630   4.944   1.070   5.838  1.3151  0.6860 -0.1678
16739TIP3   OH271631   3.553   5.494  14.141 -0.3667  0.2371 -0.0715
16739TIP3    H171632   3.463   5.502  14.171 -0.4219  0.8233 -0.3801
16739TIP3    H271633   3.578   5.582  14.114  0.8105  0.4055  1.4265
16740TIP3   OH271634   2.631   6.544  12.041  0.2441  0.5211  0.4519
16740TIP3    H171635   2.627   6.565  12.135  0.4729 -1.2423  0.8938
16740TIP3    H271636   2.721   6.566  12.016  0.4407  0.1952  0.8564
16741TIP3   OH271637   4.748   1.023   1.708 -0.0756  0.0020 -0.3578
16741TIP3    H171638   4.690   0.972   1.652 -0.1614  1.1829 -1.3734
16741TIP3    H271639   4.723   0.998   1.797 -0.1193 -1.6882 -0.8182
16742TIP3   OH271640   1.631   5.015   3.648 -0.2248 -0.4100 -0.3459
16742TIP3    H171641   1.720   4.981   3.661 -0.6717 -1.6457 -0.3411
16742TIP3    H271642   1.579   4.970   3.714 -0.8404  0.3765 -0.2928
16743TIP3   OH271643   6.119   2.613  13.650 -0.1090  0.2893 -0.5149
16743TIP3    H171644   6.082   2.689  13.694 -0.3147 -0.8080  1.3097
16743TIP3    H271645   6.146   2.555  13.722 -1.6429 -2.1714 -1.8081
16744TIP3   OH271646   5.632   3.335  13.363 -0.7128 -0.2702 -0.0814
16744TIP3    H171647   5.675   3.414  13.394 -0.0531 -0.4533 -0.5275
16744TIP3    H271648   5.621   3.281  13.442  2.7510 -1.6000 -0.3554
16745TIP3   OH271649   6.486   4.117  15.978  0.5360 -0.0611 -0.1215
16745TIP3    H171650   6.455   4.110  16.069  1.0842  2.0870  0.2793
16745TIP3    H271651   6.555   4.183  15.982  1.1696 -0.5668 -1.9875
16746TIP3   OH271652   0.109   4.102   0.102  0.3406 -0.1707  0.5709
16746TIP3    H171653   0.088   4.117   0.009 -2.8145  0.4442  1.2877
16746TIP3    H271654   0.096   4.008   0.114 -0.2746 -0.0813  0.6158
16747TIP3   OH271655   2.409   3.136   3.692  0.1940 -0.3622  0.0745
16747TIP3    H171656   2.388   3.089   3.611  0.2235  0.0493 -0.1738
16747TIP3    H271657   2.481   3.085   3.731 -0.0789 -0.7784  0.0417
16748TIP3   OH271658   3.180   1.424  17.016  0.1153  0.3082  0.2206
16748TIP3    H171659   3.110   1.376  16.972  0.1144 -0.3264  0.8934
16748TIP3    H271660   3.231   1.356  17.060  0.1407  0.9151  1.1503
16749TIP3   OH271661   3.274   2.637   5.461 -0.3540 -0.1434 -0.0381
16749TIP3    H171662   3.181   2.615   5.462 -0.3975  0.0529  0.4332
16749TIP3    H271663   3.310   2.595   5.539 -0.0430 -0.2382 -0.2319
16750TIP3   OH271664   4.124   5.245   3.335  0.1240  0.3552 -0.3822
16750TIP3    H171665   4.078   5.199   3.405 -0.4007 -0.6155 -1.3438
16750TIP3    H271666   4.056   5.295   3.290  0.4678  1.0050 -0.2060
16751TIP3   OH271667   0.164   3.337  16.541  0.3080 -0.2482 -0.5826
16751TIP3    H171668   0.256   3.331  16.567 -0.0745 -1.4336  0.5912
16751TIP3    H271669   0.157   3.277  16.466  0.0577 -1.8626  0.6888
16752TIP3   OH271670   3.739   4.545   2.272 -0.3311  0.2194 -0.2685
16752TIP3    H171671   3.716   4.509   2.186 -0.4949  1.3712 -0.7385
16752TIP3    H271672   3.669   4.607   2.291  0.8675  1.6662 -0.3840
16753TIP3   OH271673   2.226   0.961   2.296 -0.7954 -0.2715  0.4914
16753TIP3    H171674   2.310   0.960   2.248 -0.1780  1.0727  1.4975
16753TIP3    H271675   2.161   0.941   2.229  0.1402  0.6020 -0.7385
16754TIP3   OH271676   2.261   3.344   3.737 -0.1459 -0.1266  0.3180
16754TIP3    H171677   2.336   3.400   3.717 -0.4798  0.6110  1.0700
16754TIP3    H271678   2.299   3.258   3.752  0.9161  0.7412  3.2827
16755TIP3   OH271679   4.847   0.975  16.592  0.2238 -1.0057 -0.6122
16755TIP3    H171680   4.928   0.978  16.643 -0.6055 -0.9887  0.7363
16755TIP3    H271681   4.815   0.886  16.602 -1.4052 -0.2776  1.3080
16756TIP3   OH271682   5.141   3.419  16.892  0.4321 -0.2797 -0.4595
16756TIP3    H171683   5.212   3.375  16.845 -3.1474 -2.5568 -4.4099
16756TIP3    H271684   5.129   3.502  16.847 -0.4708 -0.6884 -0.9990
16757TIP3   OH271685   0.202   1.636   2.829  0.0808  0.0550 -0.2475
16757TIP3    H171686   0.224   1.604   2.916  0.7939  1.5408  0.1405
16757TIP3    H271687   0.286   1.661   2.790 -0.2847 -0.1149 -1.1796
16758TIP3   OH271688   2.021   6.319  15.335  0.0051 -0.8972  0.3707
16758TIP3    H171689   1.941   6.365  15.360  0.7469  0.7187 -0.1126
16758TIP3    H271690   1.996   6.265  15.261 -0.6844 -0.5625  0.3527
16759TIP3   OH271691   2.383   3.471  16.881 -0.6241 -0.2669  0.3360
16759TIP3    H171692   2.369   3.486  16.787  3.5276 -1.2911 -0.6315
16759TIP3    H271693   2.416   3.555  16.913  1.1130 -0.8173  0.0616
16760TIP3   OH271694   3.950   2.430  11.118  0.0734  0.3044 -0.2623
16760TIP3    H171695   3.936   2.514  11.161  0.8714  0.7797 -0.8877
16760TIP3    H271696   3.864   2.388  11.117 -0.1641  0.7439  0.7966
16761TIP3   OH271697   6.551   4.793   0.691  0.3157  0.6753 -0.1199
16761TIP3    H171698   6.534   4.700   0.681  1.0512  0.7063 -2.4366
16761TIP3    H271699   6.520   4.831   0.608  1.1806  2.2963  0.2621
16762TIP3   OH271700   2.166   2.771  16.773  0.5960  0.4409  0.0466
16762TIP3    H171701   2.190   2.860  16.747 -0.8792  1.2843  1.4269
16762TIP3    H271702   2.227   2.750  16.844  1.7181 -0.1539 -1.0457
16763TIP3   OH271703   4.534   3.366  14.488  0.3426 -0.3967 -0.0601
16763TIP3    H171704   4.506   3.376  14.579 -1.3472  0.7949 -0.6588
16763TIP3    H271705   4.577   3.280  14.486 -1.6722 -1.5562  1.3864
16764TIP3   OH271706   5.959   5.311  16.187 -0.5620  0.1695  0.3444
16764TIP3    H171707   6.022   5.274  16.250 -0.5809  0.6291  0.6326
16764TIP3    H271708   5.878   5.263  16.203 -0.1568 -0.7956 -0.3825
16765TIP3   OH271709   0.059   5.470   0.815  0.1050 -0.0671  0.5933
16765TIP3    H171710   0.008   5.466   0.896 -2.6514  1.7364 -0.9090
16765TIP3    H271711   0.043   5.387   0.772  0.8567 -0.6765  1.4580
16766TIP3   OH271712   1.822   3.437   1.452  0.0419  0.2775  0.1309
16766TIP3    H171713   1.806   3.348   1.484 -1.0187  0.3673 -0.1244
16766TIP3    H271714   1.902   3.465   1.497 -0.6463 -0.1140  1.6527
16767TIP3   OH271715   4.288   6.595  11.242 -0.4239 -0.3328 -0.2711
16767TIP3    H171716   4.247   6.680  11.225  1.4176  1.1787  2.1993
16767TIP3    H271717   4.329   6.571  11.159 -0.0393  1.7680 -0.7361
16768TIP3   OH271718   6.126   0.438   5.827 -0.2355  0.1679 -0.0708
16768TIP3    H171719   6.206   0.387   5.839 -0.4903 -0.2016  0.0552
16768TIP3    H271720   6.091   0.409   5.743  0.1969  0.9295 -0.5346
16769TIP3   OH271721   2.961   5.636  12.063  0.1733 -0.6632 -0.1013
16769TIP3    H171722   2.891   5.636  12.128  1.0516 -1.1983  0.8740
16769TIP3    H271723   2.977   5.544  12.045  1.8528 -0.6497  1.0926
16770TIP3   OH271724   5.133   3.160  13.503  0.3621  0.1718 -0.7453
16770TIP3    H171725   5.103   3.196  13.586  1.4156 -1.0282  0.1877
16770TIP3    H271726   5.056   3.163  13.446 -0.7830 -0.3547  0.7272
16771TIP3   OH271727   5.329   3.664  12.224 -0.3715 -0.0629 -0.1731
16771TIP3    H171728   5.344   3.620  12.140 -0.4263  0.3653 -0.4109
16771TIP3    H271729   5.283   3.598  12.277  0.3346 -0.6001 -0.2105
16772TIP3   OH271730   2.523   0.908   1.711 -0.1721  0.2899 -0.1091
16772TIP3    H171731   2.501   0.832   1.764  0.6791 -1.1717 -1.7199
16772TIP3    H271732   2.446   0.965   1.715 -0.7946 -0.6156  1.1947
16773TIP3   OH271733   2.520   1.088  15.949 -0.0801 -0.1236 -0.2684
16773TIP3    H171734   2.499   1.159  15.888 -2.2979 -0.5713 -0.1242
16773TIP3    H271735   2.468   1.014  15.917  0.7327 -1.1329  0.6815
16774TIP3   OH271736   5.052   5.388   3.005 -0.2349  0.3238  0.4497
16774TIP3    H171737   4.961   5.386   2.977 -0.2691 -0.5001  0.5932
16774TIP3    H271738   5.048   5.408   3.099 -0.3719 -1.1814  0.7958
16775TIP3   OH271739   1.563   3.703  11.786 -0.4911  0.0850  0.3088
16775TIP3    H171740   1.611   3.710  11.868  0.2975 -1.2932  0.0068
16775TIP3    H271741   1.495   3.770  11.791  0.4484  0.9770  1.4577
16776TIP3   OH271742   0.381   1.929   6.225 -0.3834 -0.1520  0.4912
16776TIP3    H171743   0.423   1.970   6.301  0.9180  1.1815 -0.8737
16776TIP3    H271744   0.451   1.920   6.160 -1.5784 -0.6526 -0.7870
16777TIP3   OH271745   1.401   5.216   6.291 -0.6477 -0.2145 -0.1945
16777TIP3    H171746   1.402   5.221   6.195  0.0927  1.2392 -0.1428
16777TIP3    H271747   1.311   5.239   6.315 -1.0809 -1.4381 -0.5398
16778TIP3   OH271748   6.373   3.098  11.876 -0.0831  0.4292 -0.7657
16778TIP3    H171749   6.408   3.044  11.805 -0.7450 -1.0379 -0.0103
16778TIP3    H271750   6.284   3.066  11.888  0.1595  0.3680  1.0214
16779TIP3   OH271751   3.923   0.311  16.709  0.3080 -0.5043 -0.7883
16779TIP3    H171752   3.972   0.383  16.748  2.0811 -1.1279 -1.7494
16779TIP3    H271753   3.859   0.286  16.776  1.6074  0.0410  0.7176
16780TIP3   OH271754   6.558   0.388   0.728  0.0315 -0.1066  0.4470
16780TIP3    H171755   6.584   0.388   0.820 -1.0704  1.2124  0.7964
16780TIP3    H271756   6.462   0.384   0.730 -0.0984  1.5631 -0.5565
16781TIP3   OH271757   5.432   1.895  10.996  0.1493  0.0098  0.0605
16781TIP3    H171758   5.343   1.927  11.011  0.5565  1.8187 -0.9934
16781TIP3    H271759   5.427   1.849  10.912 -0.1836 -1.7651  1.0046
16782TIP3   OH271760   1.746   6.629   4.709  0.3541 -0.2588  0.2213
16782TIP3    H171761   1.796   6.635   4.790  0.9335 -0.7798 -0.0843
16782TIP3    H271762   1.722   6.719   4.688 -1.7814 -0.2750  2.1534
16783TIP3   OH271763   1.437   5.341   0.621 -0.0767 -0.3170  0.0095
16783TIP3    H171764   1.424   5.326   0.528 -0.8635 -3.1828  0.4782
16783TIP3    H271765   1.348   5.351   0.656  0.1657 -0.0537  0.5549
16784TIP3   OH271766   4.038   4.775   0.044  0.2287 -0.4298 -0.1169
16784TIP3    H171767   4.097   4.850   0.048 -0.9997  0.5593  0.3033
16784TIP3    H271768   4.018   4.764  -0.049 -1.0668  1.0214 -0.0524
16785TIP3   OH271769   1.639   5.294  15.781 -0.2602  0.8490  0.7911
16785TIP3    H171770   1.733   5.287  15.764 -0.3445  0.5206  0.4396
16785TIP3    H271771   1.615   5.382  15.753 -0.6761 -0.1175 -2.3057
16786TIP3   OH271772   2.655   5.001   2.712 -0.2654  0.5921  0.5751
16786TIP3    H171773   2.731   4.943   2.712 -1.6573 -1.4427  2.7996
16786TIP3    H271774   2.667   5.057   2.635  2.6906 -0.6100  0.0288
16787TIP3   OH271775   5.392   5.201   3.775  0.3530  0.4949  0.9449
16787TIP3    H171776   5.445   5.259   3.830  0.5994 -0.0966  1.3424
16787TIP3    H271777   5.454   5.134   3.744 -0.5025 -1.4838  3.1555
16788TIP3   OH271778   5.191   2.417  12.474  0.0458  0.1116  0.5935
16788TIP3    H171779   5.228   2.437  12.388 -0.0828  1.0277  0.7462
16788TIP3    H271780   5.256   2.360  12.515  0.2079 -0.1575 -0.0242
16789TIP3   OH271781   6.601   4.847   1.515 -0.1976  0.0669  0.4927
16789TIP3    H171782   6.579   4.912   1.448 -1.3622  0.6534  1.4280
16789TIP3    H271783   6.695   4.831   1.502 -0.7771 -1.5414 -2.7678
16790TIP3   OH271784   0.362   3.718   1.322 -0.3333  0.6149 -0.4561
16790TIP3    H171785   0.412   3.798   1.339 -1.0178  1.0897 -0.6542
16790TIP3    H271786   0.346   3.718   1.228  1.8527 -1.0775 -0.9116
16791TIP3   OH271787   6.427   1.962  13.208 -0.3135 -0.5220 -0.2696
16791TIP3    H171788   6.393   1.914  13.283 -2.1108 -0.7199 -1.1490
16791TIP3    H271789   6.414   2.054  13.230 -1.9593 -0.5945 -0.7613
16792TIP3   OH271790   5.546   2.521   2.856 -0.3234 -0.3312  0.1740
16792TIP3    H171791   5.599   2.450   2.892 -2.1626 -1.3562  0.9827
16792TIP3    H271792   5.575   2.530   2.766  0.6510 -1.4015  0.3655
16793TIP3   OH271793   2.900   6.744   4.004 -0.0085 -0.0298 -0.0488
16793TIP3    H171794   2.918   6.789   3.922  0.8001 -1.4458 -0.6900
16793TIP3    H271795   2.983   6.750   4.053  0.0165 -0.5717 -0.0234
16794TIP3   OH271796   1.986   6.341  12.466  0.0666 -0.6008 -0.2320
16794TIP3    H171797   2.065   6.389  12.490 -0.7482  1.1582 -0.8680
16794TIP3    H271798   1.943   6.398  12.402 -0.1523 -2.9409 -2.3160
16795TIP3   OH271799   6.128   5.114  17.049 -0.3731  0.0208  0.6485
16795TIP3    H171800   6.133   5.182  16.981  1.7032  0.9821  1.6778
16795TIP3    H271801   6.082   5.042  17.007 -0.6053  1.1977 -1.2485
16796TIP3   OH271802   1.911   4.820  15.835 -0.0098 -0.4262  0.6143
16796TIP3    H171803   1.853   4.748  15.811 -0.4335  0.2542 -0.4588
16796TIP3    H271804   1.942   4.856  15.752 -0.1855  0.9219  1.0945
16797TIP3   OH271805   3.135   5.908  12.477  0.3268 -0.1951 -0.1040
16797TIP3    H171806   3.063   5.971  12.481  0.3805 -0.0755 -0.9600
16797TIP3    H271807   3.097   5.831  12.436 -0.1106 -1.2588  2.1630
16798TIP3   OH271808   6.357   1.672  10.938 -0.5816  0.2350 -0.5621
16798TIP3    H171809   6.326   1.627  11.016 -0.4107 -0.7268 -1.0313
16798TIP3    H271810   6.420   1.611  10.899 -0.8148  0.6076 -1.5538
16799TIP3   OH271811   5.840   0.561   0.848 -0.4904  0.2092  0.0730
16799TIP3    H171812   5.896   0.625   0.804 -1.0332  1.1210  0.6989
16799TIP3    H271813   5.789   0.522   0.778 -0.4080  0.7066 -0.2664
16800TIP3   OH271814   4.290   6.720  11.648 -0.5659 -0.3863 -0.1598
16800TIP3    H171815   4.257   6.765  11.726  1.3754  2.9413 -1.0904
16800TIP3    H271816   4.251   6.767  11.574  0.8572 -0.7768 -1.2128
16801TIP3   OH271817   3.476   4.513  15.157  0.1703 -0.5254 -0.4572
16801TIP3    H171818   3.526   4.450  15.208 -0.3915  0.1879  1.0278
16801TIP3    H271819   3.515   4.598  15.178  0.5577 -0.2908 -1.9924
16802TIP3   OH271820   3.520   5.434  16.230 -0.2510  0.3381  0.1153
16802TIP3    H171821   3.600   5.464  16.187 -0.8127  0.4310 -0.8950
16802TIP3    H271822   3.499   5.504  16.293  0.5111  0.2608  0.4670
16803TIP3   OH271823   0.075   0.924   5.996  0.3419 -0.2001  0.1333
16803TIP3    H171824   0.020   0.864   6.046  0.6957 -1.0422 -0.4570
16803TIP3    H271825   0.135   0.867   5.948  0.1560  0.5829 -1.0928
16804TIP3   OH271826   3.212   1.031  12.857  0.0980  0.5005  0.3480
16804TIP3    H171827   3.190   1.093  12.788 -0.8959 -1.3690 -1.1180
16804TIP3    H271828   3.135   1.029  12.914 -0.1938  0.0820 -0.0488
16805TIP3   OH271829   5.779   4.123   4.857 -0.0640 -0.5448 -0.7657
16805TIP3    H171830   5.707   4.148   4.799 -1.0602 -1.4544  0.0342
16805TIP3    H271831   5.739   4.116   4.944  1.4241  0.9598  0.1076
16806TIP3   OH271832   5.182   0.548  15.978 -0.3644 -0.0569 -0.1033
16806TIP3    H171833   5.129   0.545  15.898 -0.3927  0.3461 -0.0998
16806TIP3    H271834   5.123   0.517  16.047 -0.4465 -0.0719 -0.1813
16807TIP3   OH271835   6.338   6.344   4.959 -0.3452 -0.0865 -0.4632
16807TIP3    H171836   6.360   6.374   5.047 -1.0879  0.5978 -0.4946
16807TIP3    H271837   6.254   6.387   4.940 -1.3616 -2.0463 -0.5995
16808TIP3   OH271838   5.385   1.338  16.187 -0.3153 -0.1516 -0.0207
16808TIP3    H171839   5.302   1.325  16.141 -0.5356 -0.0247  0.3373
16808TIP3    H271840   5.401   1.254  16.230  1.2359 -1.2000 -2.4429
16809TIP3   OH271841   2.643   4.224   4.028  0.1815  0.4660 -0.0601
16809TIP3    H171842   2.672   4.282   3.958  2.4235 -1.2781 -0.6929
16809TIP3    H271843   2.558   4.191   3.997  0.5140  0.7399 -1.3481
16810TIP3   OH271844   5.109   0.483   5.221  0.1180 -0.3942  0.0394
16810TIP3    H171845   5.083   0.405   5.171  0.7760 -0.9871  0.6056
16810TIP3    H271846   5.102   0.456   5.313 -0.5103  0.4987  0.2702
16811TIP3   OH271847   0.908   0.768   3.003 -0.3224 -0.1517 -0.8051
16811TIP3    H171848   0.959   0.716   2.941 -0.7770 -0.6751 -0.7438
16811TIP3    H271849   0.969   0.789   3.073 -0.0503 -0.3301 -0.9891
16812TIP3   OH271850   2.587   6.007   1.485  0.3536 -0.3171 -0.2462
16812TIP3    H171851   2.583   5.968   1.397  0.6059  0.4218 -0.5996
16812TIP3    H271852   2.506   6.057   1.493  0.3391 -0.3690 -0.0587
16813TIP3   OH271853   0.591   4.271   0.464  0.4156 -0.6599  0.1113
16813TIP3    H171854   0.648   4.199   0.491  0.5358 -0.4670  0.3660
16813TIP3    H271855   0.519   4.270   0.528 -0.5854 -1.7510 -0.9563
16814TIP3   OH271856   2.334   5.839  14.951 -0.9676  0.4003 -0.4162
16814TIP3    H171857   2.253   5.874  14.988 -0.3186 -0.1209  1.6317
16814TIP3    H271858   2.395   5.912  14.954 -0.9534  0.3984 -0.6247
16815TIP3   OH271859   4.607   4.339  11.630 -0.0503  0.4767 -0.0880
16815TIP3    H171860   4.522   4.324  11.588 -0.1795  1.1372 -0.0673
16815TIP3    H271861   4.599   4.426  11.670  0.6838  0.6032 -0.2083
16816TIP3   OH271862   5.990   2.850  13.457 -0.2524  0.4027  0.1613
16816TIP3    H171863   5.999   2.906  13.534  1.4306 -0.4472  0.6293
16816TIP3    H271864   5.925   2.894  13.403  0.5731  2.4974  0.7845
16817TIP3   OH271865   0.211   3.445  17.109 -0.0211  0.2236 -0.1058
16817TIP3    H171866   0.244   3.495  17.035  0.7530  0.0265  0.1038
16817TIP3    H271867   0.282   3.386  17.133 -0.9968 -1.1846 -0.5197
16818TIP3   OH271868   1.722   5.341   2.817 -0.2044 -0.0467 -0.5668
16818TIP3    H171869   1.716   5.262   2.871  0.7869  0.6518  0.6106
16818TIP3    H271870   1.765   5.312   2.737  2.8880 -0.1985  1.0320
16819TIP3   OH271871   1.459   0.537  10.363 -0.1375 -0.2277  0.1776
16819TIP3    H171872   1.379   0.552  10.312 -1.4365 -0.9386  1.9353
16819TIP3    H271873   1.476   0.620  10.406  0.4068  0.0764 -0.5831
16820TIP3   OH271874   0.421   0.117  11.822 -0.2070  0.3982  0.5812
16820TIP3    H171875   0.498   0.141  11.771 -0.4595 -0.5148 -0.2592
16820TIP3    H271876   0.361   0.192  11.810 -0.1550  0.3147 -0.2512
16821TIP3   OH271877   5.490   1.246  13.968  0.0495  0.1012 -0.1512
16821TIP3    H171878   5.567   1.290  14.004 -0.3132  0.2977  0.3966
16821TIP3    H271879   5.447   1.207  14.044 -0.0469 -0.5632 -0.5345
16822TIP3   OH271880   1.500   6.356   4.211  0.0943 -0.0356  0.0575
16822TIP3    H171881   1.469   6.445   4.228  1.1834  0.5914 -1.0819
16822TIP3    H271882   1.564   6.366   4.140  1.5134 -1.5093  1.0603
16823TIP3   OH271883   0.021   5.530   4.498  0.2329 -0.1145  0.4341
16823TIP3    H171884  -0.058   5.580   4.480  0.7657  0.7626  0.4643
16823TIP3    H271885   0.002   5.483   4.579 -0.3731 -0.1806  0.2596
16824TIP3   OH271886   6.631   4.039   4.681  0.0249 -0.4063  0.0678
16824TIP3    H171887   6.726   4.042   4.683  0.1385 -2.4078 -0.0704
16824TIP3    H271888   6.607   3.982   4.754 -0.8735 -2.1203 -1.4618
16825TIP3   OH271889   1.592   4.515  16.773 -0.2139 -1.0209 -0.6937
16825TIP3    H171890   1.571   4.509  16.866  2.7614  2.0843  0.4100
16825TIP3    H271891   1.512   4.549  16.733 -0.6830  0.4381  1.3007
16826TIP3   OH271892   6.532   1.678  16.069  0.0693  0.5207  0.1047
16826TIP3    H171893   6.623   1.708  16.075  0.3535 -0.2187 -0.2918
16826TIP3    H271894   6.524   1.612  16.138  0.0658  0.0447 -0.3393
16827TIP3   OH271895   6.118   4.302  17.335 -0.1613 -0.1789  0.4328
16827TIP3    H171896   6.127   4.213  17.301 -1.7721 -0.5167  0.8309
16827TIP3    H271897   6.191   4.311  17.397  0.8042 -0.7255 -0.5791
16828TIP3   OH271898   4.956   1.889  12.324  0.1826 -0.1758 -0.5375
16828TIP3    H171899   4.956   1.901  12.229 -0.4743  0.4037 -0.4771
16828TIP3    H271900   4.944   1.977  12.359  1.9090 -0.1710  0.1369
16829TIP3   OH271901   3.611   5.361  16.914  0.4461 -0.0141 -0.6290
16829TIP3    H171902   3.646   5.441  16.876  0.4498 -0.6837 -2.0984
16829TIP3    H271903   3.582   5.309  16.839 -2.0368 -0.2576  0.3939
16830TIP3   OH271904   1.760   2.393   3.750 -0.7916 -0.3751  0.6423
16830TIP3    H171905   1.718   2.379   3.665  1.0404 -1.2256 -0.1836
16830TIP3    H271906   1.726   2.323   3.806 -2.0975  0.2579  0.6739
16831TIP3   OH271907   2.498   2.254  11.838 -0.4915 -0.2186  0.3974
16831TIP3    H171908   2.523   2.321  11.774 -0.1503  0.5964  1.3556
16831TIP3    H271909   2.427   2.206  11.796  0.6425 -0.6164 -1.1693
16832TIP3   OH271910   2.556   0.357  13.644  0.5789 -0.3127  0.2892
16832TIP3    H171911   2.635   0.317  13.681 -0.0296 -1.3066  0.5404
16832TIP3    H271912   2.487   0.292  13.659 -0.1149  0.1863 -0.6824
16833TIP3   OH271913   5.549   2.546   3.418  0.3587 -0.2437  0.4517
16833TIP3    H171914   5.564   2.573   3.328  0.6763 -0.5780  0.4031
16833TIP3    H271915   5.606   2.471   3.431  1.5409  0.7848  1.4372
16834TIP3   OH271916   2.481   3.221  11.725 -0.1636 -0.3431 -0.2825
16834TIP3    H171917   2.490   3.127  11.742  1.8161  0.0140  0.9046
16834TIP3    H271918   2.568   3.249  11.698 -0.7709  1.1402 -0.8044
16835TIP3   OH271919   5.168   3.942   5.084 -0.1636  0.2202  0.3405
16835TIP3    H171920   5.238   3.956   5.148 -0.1403 -0.1683  0.4015
16835TIP3    H271921   5.140   3.852   5.098 -1.0109  0.5179  0.6555
16836TIP3   OH271922   5.924   2.901  16.873  0.2148  0.3278  0.4097
16836TIP3    H171923   5.857   2.906  16.941 -1.0808  2.4222 -0.9064
16836TIP3    H271924   5.877   2.872  16.795  1.2407  0.0613 -0.1300
16837TIP3   OH271925   4.341   2.324   3.572 -0.3251  0.4513 -0.3335
16837TIP3    H171926   4.257   2.290   3.602  1.1068 -0.3606  3.1606
16837TIP3    H271927   4.388   2.248   3.539 -0.2023  0.5553 -0.4011
16838TIP3   OH271928   1.790   5.008   1.341  0.1988  0.0873  0.3611
16838TIP3    H171929   1.768   5.021   1.249  0.2763 -1.6326  0.0602
16838TIP3    H271930   1.882   4.980   1.340 -0.6913 -3.2410  0.5789
16839TIP3   OH271931   4.398   0.475  15.529  0.3348 -0.7619 -0.0572
16839TIP3    H171932   4.314   0.499  15.567  0.8387  1.6952 -0.2749
16839TIP3    H271933   4.380   0.459  15.437  0.1902  0.7410 -0.3232
16840TIP3   OH271934   4.906   4.218   3.543  0.7220  0.1211  0.3292
16840TIP3    H171935   4.870   4.306   3.552  1.2466  0.3742 -0.0157
16840TIP3    H271936   4.840   4.170   3.492  0.7014  0.4725  0.0270
16841TIP3   OH271937   2.908   5.449   3.187 -0.0264  0.4787  0.5461
16841TIP3    H171938   2.836   5.460   3.249 -0.1790 -1.2886  0.7277
16841TIP3    H271939   2.880   5.497   3.110 -0.5297  1.4258  1.2966
16842TIP3   OH271940   2.236   2.447  12.337  1.2962 -0.1745  0.1791
16842TIP3    H171941   2.207   2.536  12.355  0.8371 -0.2141 -0.3451
16842TIP3    H271942   2.229   2.402  12.422 -2.0397 -0.6917 -0.2049
16843TIP3   OH271943   3.188   5.093   3.592 -0.0829 -0.2358 -0.3399
16843TIP3    H171944   3.153   5.173   3.631 -0.3603  0.2864 -1.6176
16843TIP3    H271945   3.118   5.029   3.604  0.4261 -0.5208  1.3424
16844TIP3   OH271946   3.027   2.563  17.100  0.3410  0.1264 -0.3748
16844TIP3    H171947   3.057   2.583  17.189 -0.7508 -0.7785  0.2286
16844TIP3    H271948   3.106   2.536  17.053  0.9463  0.7051  0.2998
16845TIP3   OH271949   1.195   0.323   4.942  0.1823  0.5386  0.2689
16845TIP3    H171950   1.152   0.244   4.910  1.3378 -0.2677  0.6299
16845TIP3    H271951   1.273   0.332   4.887 -0.8908  2.5280 -1.0303
16846TIP3   OH271952   0.215   1.118  16.719 -0.4077 -0.4655  0.3875
16846TIP3    H171953   0.186   1.107  16.629  0.4268 -2.4247  0.3053
16846TIP3    H271954   0.307   1.142  16.712 -0.0189 -1.7611  0.6790
16847TIP3   OH271955   4.864   2.899  12.665  0.0888  0.1285  0.2427
16847TIP3    H171956   4.951   2.890  12.626  0.1065  0.0025  0.3087
16847TIP3    H271957   4.861   2.989  12.697  0.5993 -0.1746  1.1987
16848TIP3   OH271958   3.576   2.301   4.573  0.4280 -0.6152 -0.0661
16848TIP3    H171959   3.627   2.231   4.615  1.1099  0.1332  0.3819
16848TIP3    H271960   3.614   2.382   4.607 -0.4338 -0.0216 -0.4812
16849TIP3   OH271961   1.365   4.260   3.656  0.4662  0.2106 -0.1016
16849TIP3    H171962   1.293   4.234   3.598  0.7243  0.0585 -0.3518
16849TIP3    H271963   1.342   4.349   3.683  0.7641  0.6083 -1.1094
16850TIP3   OH271964   5.186   1.325   1.028  0.0612 -0.3101 -0.8355
16850TIP3    H171965   5.119   1.315   0.960 -1.7048 -2.6077  1.0511
16850TIP3    H271966   5.166   1.408   1.070 -0.7128 -0.2832 -1.2472
16851TIP3   OH271967   6.623   3.223   2.187 -0.9209 -0.3604 -0.2386
16851TIP3    H171968   6.541   3.191   2.150 -0.7912  0.3065 -1.1380
16851TIP3    H271969   6.623   3.317   2.169 -0.8055 -0.0055  1.3943
16852TIP3   OH271970   1.481   0.203   4.482  0.0506  0.3636 -0.7780
16852TIP3    H171971   1.522   0.126   4.442  3.8973  0.5017  2.2395
16852TIP3    H271972   1.542   0.275   4.465 -1.4522  1.8727 -0.1514
16853TIP3   OH271973   2.825   4.776   1.949  0.1771 -0.0667 -0.1335
16853TIP3    H171974   2.781   4.815   2.025  0.4260  1.9619 -0.9720
16853TIP3    H271975   2.780   4.814   1.874  1.8818  0.3125 -1.0026
16854TIP3   OH271976   4.587   5.935  15.360  0.4664  0.7086 -0.2537
16854TIP3    H171977   4.573   5.919  15.266 -0.1503  0.0318 -0.0548
16854TIP3    H271978   4.578   5.849  15.401 -0.8114  1.2153  0.6001
16855TIP3   OH271979   3.006   3.964  12.713  0.2843 -0.1281  0.6725
16855TIP3    H171980   3.046   3.880  12.689  0.9615  0.0018  1.3273
16855TIP3    H271981   2.921   3.939  12.750 -0.2569 -0.4041 -0.6791
16856TIP3   OH271982   5.675   3.875   4.047 -0.0457 -0.1430  0.2278
16856TIP3    H171983   5.644   3.792   4.084  0.2936  0.5416  2.1430
16856TIP3    H271984   5.724   3.850   3.969  0.6685 -1.8045  1.1754
16857TIP3   OH271985   1.371   0.858   3.285  0.7195  0.1589 -0.0601
16857TIP3    H171986   1.444   0.797   3.297  1.5323  0.8622 -1.2663
16857TIP3    H271987   1.412   0.938   3.253 -0.2884  1.4717  1.7715
16858TIP3   OH271988   5.601   3.644  15.463 -0.3879 -0.1661 -0.2428
16858TIP3    H171989   5.508   3.662  15.450 -0.0317  2.1352 -0.0965
16858TIP3    H271990   5.629   3.601  15.382 -0.8021  2.6136 -1.9839
16859TIP3   OH271991   4.620   1.006   0.271  0.2114  0.0193 -0.1007
16859TIP3    H171992   4.631   1.072   0.339 -0.2848  1.9704 -1.8128
16859TIP3    H271993   4.544   0.954   0.298  1.2186 -0.5541  1.7667
16860TIP3   OH271994   4.783   5.834   5.920 -0.0861  0.0122  0.2372
16860TIP3    H171995   4.825   5.768   5.975  0.0225 -0.2281 -0.1245
16860TIP3    H271996   4.766   5.788   5.837 -1.0154  0.1154  0.3571
16861TIP3   OH271997   1.514   5.694   5.945 -0.7858 -0.2246  0.0079
16861TIP3    H171998   1.518   5.654   5.859  1.9649 -0.2247  0.0600
16861TIP3    H271999   1.586   5.758   5.946  2.7921 -3.6918  3.8503
16862TIP3   OH272000   4.856   4.123  16.210 -0.3300  0.1583 -0.4634
16862TIP3    H172001   4.858   4.141  16.116 -2.2453  0.8852 -0.4231
16862TIP3    H272002   4.789   4.055  16.220  1.9471 -2.1287  0.1167
16863TIP3   OH272003   4.979   6.302  12.790  0.0122 -0.0087  0.0960
16863TIP3    H172004   5.026   6.252  12.857  0.9000  0.9675  0.2272
16863TIP3    H272005   4.975   6.391  12.825  0.6847  0.5783 -1.2287
16864TIP3   OH272006   1.900   6.163   5.541  0.1642 -0.2898  0.5674
16864TIP3    H172007   1.972   6.100   5.529 -0.0594 -0.1619 -1.9653
16864TIP3    H272008   1.939   6.248   5.522 -0.7215 -0.2812 -1.4805
16865TIP3   OH272009   6.378   5.429   1.420 -0.5136 -0.1754  0.6452
16865TIP3    H172010   6.318   5.471   1.359 -1.5959 -0.3491  1.5703
16865TIP3    H272011   6.446   5.391   1.364 -1.4009 -0.2006 -0.4427
16866TIP3   OH272012   2.938   6.517  17.216 -0.1636 -0.0956  0.0426
16866TIP3    H172013   2.922   6.439  17.164 -1.3841 -0.2454  0.6011
16866TIP3    H272014   2.922   6.489  17.306 -1.9038  1.0767  0.1462
16867TIP3   OH272015   5.503   1.790   5.557 -0.5877 -0.3877 -0.2678
16867TIP3    H172016   5.451   1.858   5.601  0.1467 -0.3656  0.5747
16867TIP3    H272017   5.438   1.728   5.524 -1.1337 -0.5903  1.1472
16868TIP3   OH272018   5.281   3.548   1.317  0.5066  0.2291 -0.5200
16868TIP3    H172019   5.193   3.579   1.335  0.0260  0.2368 -2.6159
16868TIP3    H272020   5.333   3.627   1.304 -0.1427  0.3254 -3.2669
16869TIP3   OH272021   1.382   0.505   3.370  0.5927 -0.3828  0.0216
16869TIP3    H172022   1.353   0.542   3.286 -0.6280  0.5734  0.8350
16869TIP3    H272023   1.340   0.560   3.436  3.1531  0.1675  1.2958
16870TIP3   OH272024   4.185   1.699   3.841  0.6653  0.2034  0.7430
16870TIP3    H172025   4.186   1.762   3.768  0.8415 -1.9730 -1.2684
16870TIP3    H272026   4.109   1.724   3.893 -1.3469  0.0848 -1.9124
16871TIP3   OH272027   2.061   5.087  14.722 -0.4169  0.3017 -0.1347
16871TIP3    H172028   2.084   5.179  14.735  0.5828 -0.0639  0.8488
16871TIP3    H272029   2.108   5.041  14.791 -1.2735 -0.9037 -0.3250
16872TIP3   OH272030   2.612   1.889   5.536  0.1372 -0.0723  0.1181
16872TIP3    H172031   2.555   1.818   5.507  0.1929 -0.2781  0.5030
16872TIP3    H272032   2.700   1.862   5.510  0.0935  0.1233 -0.2418
16873TIP3   OH272033   0.737   0.552  13.418  0.0807  0.1559  0.1694
16873TIP3    H172034   0.670   0.543  13.485  0.2810 -1.5889  0.1794
16873TIP3    H272035   0.813   0.506  13.454  0.5715  0.2170 -0.7505
16874TIP3   OH272036   5.162   2.898  15.727  0.1493 -0.0630 -0.1579
16874TIP3    H172037   5.195   2.896  15.817 -0.6352 -1.5335  0.1307
16874TIP3    H272038   5.072   2.928  15.735  0.7639  2.1075 -0.7416
16875TIP3   OH272039   0.277   4.266   2.503  0.0738 -0.4727 -0.2446
16875TIP3    H172040   0.290   4.275   2.597 -0.4767  1.2920 -0.3100
16875TIP3    H272041   0.256   4.173   2.491  0.2740 -0.7509  1.3437
16876TIP3   OH272042   4.720   2.387   3.435 -0.2170 -0.2153  0.3025
16876TIP3    H172043   4.663   2.397   3.512 -0.7285 -2.8986  0.3702
16876TIP3    H272044   4.778   2.314   3.457  1.7798  0.9701 -0.6896
16877TIP3   OH272045   3.424   5.844  14.954  1.0481 -0.4788 -0.2331
16877TIP3    H172046   3.361   5.911  14.928  2.2866  0.5073 -0.7821
16877TIP3    H272047   3.374   5.785  15.011 -0.1598  0.6897 -0.0426
16878TIP3   OH272048   2.052   4.932  15.612  0.6083  0.0646  0.0240
16878TIP3    H172049   2.043   5.024  15.588 -0.5942  0.1817  0.8209
16878TIP3    H272050   2.127   4.929  15.671  0.6783  0.5201 -0.0449
16879TIP3   OH272051   4.047   6.005  15.255  0.3869 -0.5799 -0.5508
16879TIP3    H172052   4.051   5.971  15.344 -1.8898 -0.2027 -0.2567
16879TIP3    H272053   4.133   6.044  15.240  0.3275  0.7236  2.0425
16880TIP3   OH272054   0.132   1.181  14.961 -0.7386  0.1413 -0.4529
16880TIP3    H172055   0.207   1.136  15.000  0.3612  0.3347 -2.2214
16880TIP3    H272056   0.166   1.217  14.879 -2.6785  0.5798 -1.1155
16881TIP3   OH272057   3.542   4.859   5.319  0.6613  0.1474 -0.0284
16881TIP3    H172058   3.474   4.801   5.352  0.3990 -2.0833 -3.8122
16881TIP3    H272059   3.620   4.838   5.371 -0.3813 -0.7412  1.2238
16882TIP3   OH272060   5.469   2.710  16.417  0.4271  0.5661  0.4051
16882TIP3    H172061   5.414   2.777  16.376  0.9240  1.6603  1.4696
16882TIP3    H272062   5.459   2.633  16.361 -0.9140  1.2296 -0.3120
16883TIP3   OH272063   5.674   3.830   5.419 -0.0544  0.4662 -0.4726
16883TIP3    H172064   5.638   3.883   5.490 -1.4228 -0.0070 -0.7938
16883TIP3    H272065   5.747   3.783   5.459 -2.3807 -1.8337  1.4239
16884TIP3   OH272066   1.846   6.341   2.195  0.2924  0.2989  0.0003
16884TIP3    H172067   1.903   6.304   2.128  0.3790  1.7063 -0.7401
16884TIP3    H272068   1.803   6.415   2.152  0.5788  1.4325  1.5643
16885TIP3   OH272069   4.307   0.535  14.583  0.1148 -0.1586  0.3222
16885TIP3    H172070   4.292   0.445  14.553 -0.0078 -0.2986  0.7829
16885TIP3    H272071   4.241   0.548  14.652  0.0991  0.3016  0.2235
16886TIP3   OH272072   5.347   5.417   0.292  0.2150  0.1094  0.5139
16886TIP3    H172073   5.348   5.386   0.383 -0.2599 -2.1582 -0.2142
16886TIP3    H272074   5.433   5.395   0.258 -0.4965 -1.4752 -0.3311
16887TIP3   OH272075   5.251   3.889   2.873  0.1883 -0.3100 -0.1494
16887TIP3    H172076   5.320   3.955   2.884 -0.0920 -0.0860  0.2667
16887TIP3    H272077   5.280   3.837   2.798  0.4192  0.2748 -0.4724
16888TIP3   OH272078   1.783   6.468  15.668  0.5254  0.1823  0.6900
16888TIP3    H172079   1.871   6.505  15.659 -0.3988  2.1714 -1.2121
16888TIP3    H272080   1.788   6.382  15.626  1.4139  0.5570  0.0018
16889TIP3   OH272081   2.674   6.663  17.190  0.3997  0.0234 -0.2285
16889TIP3    H172082   2.734   6.589  17.196  2.1917  1.5298  1.5294
16889TIP3    H272083   2.723   6.738  17.224 -1.0854  2.2292 -2.5552
16890TIP3   OH272084   2.268   4.738   5.056  0.2230  0.0542  0.0290
16890TIP3    H172085   2.357   4.750   5.091  0.4725  0.6441 -0.7991
16890TIP3    H272086   2.220   4.816   5.085 -0.4002 -0.8606  1.5721
16891TIP3   OH272087   1.254   5.477  14.764  0.5587 -0.0180  0.8312
16891TIP3    H172088   1.347   5.492  14.783  0.8201 -1.4803  0.8809
16891TIP3    H272089   1.225   5.556  14.719  1.6798  0.6994  1.3141
16892TIP3   OH272090   2.658   1.924   6.687  0.3232  0.3176  0.2625
16892TIP3    H172091   2.622   1.993   6.631  2.3692  1.0853 -0.2330
16892TIP3    H272092   2.621   1.942   6.774  0.2247  1.6018 -0.0184
16893TIP3   OH272093   0.725   0.430   2.640  0.7280  0.1302  0.5560
16893TIP3    H172094   0.672   0.354   2.615  0.7441  0.6294 -1.1284
16893TIP3    H272095   0.814   0.395   2.647  0.7834  0.0227 -0.5033
16894TIP3   OH272096   3.858   0.795   0.919 -0.1366 -0.2188  0.6933
16894TIP3    H172097   3.791   0.740   0.959 -1.7633  1.3456  0.2707
16894TIP3    H272098   3.886   0.746   0.842 -2.9583  0.2586 -0.7823
16895TIP3   OH272099   6.457   3.122  16.559  0.1790  0.2542 -0.0417
16895TIP3    H172100   6.460   3.162  16.472 -1.7662  1.0622  0.2143
16895TIP3    H272101   6.480   3.031  16.544 -0.5393  0.2801 -1.4946
16896TIP3   OH272102   5.066   2.447   3.443  0.1658  0.2281  0.0120
16896TIP3    H172103   5.008   2.467   3.369  0.7219  0.2359 -0.4286
16896TIP3    H272104   5.085   2.353   3.433 -0.9174 -0.1177  0.9845
16897TIP3   OH272105   5.958   5.232  14.427 -0.2197 -0.2793  0.0483
16897TIP3    H172106   5.888   5.253  14.365 -0.3008  0.3134  0.3358
16897TIP3    H272107   5.980   5.141  14.408 -0.2569 -0.1127 -0.8337
16898TIP3   OH272108   3.770   6.328  15.655  0.7056  0.1263 -0.3897
16898TIP3    H172109   3.762   6.406  15.709 -2.2586  1.0833 -1.9656
16898TIP3    H272110   3.821   6.358  15.579  0.6127  0.1751 -0.4322
16899TIP3   OH272111   4.616   3.006   4.751  0.3786  0.0603  0.1407
16899TIP3    H172112   4.646   3.046   4.833  1.9029  1.7985 -1.1793
16899TIP3    H272113   4.576   2.924   4.778 -1.4597  1.6766  2.8735
16900TIP3   OH272114   0.494   6.480  14.208 -0.0361 -0.4357 -0.2620
16900TIP3    H172115   0.508   6.470  14.114  0.4046  0.1654 -0.2672
16900TIP3    H272116   0.503   6.574  14.224 -0.8643 -0.4308  0.2660
16901TIP3   OH272117   0.207   5.147   4.685 -0.0783  0.6320 -0.4071
16901TIP3    H172118   0.209   5.160   4.780 -1.2961  0.7490 -0.3758
16901TIP3    H272119   0.131   5.091   4.671  0.2652  0.3794 -1.2918
16902TIP3   OH272120   4.479   0.788  16.551  0.3570 -0.1332  0.2673
16902TIP3    H172121   4.557   0.736  16.571 -0.2130 -0.8602  0.6764
16902TIP3    H272122   4.420   0.773  16.625 -0.7166 -0.6941 -0.6516
16903TIP3   OH272123   5.301   4.224   6.167 -0.2271 -0.3942 -0.1375
16903TIP3    H172124   5.263   4.276   6.096  1.6110  2.4033  0.7557
16903TIP3    H272125   5.335   4.146   6.125 -0.3125  0.5939 -2.1324
16904TIP3   OH272126   2.720   3.227  11.566 -0.3302 -0.1667 -0.0616
16904TIP3    H172127   2.743   3.254  11.477  1.3261  0.0890  0.4117
16904TIP3    H272128   2.688   3.137  11.556 -0.3852 -0.0613 -0.9335
16905TIP3   OH272129   6.539   4.548  15.487 -0.3921  0.7220 -0.0670
16905TIP3    H172130   6.543   4.489  15.412  2.9442  0.4885  0.1678
16905TIP3    H272131   6.529   4.490  15.562  2.8161  0.2724  0.1573
16906TIP3   OH272132   1.496   0.030  15.718  0.3629 -0.2678 -0.5966
16906TIP3    H172133   1.547  -0.005  15.791  1.0274  1.1445 -0.3438
16906TIP3    H272134   1.562   0.053  15.652 -0.0963 -0.0420 -0.9814
16907TIP3   OH272135   0.010   1.590  13.494  0.0757  0.2289 -0.0646
16907TIP3    H172136   0.006   1.540  13.413 -2.6182  0.8272 -0.3938
16907TIP3    H272137  -0.041   1.540  13.557 -0.2861  1.1601  0.4099
16908TIP3   OH272138   4.095   2.400   1.425  0.2942 -0.1986 -0.5880
16908TIP3    H172139   4.082   2.476   1.482  1.1857 -0.7433  0.3974
16908TIP3    H272140   4.146   2.339   1.479 -0.7426 -1.6677 -1.2083
16909TIP3   OH272141   2.662   0.930  16.481  0.2270  0.0502 -0.8102
16909TIP3    H172142   2.715   0.976  16.547  0.5840  0.9448 -1.6752
16909TIP3    H272143   2.725   0.875  16.435  0.3678  0.8447 -1.6062
16910TIP3   OH272144   4.429   4.357   1.096  0.6132  0.4514  0.0028
16910TIP3    H172145   4.448   4.337   1.187  1.1575  1.1968  0.0531
16910TIP3    H272146   4.493   4.424   1.071  1.7179 -1.0610 -1.4794
16911TIP3   OH272147   5.266   2.746  17.126  0.2377 -0.5396  0.7652
16911TIP3    H172148   5.345   2.704  17.161 -0.0891 -2.5376 -0.6810
16911TIP3    H272149   5.288   2.839  17.124  1.7941 -0.8128  2.2437
16912TIP3   OH272150   3.669   5.864  13.797 -0.1704 -0.2082 -0.0607
16912TIP3    H172151   3.732   5.807  13.754 -1.1129  0.2660 -2.2177
16912TIP3    H272152   3.699   5.953  13.778 -0.6954  0.0169  0.1336
16913TIP3   OH272153   3.267   6.054   1.508  0.1347  0.3408 -0.4962
16913TIP3    H172154   3.281   6.147   1.489 -0.2009  1.3923  3.4405
16913TIP3    H272155   3.236   6.053   1.599  0.9647 -3.7093 -0.0845
16914TIP3   OH272156   2.476   1.233  14.796  0.2970 -0.1679  0.1442
16914TIP3    H172157   2.472   1.329  14.786  0.8591  0.0882  2.0284
16914TIP3    H272158   2.392   1.210  14.836 -0.7591 -0.8092 -2.2122
16915TIP3   OH272159   1.281   4.249   3.955 -0.4169  0.0596 -0.8167
16915TIP3    H172160   1.276   4.308   3.879 -1.3952  0.2983 -0.5860
16915TIP3    H272161   1.330   4.173   3.923  1.0457  1.0573 -1.0707
16916TIP3   OH272162   4.884   5.976   4.515  0.7207 -0.1160 -0.0136
16916TIP3    H172163   4.798   5.936   4.528 -0.2745  1.6918 -0.6215
16916TIP3    H272164   4.929   5.918   4.454  0.3032 -1.5486  0.9824
16917TIP3   OH272165   5.340   3.452  15.638 -0.2273  0.1745 -0.1329
16917TIP3    H172166   5.390   3.465  15.719  0.2717  1.0246 -0.5651
16917TIP3    H272167   5.284   3.377  15.656  1.9658 -1.5083 -0.0034
16918TIP3   OH272168   3.583   3.866   3.547  0.4022  0.0074 -0.0133
16918TIP3    H172169   3.588   3.929   3.476  1.9503 -0.0606 -0.0170
16918TIP3    H272170   3.508   3.810   3.526  1.3798 -0.6078 -2.1267
16919TIP3   OH272171   5.846   2.302   3.719  0.6335 -0.4508  0.5865
16919TIP3    H172172   5.824   2.270   3.806 -0.7808  2.1877  1.3054
16919TIP3    H272173   5.937   2.330   3.726  0.8584 -1.2364  0.8905
16920TIP3   OH272174   2.453   0.584   0.390  0.4446  0.6198  0.3368
16920TIP3    H172175   2.413   0.610   0.473 -0.8203  0.5817 -0.2401
16920TIP3    H272176   2.473   0.667   0.347 -1.0479  0.6873 -0.3023
16921TIP3   OH272177   1.287   6.645   5.423 -0.0824 -0.2985  0.1760
16921TIP3    H172178   1.248   6.589   5.490  1.5006 -0.2398  1.2212
16921TIP3    H272179   1.313   6.724   5.470  0.9920 -0.2184 -0.5142
16922TIP3   OH272180   1.275   5.479  14.395 -0.1762  0.0932 -0.7009
16922TIP3    H172181   1.296   5.551  14.454  1.1796 -0.3868 -0.5717
16922TIP3    H272182   1.200   5.436  14.435  1.3565 -0.8723  1.2741
16923TIP3   OH272183   3.931   3.857  14.527 -0.3982 -0.5700  0.0738
16923TIP3    H172184   3.837   3.852  14.546 -0.5900 -1.7057 -1.0396
16923TIP3    H272185   3.971   3.803  14.595 -0.5130  0.1964  0.7573
16924TIP3   OH272186   1.712   6.645  15.850 -0.2204  0.2184  0.4913
16924TIP3    H172187   1.779   6.708  15.822  1.5688 -1.6300  0.3530
16924TIP3    H272188   1.728   6.568  15.795 -1.2170 -0.9663  1.7902
16925TIP3   OH272189   6.679   1.871  14.402 -0.2626  0.3869 -0.0551
16925TIP3    H172190   6.593   1.831  14.407 -0.1630 -0.0381 -1.3528
16925TIP3    H272191   6.721   1.849  14.485 -1.4292  0.6712  0.6163
16926TIP3   OH272192   2.369   1.672  16.293  0.3590 -0.3109  0.2193
16926TIP3    H172193   2.282   1.699  16.323 -0.1621  1.3878 -2.5546
16926TIP3    H272194   2.407   1.750  16.253  1.9675 -1.7606 -1.2889
16927TIP3   OH272195   3.606   3.811   0.754  0.5396  0.3594  0.3469
16927TIP3    H172196   3.583   3.864   0.678  0.3889  1.2390  0.9881
16927TIP3    H272197   3.660   3.740   0.719  1.0760  1.1569 -0.4789
16928TIP3   OH272198   2.375   0.644  12.984  0.3586  0.0144 -0.2487
16928TIP3    H172199   2.445   0.608  13.038  0.2517  0.5473  0.2613
16928TIP3    H272200   2.402   0.625  12.894 -0.2276 -2.2661  0.0042
16929TIP3   OH272201   6.440   0.600   5.403  0.3356  0.6171  0.6933
16929TIP3    H172202   6.387   0.576   5.479 -0.1829 -3.7720 -0.7425
16929TIP3    H272203   6.377   0.632   5.339 -0.0615 -0.7072  0.3899
16930TIP3   OH272204   2.242   0.842   3.175 -0.2169 -0.2201  0.1774
16930TIP3    H172205   2.147   0.839   3.164 -0.3601  1.9255  0.3836
16930TIP3    H272206   2.255   0.838   3.270 -0.0599 -1.1060  0.1214
16931TIP3   OH272207   2.859   6.093   1.441 -0.6558 -0.5582  0.2299
16931TIP3    H172208   2.895   6.019   1.393  0.7796  0.6667 -0.6305
16931TIP3    H272209   2.770   6.064   1.465 -0.4888 -2.1674 -0.9142
16932TIP3   OH272210   6.465   4.240   4.899 -0.2344  0.3823  0.2021
16932TIP3    H172211   6.422   4.157   4.877  1.3568 -0.8186  1.3525
16932TIP3    H272212   6.444   4.298   4.826 -1.0165 -1.1724 -0.8771
16933TIP3   OH272213   4.081   0.771   1.052  0.2512  0.0234 -0.7601
16933TIP3    H172214   4.132   0.741   0.977 -0.3996  1.6026 -1.8753
16933TIP3    H272215   3.994   0.787   1.017 -0.0465  0.8366  0.3247
16934TIP3   OH272216   5.734   3.652  11.628 -0.2005  0.3302 -0.2046
16934TIP3    H172217   5.707   3.733  11.672  0.5288  0.2524  0.4011
16934TIP3    H272218   5.790   3.682  11.556  1.0272  0.3324  0.7192
16935TIP3   OH272219   2.236   1.871   1.581  0.2424 -0.2979 -0.4366
16935TIP3    H172220   2.292   1.905   1.650 -0.1042  0.1993 -0.3969
16935TIP3    H272221   2.243   1.934   1.510  0.6964 -0.8750 -0.9081
16936TIP3   OH272222   3.261   4.369   2.284 -0.2863  0.2937 -0.0681
16936TIP3    H172223   3.285   4.408   2.199  1.0633  1.2664  0.7231
16936TIP3    H272224   3.319   4.412   2.347 -3.1229  1.6437  1.8007
16937TIP3   OH272225   0.586   2.450  12.962  0.3747  0.0154 -0.2102
16937TIP3    H172226   0.626   2.425  12.879  0.2501  1.3134 -0.6847
16937TIP3    H272227   0.608   2.543  12.972  1.8279 -0.4907  2.0351
16938TIP3   OH272228   6.745   4.644  13.342  1.0537 -0.5171  0.0518
16938TIP3    H172229   6.655   4.676  13.346  1.3203  0.2220  0.3228
16938TIP3    H272230   6.753   4.601  13.257 -0.1775 -2.5094  0.8663
16939TIP3   OH272231   5.354   0.779  15.939 -0.2000  0.0519  0.1417
16939TIP3    H172232   5.289   0.739  15.998 -1.4699  2.3207  0.3847
16939TIP3    H272233   5.333   0.743  15.853  0.8784 -2.3402  0.8008
16940TIP3   OH272234   1.816   0.152  17.186  0.3132  0.4501 -0.1180
16940TIP3    H172235   1.909   0.130  17.181  0.3594  0.5250  0.3820
16940TIP3    H272236   1.789   0.122  17.272 -0.0550  0.7167 -0.1409
16941TIP3   OH272237   1.390   6.308  12.786  0.7234  0.3116  0.2605
16941TIP3    H172238   1.451   6.242  12.819  0.5148  0.5287  1.1060
16941TIP3    H272239   1.322   6.314  12.853  0.9564  1.6829  0.4123
16942TIP3   OH272240   5.642   6.030   0.624 -0.5864  0.4207  0.6877
16942TIP3    H172241   5.679   6.084   0.554 -2.2623 -1.0648 -1.4644
16942TIP3    H272242   5.562   6.076   0.650 -0.8551  0.1085  0.4177
16943TIP3   OH272243   1.518   4.426  11.759  0.1317 -1.0023 -0.2757
16943TIP3    H172244   1.468   4.350  11.787  0.4284 -1.1752 -0.2091
16943TIP3    H272245   1.599   4.389  11.724  0.0902 -0.7430 -0.6476
16944TIP3   OH272246   4.971   0.429  11.241 -0.4252  0.1862  0.3360
16944TIP3    H172247   4.964   0.458  11.332 -2.0314 -1.4287  0.7819
16944TIP3    H272248   4.898   0.470  11.196 -0.2253  0.1741 -0.0066
16945TIP3   OH272249   0.862   4.465  16.098  0.3390 -0.6025  0.2363
16945TIP3    H172250   0.774   4.432  16.083 -0.9652  2.5589  0.1859
16945TIP3    H272251   0.894   4.489  16.011 -0.0605  1.1236  0.5232
16946TIP3   OH272252   6.042   2.941   5.424  0.2605 -0.1485  0.1227
16946TIP3    H172253   6.090   2.916   5.503 -0.8969 -0.6307  0.7052
16946TIP3    H272254   6.109   2.952   5.357  1.3373  0.8171  1.2965
16947TIP3   OH272255   6.437   6.095  15.406 -0.5852 -0.1082 -0.1699
16947TIP3    H172256   6.506   6.037  15.439 -1.4353 -0.8673  0.3433
16947TIP3    H272257   6.484   6.170  15.370  0.4656  0.8457  2.8284
16948TIP3   OH272258   5.843   3.759  12.180 -0.5015  0.5070  0.3102
16948TIP3    H172259   5.926   3.795  12.213  0.8909 -1.2269 -1.0808
16948TIP3    H272260   5.867   3.714  12.099 -2.5064 -1.4703  0.7086
16949TIP3   OH272261   0.064   6.281  12.847 -0.0148 -0.1520  0.2080
16949TIP3    H172262   0.153   6.282  12.882  0.4918  0.9584 -1.0062
16949TIP3    H272263   0.076   6.296  12.753 -1.4297 -1.0561 -0.1375
16950TIP3   OH272264   3.058   0.590  10.648  0.6581  0.4106 -0.1807
16950TIP3    H172265   3.027   0.644  10.721 -0.5132 -0.8146  0.2724
16950TIP3    H272266   3.096   0.652  10.586  0.0836  1.6589  0.6802
16951TIP3   OH272267   0.827   1.474   5.208 -0.4573 -0.0660  0.0228
16951TIP3    H172268   0.742   1.436   5.231  0.1323 -0.8481  0.9755
16951TIP3    H272269   0.888   1.438   5.273  0.5087  0.8903 -0.3229
16952TIP3   OH272270   1.598   2.994   2.678  0.0026  0.2016 -0.1156
16952TIP3    H172271   1.593   3.057   2.750  0.1509 -2.1133  2.0994
16952TIP3    H272272   1.630   2.913   2.720 -0.8281 -1.5458 -2.6133
16953TIP3   OH272273   0.082   4.661   6.028  0.1532  0.2012  0.2379
16953TIP3    H172274   0.171   4.628   6.037  0.9735  1.8928 -1.1384
16953TIP3    H272275   0.027   4.582   6.032  1.8233 -1.0885 -0.6243
16954TIP3   OH272276   0.821   1.764   3.870 -0.9105 -0.3709 -0.3726
16954TIP3    H172277   0.914   1.777   3.888 -0.7772 -1.6507 -0.0749
16954TIP3    H272278   0.784   1.733   3.953 -1.4000 -0.8650 -0.7668
16955TIP3   OH272279   2.313   3.312  14.683  0.2969  0.1665  0.4559
16955TIP3    H172280   2.358   3.310  14.599  0.3716  1.6654  0.4229
16955TIP3    H272281   2.266   3.230  14.688  0.3036  0.0556 -1.0482
16956TIP3   OH272282   2.077   1.980  12.854  0.0381  0.3161 -0.4596
16956TIP3    H172283   2.048   1.891  12.875 -1.6233  0.8782 -0.2724
16956TIP3    H272284   2.035   2.000  12.770 -0.3092  1.2365 -0.0731
16957TIP3   OH272285   3.433   2.245  17.022 -0.3106  0.1386 -0.3550
16957TIP3    H172286   3.435   2.165  17.074  0.0154  0.6619  0.4628
16957TIP3    H272287   3.343   2.251  16.991  0.1077 -1.5744 -2.1164
16958TIP3   OH272288   0.075   4.704  16.371 -0.5494 -0.2650 -0.4396
16958TIP3    H172289   0.080   4.609  16.366  1.5955 -0.2653  0.5192
16958TIP3    H272290   0.154   4.734  16.326 -0.5286  0.9988  0.3901
16959TIP3   OH272291   5.511   3.685   1.482 -0.2753  0.6661 -0.2396
16959TIP3    H172292   5.596   3.724   1.505 -0.4598  0.3869  0.9480
16959TIP3    H272293   5.533   3.607   1.432  0.1607  0.7189 -0.1337
16960TIP3   OH272294   1.960   5.582  13.512 -0.0693  0.0604  0.3442
16960TIP3    H172295   2.043   5.536  13.523  0.1512  0.4360  0.2796
16960TIP3    H272296   1.968   5.625  13.427  0.3638  1.5108  1.0860
16961TIP3   OH272297   2.171   2.901   5.561  0.0303  0.2030 -0.0550
16961TIP3    H172298   2.152   2.831   5.498  0.5855  2.1641 -2.5324
16961TIP3    H272299   2.102   2.966   5.547  0.4709  0.9273  1.0055
16962TIP3   OH272300   3.600   1.448  11.347 -0.4718  0.4238 -0.3068
16962TIP3    H172301   3.506   1.464  11.345 -0.9930 -2.1972 -0.4449
16962TIP3    H272302   3.618   1.396  11.269  0.7519 -0.5475  0.5677
16963TIP3   OH272303   0.976   5.355   5.898  0.0915 -0.4337 -0.3746
16963TIP3    H172304   0.911   5.358   5.969 -1.6710  2.1206 -1.8977
16963TIP3    H272305   1.057   5.386   5.938 -0.4203 -0.6576  0.8912
16964TIP3   OH272306   3.678   3.170   4.805  0.7777 -0.6664  0.0020
16964TIP3    H172307   3.709   3.084   4.835  0.4020 -0.9618 -0.4517
16964TIP3    H272308   3.673   3.222   4.885  0.9226 -1.0944  0.2945
16965TIP3   OH272309   5.238   3.741  12.662 -0.3452  0.0314  0.6022
16965TIP3    H172310   5.189   3.806  12.611  0.6432 -0.6891 -1.3850
16965TIP3    H272311   5.216   3.760  12.753 -0.9086  2.4785  0.0310
16966TIP3   OH272312   0.471   0.867  14.164 -0.3387 -0.0974 -0.2054
16966TIP3    H172313   0.431   0.784  14.140 -3.3886  1.5126 -1.1816
16966TIP3    H272314   0.508   0.852  14.251 -2.5581 -1.9501  0.4925
16967TIP3   OH272315   5.314   0.932  10.835  0.3745  0.0712 -0.2221
16967TIP3    H172316   5.314   0.997  10.765  0.9542  0.7976  0.4380
16967TIP3    H272317   5.243   0.873  10.812 -1.2874  1.8719  0.0193
16968TIP3   OH272318   5.835   5.766  15.038  0.7185  0.1472  0.1152
16968TIP3    H172319   5.840   5.810  15.123 -0.5563 -0.7077  0.6631
16968TIP3    H272320   5.742   5.770  15.014  1.1861  1.2191 -1.7239
16969TIP3   OH272321   4.918   3.952  11.001  0.1727 -0.0949 -0.2790
16969TIP3    H172322   4.928   3.860  11.025 -1.1996 -0.1370  0.2182
16969TIP3    H272323   4.893   3.949  10.908  1.2708 -0.1403 -0.5934
16970TIP3   OH272324   1.143   4.664  14.087  0.1167 -0.1378 -0.1297
16970TIP3    H172325   1.228   4.634  14.055 -0.2832 -1.6436  0.1348
16970TIP3    H272326   1.162   4.707  14.170  0.6879  0.1254 -0.3940
16971TIP3   OH272327   1.416   0.535   1.568  0.0445  0.1448  0.0126
16971TIP3    H172328   1.452   0.453   1.602  0.5709  1.3193  2.5117
16971TIP3    H272329   1.396   0.587   1.646 -2.4125  1.5410 -1.4070
16972TIP3   OH272330   5.462   3.039  12.374  0.3063  0.9999  0.0081
16972TIP3    H172331   5.514   3.036  12.293 -0.1950 -2.0537 -0.3478
16972TIP3    H272332   5.522   3.006  12.441 -0.3702 -0.1585  0.0738
16973TIP3   OH272333   2.106   1.517  16.850  0.1161  0.1991  0.4146
16973TIP3    H172334   2.084   1.443  16.794 -1.4644  0.1138  1.0894
16973TIP3    H272335   2.046   1.510  16.925  0.8406  1.4039  1.1506
16974TIP3   OH272336   5.650   0.234  13.585  0.2622 -0.0868 -0.2039
16974TIP3    H172337   5.737   0.197  13.600  0.1829 -0.5301 -0.8033
16974TIP3    H272338   5.592   0.181  13.641  0.3612  0.1575  0.1352
16975TIP3   OH272339   6.251   3.997   0.905  0.4174  0.0530  0.2033
16975TIP3    H172340   6.167   4.029   0.939  1.1868  1.8895  0.4824
16975TIP3    H272341   6.238   3.995   0.810 -0.6314 -1.8460  0.3332
16976TIP3   OH272342   3.213   5.441   2.815 -0.5680  0.4660 -0.6364
16976TIP3    H172343   3.121   5.456   2.794 -0.2936  0.3913 -1.9982
16976TIP3    H272344   3.257   5.520   2.783 -0.1519  0.4945 -0.0027
16977TIP3   OH272345   2.065   0.240  14.201 -0.0669 -0.3729 -0.6905
16977TIP3    H172346   2.078   0.325  14.244  0.7553 -1.0529  0.4768
16977TIP3    H272347   2.140   0.232  14.142 -0.6287  0.0977 -1.4791
16978TIP3   OH272348   1.899   0.822   1.819  0.4319 -0.2457 -0.5384
16978TIP3    H172349   1.887   0.733   1.851 -0.7550  0.0659 -0.0557
16978TIP3    H272350   1.841   0.829   1.743 -0.7057  0.5615  0.3600
16979TIP3   OH272351   0.877   6.647   3.567 -0.2805  0.4687 -0.9407
16979TIP3    H172352   0.839   6.707   3.631 -1.3517 -1.8353  0.7099
16979TIP3    H272353   0.971   6.650   3.585 -0.6544 -1.2540  1.9261
16980TIP3   OH272354   5.086   5.279   5.524  0.3345  0.2852 -0.3269
16980TIP3    H172355   5.075   5.200   5.470 -2.0499  0.2151  0.1506
16980TIP3    H272356   5.147   5.252   5.593 -1.5784 -1.7077  0.7198
16981TIP3   OH272357   2.953   0.415  13.577 -0.0713 -0.1613 -0.1491
16981TIP3    H172358   3.049   0.414  13.578 -0.0430  0.1110 -1.1604
16981TIP3    H272359   2.931   0.479  13.508 -0.9680 -1.3054 -0.9609
16982TIP3   OH272360   0.306   6.010  15.177 -0.4586 -0.7614  0.1475
16982TIP3    H172361   0.275   5.948  15.111  0.9503  0.1281 -1.4077
16982TIP3    H272362   0.397   5.983  15.194 -0.3857 -0.1682  0.7324
16983TIP3   OH272363   4.395   2.270  13.786 -0.2159 -0.1577 -0.3269
16983TIP3    H172364   4.404   2.243  13.694  2.3376 -0.8632  0.0301
16983TIP3    H272365   4.359   2.358  13.782 -0.0893 -0.1465 -2.0310
16984TIP3   OH272366   2.254   1.320   2.072  0.2048 -0.1854  0.2790
16984TIP3    H172367   2.329   1.281   2.115 -0.2411  0.6094  1.8608
16984TIP3    H272368   2.243   1.269   1.991  2.6482 -0.0593 -0.2080
16985TIP3   OH272369   4.585   0.804  12.936  0.1392 -0.1293  0.3579
16985TIP3    H172370   4.505   0.853  12.952 -0.6094 -1.4235  0.6848
16985TIP3    H272371   4.652   0.848  12.989 -0.3440  0.9389  0.1053
16986TIP3   OH272372   5.329   2.919  13.151  0.0327  0.3517 -0.0955
16986TIP3    H172373   5.354   3.000  13.196 -0.7842 -0.3067  1.6612
16986TIP3    H272374   5.411   2.871  13.140  0.2695  0.5602  0.6902
16987TIP3   OH272375   4.009   6.142  16.688  0.3221 -0.1959 -0.2434
16987TIP3    H172376   4.064   6.208  16.730  0.3603 -0.0866 -0.4616
16987TIP3    H272377   4.052   6.059  16.709  0.5216 -0.1172 -0.3371
16988TIP3   OH272378   4.903   4.138  13.824  0.2351  0.2191  0.4980
16988TIP3    H172379   4.873   4.144  13.733  1.8267 -0.7192 -0.1394
16988TIP3    H272380   4.986   4.187  13.824  0.7191 -0.5829  1.2031
16989TIP3   OH272381   5.967   3.141   6.464  0.4590 -0.1990 -0.2204
16989TIP3    H172382   6.036   3.193   6.504  0.6465 -0.0334 -0.7468
16989TIP3    H272383   6.009   3.058   6.442  0.0812 -0.7199  0.9146
16990TIP3   OH272384   5.714   4.067  13.908 -0.2458  0.3758  0.5428
16990TIP3    H172385   5.660   4.027  13.976 -0.2170 -0.8792 -0.1361
16990TIP3    H272386   5.720   4.000  13.840  0.7608  1.1292 -0.1417
16991TIP3   OH272387   4.284   1.962  16.180  0.3376 -0.2508  0.5541
16991TIP3    H172388   4.350   1.894  16.174  2.2269  1.3708  1.6286
16991TIP3    H272389   4.237   1.944  16.262  0.2564 -0.7265  0.4021
16992TIP3   OH272390   1.905   5.573   1.640 -0.1457 -0.0599 -0.0426
16992TIP3    H172391   1.839   5.585   1.708 -1.5939 -0.5366 -1.3113
16992TIP3    H272392   1.962   5.650   1.648  0.2862 -0.5336  2.2531
16993TIP3   OH272393   3.876   1.884   5.083  0.4353 -0.4435 -0.4489
16993TIP3    H172394   3.802   1.823   5.080  1.4537 -1.8312  1.0832
16993TIP3    H272395   3.839   1.964   5.120 -0.5450 -0.7204 -0.7964
16994TIP3   OH272396   3.304   4.103   1.811 -0.2331  0.7868  0.0099
16994TIP3    H172397   3.343   4.160   1.744  2.4524 -2.0725 -1.1521
16994TIP3    H272398   3.315   4.151   1.893  4.1984  1.1271 -0.5343
16995TIP3   OH272399   0.088   0.399   5.758  0.6071  0.1050 -0.0328
16995TIP3    H172400   0.045   0.375   5.840 -3.3407  0.3656 -1.7841
16995TIP3    H272401   0.052   0.485   5.736 -0.2190 -0.8606 -2.9944
16996TIP3   OH272402   0.451   5.233   3.603 -0.1270 -0.0951  0.5709
16996TIP3    H172403   0.417   5.146   3.627 -0.8199 -0.0871 -0.3177
16996TIP3    H272404   0.394   5.294   3.650 -1.3289 -0.0843 -0.8361
16997TIP3   OH272405   5.696   0.761  13.607 -0.4933 -0.4207 -0.1947
16997TIP3    H172406   5.691   0.739  13.514 -0.9811  0.6624 -0.4416
16997TIP3    H272407   5.715   0.678  13.650  0.1948 -0.8647 -1.2957
16998TIP3   OH272408   5.970   3.181  17.151  0.2858  0.2522  0.7159
16998TIP3    H172409   6.056   3.171  17.194  1.3305  0.4270 -1.2149
16998TIP3    H272410   5.991   3.203  17.060 -1.8365  1.0558  0.3606
16999TIP3   OH272411   3.940   3.040   0.056  0.1331  0.0374  0.3917
16999TIP3    H172412   3.915   2.966  -0.000  1.1389 -0.3877  0.4769
16999TIP3    H272413   3.859   3.087   0.072 -0.1619  0.2142 -1.4769
17000TIP3   OH272414   2.204   5.161  12.734 -0.2365  0.4913  0.0575
17000TIP3    H172415   2.256   5.085  12.710 -1.5690 -0.5929  0.4252
17000TIP3    H272416   2.150   5.179  12.656 -1.0121  0.0887  0.4929
17001TIP3   OH272417   5.809   6.091  13.937 -0.3670 -0.1796  0.2921
17001TIP3    H172418   5.830   6.112  14.028 -0.0931 -0.3639  0.2714
17001TIP3    H272419   5.868   6.146  13.886 -1.8013  1.3393  0.1865
17002TIP3   OH272420   2.769   2.650   1.508 -0.2855  0.5694  0.1821
17002TIP3    H172421   2.786   2.559   1.481 -1.3536  0.4333 -0.0751
17002TIP3    H272422   2.791   2.702   1.430  0.3003  0.5444  0.3205
17003TIP3   OH272423   4.727   1.782   2.364  1.0316  0.2619  0.4074
17003TIP3    H172424   4.720   1.853   2.427 -1.6345  1.4656 -1.0836
17003TIP3    H272425   4.786   1.814   2.296 -1.0434  1.6654 -0.8469
17004TIP3   OH272426   6.214   5.438  14.097 -0.0927 -0.1345 -0.6006
17004TIP3    H172427   6.210   5.385  14.177 -1.1331 -1.4296 -1.4703
17004TIP3    H272428   6.151   5.509  14.113 -0.9433 -0.8681 -0.5749
17005TIP3   OH272429   2.321   6.144   6.141  0.7523 -0.1532  0.3809
17005TIP3    H172430   2.326   6.068   6.083  1.1369  0.5450 -0.5282
17005TIP3    H272431   2.320   6.107   6.230 -3.3769 -1.4881 -0.0061
17006TIP3   OH272432   4.928   2.537  13.686  0.3276  0.0424 -0.3009
17006TIP3    H172433   4.943   2.456  13.735  0.4339  1.6950  2.6697
17006TIP3    H272434   5.015   2.561  13.652  0.9380  0.3302  1.3378
17007TIP3   OH272435   1.377   4.803  16.052  0.4221  0.0049 -0.5068
17007TIP3    H172436   1.325   4.883  16.058  2.6153  1.4046  1.5656
17007TIP3    H272437   1.337   4.744  16.116 -0.3441 -0.0696 -1.0319
17008TIP3   OH272438   1.336   2.585   5.566  0.0518  0.1986  0.6371
17008TIP3    H172439   1.242   2.591   5.583 -0.1555  0.3087 -0.4237
17008TIP3    H272440   1.369   2.526   5.633 -0.3899  1.8382  2.3667
17009TIP3   OH272441   3.800   0.956  11.482  0.6723  0.0762  0.0809
17009TIP3    H172442   3.855   1.022  11.523  0.4559 -0.2518  0.9341
17009TIP3    H272443   3.802   0.976  11.389 -0.7499  2.3322  0.4468
17010TIP3   OH272444   0.506   5.696   5.478 -0.0251 -0.0303  0.8345
17010TIP3    H172445   0.518   5.604   5.454 -1.6545  0.5584 -2.8170
17010TIP3    H272446   0.416   5.700   5.510 -1.4590  0.8005 -2.8727
17011TIP3   OH272447   2.398   1.144   3.337 -0.1443  0.2897  0.4016
17011TIP3    H172448   2.342   1.073   3.369 -0.1581  0.2590  0.3099
17011TIP3    H272449   2.420   1.118   3.247  1.0919 -0.3421  0.8649
17012TIP3   OH272450   1.583   3.769  12.347 -0.4098 -0.0571 -0.7775
17012TIP3    H172451   1.500   3.756  12.302 -0.1804 -1.3442 -0.8840
17012TIP3    H272452   1.636   3.693  12.321  1.0962  1.1371 -1.3719
17013TIP3   OH272453   6.057   2.227  12.164  0.2527 -0.1613 -0.6407
17013TIP3    H172454   6.128   2.188  12.113  1.6883  0.2557  0.9619
17013TIP3    H272455   6.100   2.269  12.238 -1.4664  2.1723 -0.8477
17014TIP3   OH272456   1.382   5.181  17.227 -0.2720 -0.3242 -0.1739
17014TIP3    H172457   1.438   5.123  17.176  1.2122  1.7037 -1.0013
17014TIP3    H272458   1.404   5.162  17.318  0.2733 -0.9518 -0.4288
17015TIP3   OH272459   4.012   2.098   6.560  0.1084  0.1587  0.2199
17015TIP3    H172460   4.068   2.170   6.529 -2.1862  1.6197 -0.8148
17015TIP3    H272461   3.925   2.137   6.569 -1.0536 -2.2910  0.5513
17016TIP3   OH272462   5.888   2.518   3.300 -0.3055 -0.8917 -0.2846
17016TIP3    H172463   5.875   2.472   3.217  0.4895 -0.9155 -0.4025
17016TIP3    H272464   5.914   2.450   3.362 -1.7943 -1.0292  0.2347
17017TIP3   OH272465   6.593   0.708  13.434  0.3689 -0.2636 -0.1258
17017TIP3    H172466   6.588   0.615  13.453  2.1186 -0.4494 -0.3374
17017TIP3    H272467   6.639   0.745  13.510 -0.4189  0.4582  0.0147
17018TIP3   OH272468   5.148   2.071   2.774  0.1120 -0.0411 -0.6294
17018TIP3    H172469   5.218   2.073   2.839 -0.4399  0.2052 -0.0303
17018TIP3    H272470   5.137   1.978   2.755  0.2725 -0.1151 -0.3689
17019TIP3   OH272471   6.368   5.221  17.146  0.0176 -0.2037 -0.0249
17019TIP3    H172472   6.421   5.155  17.101  1.0022  0.0296  0.7599
17019TIP3    H272473   6.280   5.211  17.108 -0.0634 -2.4862  0.5770
17020TIP3   OH272474   3.111   2.204   5.871  0.4419  0.3054 -0.3888
17020TIP3    H172475   3.201   2.231   5.889 -0.1952  1.3822  1.4768
17020TIP3    H272476   3.071   2.194   5.957 -1.2538 -0.0605 -1.1715
17021TIP3   OH272477   0.305   4.371   0.237 -0.8140  0.1790  0.3641
17021TIP3    H172478   0.262   4.356   0.321 -2.2657  1.3926 -0.1256
17021TIP3    H272479   0.335   4.462   0.241  1.7262 -0.5817  0.6479
17022TIP3   OH272480   2.295   1.057  11.699  0.0549  0.6183  0.2550
17022TIP3    H172481   2.291   0.984  11.637  1.8471  0.8940 -0.2237
17022TIP3    H272482   2.387   1.080  11.704 -0.0629  0.8009  2.8484
17023TIP3   OH272483   0.675   1.447   0.153 -0.3504  0.4561 -0.5453
17023TIP3    H172484   0.732   1.520   0.175 -0.0478 -0.2350  1.0922
17023TIP3    H272485   0.608   1.485   0.096  0.0404  1.9119 -0.0762
17024TIP3   OH272486   2.064   2.749   0.403 -0.2885 -0.4252 -0.1216
17024TIP3    H172487   2.108   2.665   0.392  1.3243  0.3889 -0.1499
17024TIP3    H272488   2.107   2.789   0.478 -0.8705  0.4896 -0.2584
17025TIP3   OH272489   4.926   4.464   1.959  0.5139  0.1296 -0.0012
17025TIP3    H172490   5.008   4.451   2.007 -0.7437 -1.3032  1.9382
17025TIP3    H272491   4.883   4.378   1.964 -1.2909  0.9664 -0.5508
17026TIP3   OH272492   3.093   2.668  13.241 -0.1688 -0.2649  0.4196
17026TIP3    H172493   3.123   2.728  13.173  0.6549 -0.7080  0.3768
17026TIP3    H272494   3.165   2.666  13.304 -1.7407  1.8300  2.4688
17027TIP3   OH272495   6.014   1.309   2.012 -0.9657  0.4376  0.9442
17027TIP3    H172496   5.986   1.233   2.064  0.0844  0.2630  1.2764
17027TIP3    H272497   6.108   1.318   2.031 -1.1266  1.9771  1.1013
17028TIP3   OH272498   6.454   0.591   2.498 -0.5198 -0.1331 -0.8454
17028TIP3    H172499   6.385   0.629   2.552 -1.0581 -2.9034  0.5917
17028TIP3    H272500   6.413   0.514   2.458  1.2290 -0.8095 -1.4216
17029TIP3   OH272501   1.091   1.098   1.556 -0.4855 -0.4377 -0.2339
17029TIP3    H172502   1.041   1.064   1.481 -0.8245  0.7183 -0.5429
17029TIP3    H272503   1.182   1.099   1.525 -0.4297 -1.2860 -0.1291
17030TIP3   OH272504   0.826   1.596   3.657  0.2522  0.5829 -0.3960
17030TIP3    H172505   0.896   1.548   3.700  2.0152  1.2991 -2.2853
17030TIP3    H272506   0.816   1.676   3.709  0.3331  0.1516  0.2894
17031TIP3   OH272507   4.850   1.089  16.902  0.3129  0.5230 -0.5714
17031TIP3    H172508   4.875   1.136  16.981  1.4962 -0.2831 -0.4470
17031TIP3    H272509   4.878   1.147  16.830  0.9939  0.3945 -0.4135
17032TIP3   OH272510   3.923   4.710  12.386  0.6411  0.3870  0.0578
17032TIP3    H172511   3.838   4.706  12.344  0.9805 -2.6981 -0.5331
17032TIP3    H272512   3.908   4.759  12.467 -1.1366  1.8401 -1.0796
17033TIP3   OH272513   3.165   2.515  11.983 -0.3115 -0.2718 -0.0934
17033TIP3    H172514   3.168   2.433  11.934  1.7881  0.5091 -1.4044
17033TIP3    H272515   3.255   2.547  11.982 -1.0059  1.8817  0.6782
17034TIP3   OH272516   2.106   2.618  15.816 -0.2698 -0.3638  0.3952
17034TIP3    H172517   2.169   2.638  15.885 -1.8875 -0.1962  1.9278
17034TIP3    H272518   2.066   2.702  15.794  0.1126 -0.4432 -0.6484
17035TIP3   OH272519   6.500   2.573  12.943 -0.7544 -0.1147 -0.1866
17035TIP3    H172520   6.405   2.583  12.947 -0.9801 -1.2782 -1.7698
17035TIP3    H272521   6.521   2.576  12.849  1.0732  2.4693  0.2030
17036TIP3   OH272522   5.178   2.160  14.063 -0.2246  0.0041 -0.0834
17036TIP3    H172523   5.216   2.118  14.141  1.1230 -1.2435 -1.3598
17036TIP3    H272524   5.254   2.191  14.014 -1.1159  1.8630 -0.3465
17037TIP3   OH272525   4.723   2.101  15.638  0.0250  0.2545  0.0110
17037TIP3    H172526   4.740   2.027  15.696 -1.8661  0.9407  1.5710
17037TIP3    H272527   4.725   2.063  15.550  0.1161 -1.4419  0.6986
17038TIP3   OH272528   4.018   0.817   2.359  0.0101 -0.1015 -0.2318
17038TIP3    H172529   4.070   0.885   2.316 -0.3714 -0.0550 -0.6263
17038TIP3    H272530   4.030   0.833   2.453  1.6223 -0.7900 -0.2966
17039TIP3   OH272531   3.177   1.851  11.655  0.8081  0.3223  0.4063
17039TIP3    H172532   3.166   1.838  11.750 -0.3656  2.2925  0.6031
17039TIP3    H272533   3.167   1.763  11.618  1.9511 -0.5937  2.1385
17040TIP3   OH272534   0.274   0.275  16.343 -0.4758 -0.5788  0.3050
17040TIP3    H172535   0.204   0.237  16.396 -1.6604  1.0003 -0.0614
17040TIP3    H272536   0.301   0.354  16.392 -0.3165 -0.1029 -0.5349
17041TIP3   OH272537   1.563   2.137  12.490  0.0198  0.2420  0.5757
17041TIP3    H172538   1.568   2.154  12.584  2.6658 -0.0077  0.5673
17041TIP3    H272539   1.474   2.104  12.476 -1.3722  2.7922  2.4979
17042TIP3   OH272540   4.186   2.297   6.477  0.2086  0.4011 -0.9023
17042TIP3    H172541   4.265   2.259   6.440  2.1087  2.2880  0.9981
17042TIP3    H272542   4.162   2.368   6.416 -0.3740 -0.4948 -1.7455
17043TIP3   OH272543   0.496   4.440   1.804  0.0663  0.5078 -0.2694
17043TIP3    H172544   0.450   4.479   1.878  1.7025  0.2271  0.9556
17043TIP3    H272545   0.430   4.388   1.759 -0.9865  0.7286  0.9769
17044TIP3   OH272546   6.689   4.302  11.036  0.6149  0.1644  0.1541
17044TIP3    H172547   6.717   4.286  11.126 -0.9443 -1.3667  0.4230
17044TIP3    H272548   6.761   4.269  10.982  0.6199 -1.0049  0.8409
17045TIP3   OH272549   5.668   1.641  11.668  0.2074 -0.3194  0.3846
17045TIP3    H172550   5.596   1.583  11.643 -1.2973  1.3763  0.5241
17045TIP3    H272551   5.724   1.587  11.724 -1.1046 -1.6398  0.4948
17046TIP3   OH272552   5.113   6.421   4.805  0.2047  0.2591 -0.0034
17046TIP3    H172553   5.044   6.443   4.867 -1.0717 -0.4364 -1.1416
17046TIP3    H272554   5.139   6.332   4.828  0.9371  0.6173  0.5965
17047TIP3   OH272555   2.025   1.527   2.418  0.1034  1.0075 -0.2792
17047TIP3    H172556   2.040   1.620   2.435  0.9055  0.8259  0.0597
17047TIP3    H272557   2.023   1.520   2.323 -0.3351  1.4242 -0.3059
17048TIP3   OH272558   1.852   2.968  11.834 -0.4438 -0.4858 -0.1341
17048TIP3    H172559   1.853   3.027  11.759 -0.4083  0.4755  0.6023
17048TIP3    H272560   1.761   2.937  11.839 -0.8877  0.8623  0.4872
17049TIP3   OH272561   0.924   3.574   2.835  0.1081 -0.0050 -0.2210
17049TIP3    H172562   0.981   3.645   2.864 -0.6251  0.7859 -0.6765
17049TIP3    H272563   0.979   3.523   2.774  0.0291  1.3543 -1.4865
17050TIP3   OH272564   3.452   3.690   4.514  0.2692 -0.0184  0.3081
17050TIP3    H172565   3.508   3.665   4.441 -0.6863 -0.0470 -0.4438
17050TIP3    H272566   3.506   3.679   4.592  1.7643  1.3155 -0.4872
17051TIP3   OH272567   4.026   1.609  12.897 -0.0453 -0.5149 -0.7966
17051TIP3    H172568   3.972   1.584  12.972 -0.6220  0.5478 -0.8443
17051TIP3    H272569   4.060   1.526  12.864 -1.3080 -1.1668 -0.5127
17052TIP3   OH272570   1.664   5.158  17.185  0.0884  0.1437  0.0152
17052TIP3    H172571   1.740   5.101  17.196  0.8324  0.7034 -1.9398
17052TIP3    H272572   1.640   5.183  17.274  2.0272 -0.2625  0.6944
17053TIP3   OH272573   0.795   4.276  10.895 -0.5268 -0.5321  0.1408
17053TIP3    H172574   0.778   4.328  10.974  0.0627  0.7689 -0.5720
17053TIP3    H272575   0.755   4.326  10.824  0.1432 -1.0082 -0.5859
17054TIP3   OH272576   0.917   3.008   0.497  0.1901  0.1428 -0.2096
17054TIP3    H172577   0.914   3.087   0.552 -0.6533 -0.1292  0.1580
17054TIP3    H272578   0.925   2.936   0.559  2.5708  0.0006 -0.6128
17055TIP3   OH272579   5.569   3.997   0.370 -0.0449  0.7846 -0.0172
17055TIP3    H172580   5.560   4.080   0.322 -0.8563 -0.1011 -1.4703
17055TIP3    H272581   5.636   3.949   0.322  0.3310  0.5355  0.7448
17056TIP3   OH272582   2.968   4.742  14.236  0.2719 -0.5832 -0.6779
17056TIP3    H172583   2.962   4.819  14.179  0.1611 -2.1744 -2.9471
17056TIP3    H272584   3.062   4.735  14.256  0.2213  0.3946 -0.0299
17057TIP3   OH272585   3.192   2.218   2.440  0.0552  0.2824 -0.5427
17057TIP3    H172586   3.133   2.259   2.377 -1.4522  1.4248  1.4914
17057TIP3    H272587   3.136   2.197   2.515  2.1072  0.8123  1.2273
17058TIP3   OH272588   3.626   3.868  17.110  0.2548  0.0013 -0.4496
17058TIP3    H172589   3.685   3.908  17.174  0.0914 -0.0691 -0.2549
17058TIP3    H272590   3.573   3.807  17.161  2.2912 -2.4986 -1.1049
17059TIP3   OH272591   0.023   2.699   5.209  0.1788  0.4723  0.3071
17059TIP3    H172592   0.070   2.741   5.137 -0.8687 -0.6304 -1.0730
17059TIP3    H272593  -0.067   2.731   5.200 -0.2674 -0.7747  0.2331
17060TIP3   OH272594   1.652   0.647  16.420 -0.3381 -0.5559 -0.3152
17060TIP3    H172595   1.609   0.701  16.486 -1.6197  1.9221 -2.9145
17060TIP3    H272596   1.582   0.589  16.388  0.1526 -1.4384  0.2010
17061TIP3   OH272597   6.110   4.902   3.668  1.0100  0.0025  0.0044
17061TIP3    H172598   6.130   4.964   3.598 -1.6140  1.7923  0.6840
17061TIP3    H272599   6.152   4.939   3.745 -0.1486  0.7296  0.3100
17062TIP3   OH272600   2.128   4.120  12.062 -0.2987  0.0838  0.3463
17062TIP3    H172601   2.146   4.059  11.991 -0.1499 -0.0221  0.4730
17062TIP3    H272602   2.213   4.159  12.082 -0.8930  2.9039 -2.0364
17063TIP3   OH272603   4.356   4.222  17.095 -0.6933  0.1299  0.4830
17063TIP3    H172604   4.311   4.173  17.164 -0.2901 -0.5816  0.2417
17063TIP3    H272605   4.403   4.291  17.142 -2.1776  1.0307  0.7262
17064TIP3   OH272606   1.885   3.079   4.387 -0.4629 -0.4027 -0.2120
17064TIP3    H172607   1.949   3.149   4.375  0.0605 -0.8506 -0.0278
17064TIP3    H272608   1.915   3.008   4.331 -0.7723 -0.6330 -0.0892
17065TIP3   OH272609   2.892   2.756   1.813  0.2717 -0.3965  0.1655
17065TIP3    H172610   2.878   2.850   1.806  0.0040 -0.1018  3.4516
17065TIP3    H272611   2.974   2.748   1.862  0.8499 -1.9256 -0.9765
17066TIP3   OH272612   6.304   4.759   5.398 -0.2903  0.1852 -0.0011
17066TIP3    H172613   6.261   4.844   5.388  0.4545  0.6256  0.3981
17066TIP3    H272614   6.394   4.781   5.424  0.1699 -0.6967 -0.7643
17067TIP3   OH272615   4.379   5.845   4.806 -0.3897  0.0073 -0.0297
17067TIP3    H172616   4.302   5.826   4.860 -0.9668  0.7319 -0.5833
17067TIP3    H272617   4.366   5.935   4.776  0.4137 -0.0439 -0.5700
17068TIP3   OH272618   6.562   6.353  12.847  0.3594  0.4706  0.4619
17068TIP3    H172619   6.653   6.339  12.874  0.3324 -0.1229  0.2605
17068TIP3    H272620   6.565   6.431  12.793  0.7249  0.5464  0.5845
17069TIP3   OH272621   2.235   6.640   2.696 -0.0057  0.3724 -0.1335
17069TIP3    H172622   2.222   6.735   2.692 -1.1178  0.3362  1.5723
17069TIP3    H272623   2.307   6.629   2.758 -0.3990  0.0841  0.2762
17070TIP3   OH272624   2.549   6.039  14.959  0.2261  0.2913 -0.2819
17070TIP3    H172625   2.637   6.005  14.944  0.7740  0.8294  1.4675
17070TIP3    H272626   2.558   6.096  15.036 -1.6050  0.5199 -0.1923
17071TIP3   OH272627   1.365   0.055  14.706 -0.1999  0.5540  0.4703
17071TIP3    H172628   1.397   0.140  14.738 -0.6543  0.8351  0.1864
17071TIP3    H272629   1.355   0.002  14.786 -1.0527  1.1598  0.7924
17072TIP3   OH272630   4.979   4.545  11.877  0.0265  0.5404  0.3577
17072TIP3    H172631   4.907   4.524  11.818  0.5135  0.1508 -0.1049
17072TIP3    H272632   4.938   4.552  11.963 -1.1104  3.4225 -0.2886
17073TIP3   OH272633   0.748   0.047  15.038  0.1191  0.0165 -0.3850
17073TIP3    H172634   0.724   0.025  15.128 -1.8860  0.2592 -0.8208
17073TIP3    H272635   0.669   0.029  14.986 -0.4804  4.3919 -1.3598
17074TIP3   OH272636   4.440   5.448   3.560  0.1454 -0.4795 -0.0354
17074TIP3    H172637   4.501   5.493   3.619 -0.0619 -0.9623  0.5628
17074TIP3    H272638   4.485   5.367   3.537 -0.2696 -0.8483  0.4266
17075TIP3   OH272639   2.680   2.739   2.035 -0.5118 -0.1861  0.2128
17075TIP3    H172640   2.688   2.708   1.945  1.0426 -0.4373  0.3966
17075TIP3    H272641   2.758   2.795   2.047 -0.5427 -0.3909  1.4768
17076TIP3   OH272642   2.317   1.077   5.324 -0.1586  0.0698 -0.7384
17076TIP3    H172643   2.325   0.993   5.369  0.4470  0.6983  0.3501
17076TIP3    H272644   2.407   1.105   5.310 -0.3422  0.0744 -2.0104
17077TIP3   OH272645   4.317   6.111  15.366 -0.0925 -0.0021  0.4920
17077TIP3    H172646   4.404   6.092  15.332 -0.1529  0.7082 -0.0825
17077TIP3    H272647   4.325   6.101  15.461  0.0059 -2.2922  0.3032
17078TIP3   OH272648   6.242   2.237   3.092  0.5834 -0.0767  0.0373
17078TIP3    H172649   6.207   2.325   3.077  0.4485  0.0034  0.7597
17078TIP3    H272650   6.256   2.201   3.005  1.3281  0.9297 -0.2793
17079TIP3   OH272651   2.795   3.466   0.934  0.1321  0.1824 -0.1729
17079TIP3    H172652   2.788   3.438   0.842 -1.5570 -0.1205  0.0150
17079TIP3    H272653   2.860   3.406   0.972 -0.9760 -1.3699 -0.6002
17080TIP3   OH272654   0.669   4.928  16.893 -0.3768  0.0860  0.0796
17080TIP3    H172655   0.761   4.904  16.906 -0.4584 -0.4061 -0.2066
17080TIP3    H272656   0.632   4.930  16.980 -0.5065 -1.4314  0.0808
17081TIP3   OH272657   4.161   0.529   1.216  0.4674 -0.1474 -0.2403
17081TIP3    H172658   4.115   0.600   1.171 -0.3553  0.3587  1.3219
17081TIP3    H272659   4.248   0.565   1.234 -0.2402  0.8634  1.3656
17082TIP3   OH272660   4.394   0.375  13.073  0.4450 -0.1664 -0.8969
17082TIP3    H172661   4.321   0.410  13.021  1.3710  1.7683 -0.9679
17082TIP3    H272662   4.351   0.335  13.149 -0.7261  0.5612 -1.1401
17083TIP3   OH272663   0.133   3.243  14.740 -0.4994  0.3584  0.1507
17083TIP3    H172664   0.067   3.256  14.808 -0.4669  2.1938 -0.1188
17083TIP3    H272665   0.190   3.175  14.775 -0.9737  0.6587  1.5940
17084TIP3   OH272666   0.117   2.585   0.296 -0.5412  0.1207  0.1812
17084TIP3    H172667   0.134   2.679   0.303 -0.5912  0.0843  0.9348
17084TIP3    H272668   0.203   2.544   0.308 -0.4358  0.0841 -0.6755
17085TIP3   OH272669   6.142   0.996  11.570 -0.7350  0.1656 -0.0486
17085TIP3    H172670   6.083   0.927  11.537  0.0431  0.3285 -1.9222
17085TIP3    H272671   6.086   1.051  11.625 -1.8596 -0.7949 -0.1744
17086TIP3   OH272672   1.354   3.505   5.803  0.0033 -0.1758 -0.2440
17086TIP3    H172673   1.303   3.458   5.737 -0.6131 -0.4383  0.4156
17086TIP3    H272674   1.340   3.457   5.884 -0.0655  0.7313  0.3019
17087TIP3   OH272675   4.078   4.406   0.461 -0.3170 -0.6961 -0.3311
17087TIP3    H172676   4.116   4.328   0.422  0.9279  0.0141 -0.5954
17087TIP3    H272677   4.149   4.470   0.461 -1.1014  0.2152  0.5281
17088TIP3   OH272678   5.407   5.704  16.875  0.3499 -0.4585 -0.8818
17088TIP3    H172679   5.392   5.793  16.844 -1.1439 -0.2914  0.2358
17088TIP3    H272680   5.328   5.656  16.852 -1.1531 -0.1880  2.9505
17089TIP3   OH272681   6.719   1.181  11.104 -0.1034  0.4596 -0.1648
17089TIP3    H172682   6.664   1.239  11.051 -0.1874  0.6413  0.1178
17089TIP3    H272683   6.780   1.241  11.148  0.9255  0.1862 -1.1761
17090TIP3   OH272684   0.379   2.593   2.848 -0.3435 -0.2640 -0.1654
17090TIP3    H172685   0.405   2.514   2.894  1.3540  0.1766 -0.3152
17090TIP3    H272686   0.358   2.656   2.918 -1.0030 -0.6030 -0.0472
17091TIP3   OH272687   1.004   3.380  15.450  0.4467 -0.0462  0.1479
17091TIP3    H172688   1.063   3.442  15.406  1.1432 -0.9732 -0.2459
17091TIP3    H272689   0.976   3.321  15.380 -0.0504 -0.3058  0.5636
17092TIP3   OH272690   5.571   5.502  12.178 -0.0021  0.5837  0.3166
17092TIP3    H172691   5.505   5.436  12.159 -0.4566  1.0403  0.2928
17092TIP3    H272692   5.620   5.511  12.096 -1.1181  1.5949 -0.2735
17093TIP3   OH272693   0.390   3.411   3.482  0.0520  0.0327 -0.5139
17093TIP3    H172694   0.358   3.331   3.524 -0.9682 -0.1089 -1.5060
17093TIP3    H272695   0.485   3.401   3.481 -0.0787 -1.4354 -1.1131
17094TIP3   OH272696   5.152   4.732   3.262 -0.3122  0.5041  0.1260
17094TIP3    H172697   5.147   4.699   3.352 -2.3317  1.4153  0.4075
17094TIP3    H272698   5.230   4.787   3.261 -0.9207  1.4703  1.7025
17095TIP3   OH272699   5.078   4.816  15.938  0.2115  0.2661 -0.4349
17095TIP3    H172700   5.116   4.845  16.020 -2.9194  1.2132  0.8471
17095TIP3    H272701   5.053   4.897  15.893 -0.4640 -0.2806 -1.0708
17096TIP3   OH272702   0.347   2.307   6.156 -0.0690 -0.0919  0.3171
17096TIP3    H172703   0.314   2.394   6.134  2.0210  0.5974 -0.3280
17096TIP3    H272704   0.360   2.264   6.072  0.1059 -0.5614  0.5772
17097TIP3   OH272705   0.592   5.027  12.126 -0.0681 -0.2318 -0.1922
17097TIP3    H172706   0.506   4.986  12.130  0.1061 -0.7111 -1.0818
17097TIP3    H272707   0.576   5.115  12.093 -0.5268  0.7301  2.3728
17098TIP3   OH272708   0.233   2.103  16.826 -0.0226 -0.5238  0.5385
17098TIP3    H172709   0.169   2.147  16.770  1.3683  1.4907  0.4187
17098TIP3    H272710   0.297   2.067  16.764  1.0596  0.9714  0.7236
17099TIP3   OH272711   6.005   4.468   0.674 -0.2488  0.2131 -0.2864
17099TIP3    H172712   6.000   4.562   0.690 -0.8278 -0.1052  1.8061
17099TIP3    H272713   5.932   4.432   0.726  0.0093 -1.3935 -0.9865
17100TIP3   OH272714   2.749   0.325   3.898  0.2276 -0.5035 -0.2842
17100TIP3    H172715   2.713   0.406   3.932  0.6827 -0.3391 -0.1947
17100TIP3    H272716   2.726   0.325   3.805 -0.8305 -0.8554 -0.0331
17101TIP3   OH272717   1.463   3.601   4.802  0.1603  0.1087 -0.4589
17101TIP3    H172718   1.452   3.535   4.871 -0.1631  0.1830 -0.4381
17101TIP3    H272719   1.384   3.656   4.808 -0.6983 -0.8873 -1.9657
17102TIP3   OH272720   4.184   5.090  14.016 -0.3951  0.4062 -0.3062
17102TIP3    H172721   4.103   5.048  13.988 -1.4674 -0.9050  4.0383
17102TIP3    H272722   4.156   5.172  14.056  0.1132 -0.6294  2.3682
17103TIP3   OH272723   3.523   5.237  12.115  0.2736 -0.3404 -0.1502
17103TIP3    H172724   3.537   5.143  12.104 -0.5310 -0.2778 -1.8746
17103TIP3    H272725   3.603   5.277  12.081  0.7256 -0.3746  0.8185
17104TIP3   OH272726   4.551   0.595   1.043 -0.2694  0.1037 -0.2571
17104TIP3    H172727   4.570   0.507   1.011  0.8363  0.2871 -0.1204
17104TIP3    H272728   4.536   0.646   0.963  0.3709  0.0779 -0.4001
17105TIP3   OH272729   5.287   2.530   1.950  0.0292  0.0332  0.2843
17105TIP3    H172730   5.222   2.519   2.019  0.1324 -0.2488  0.3355
17105TIP3    H272731   5.366   2.556   1.996 -0.4139  1.8182  0.1038
17106TIP3   OH272732   4.465   5.454   2.383  0.0559 -0.2902 -0.0003
17106TIP3    H172733   4.395   5.441   2.320  0.9123  0.0227 -1.0331
17106TIP3    H272734   4.463   5.376   2.439 -0.9288 -0.4030 -0.1919
17107TIP3   OH272735   0.319   3.350  11.016 -0.1853  0.4170 -0.1171
17107TIP3    H172736   0.366   3.432  11.027  0.4074  0.0195  0.3643
17107TIP3    H272737   0.318   3.336  10.921 -0.4218  1.0480 -0.2113
17108TIP3   OH272738   1.101   2.066   0.791 -0.2470 -0.2077 -0.0864
17108TIP3    H172739   1.122   1.980   0.827  0.4136 -0.3131 -0.6889
17108TIP3    H272740   1.121   2.128   0.862  0.3993 -0.4621 -0.0387
17109TIP3   OH272741   2.754   1.207  11.867 -0.2928 -0.2577 -0.1217
17109TIP3    H172742   2.843   1.213  11.903 -0.1396  0.5576 -0.5971
17109TIP3    H272743   2.754   1.126  11.817  1.1964  1.1510 -2.6650
17110TIP3   OH272744   1.983   0.900   6.434 -0.2085 -0.2470 -0.3052
17110TIP3    H172745   1.889   0.916   6.428 -0.2895 -0.1966  1.0156
17110TIP3    H272746   1.998   0.828   6.373 -0.8242  0.7810 -1.7454
17111TIP3   OH272747   1.931   1.622  15.129 -0.1261  0.1268  0.1894
17111TIP3    H172748   1.922   1.638  15.223 -1.4545  0.7292 -0.0261
17111TIP3    H272749   1.974   1.536  15.123  0.3008  0.2436  1.3350
17112TIP3   OH272750   1.960   5.716  13.880  0.2487  0.0201 -0.0771
17112TIP3    H172751   2.013   5.687  13.955  0.9104  1.5224  0.0678
17112TIP3    H272752   2.024   5.733  13.811 -0.0567  1.4547 -0.0361
17113TIP3   OH272753   4.015   5.859  12.974  0.0503  0.1606  0.6414
17113TIP3    H172754   4.051   5.837  12.888  1.7026 -1.7911  1.7315
17113TIP3    H272755   3.949   5.791  12.990 -0.1536  0.4297  0.9573
17114TIP3   OH272756   1.368   5.699  15.541  0.4690  0.0598 -0.6926
17114TIP3    H172757   1.387   5.779  15.588  0.0930  0.7143 -1.6226
17114TIP3    H272758   1.284   5.715  15.498 -0.3939 -1.4140  0.3520
17115TIP3   OH272759   0.907   1.202  13.377  0.4632  0.4431 -0.3835
17115TIP3    H172760   0.824   1.185  13.332  1.5857 -3.7183 -1.3836
17115TIP3    H272761   0.968   1.225  13.307  0.9193 -0.1047 -0.1714
17116TIP3   OH272762   4.321   3.060   5.355 -0.4821  0.4047 -0.6492
17116TIP3    H172763   4.316   2.966   5.374 -1.9057  0.8075  1.3236
17116TIP3    H272764   4.242   3.096   5.395 -0.5441  2.3211 -2.3418
17117TIP3   OH272765   2.067   2.973  13.899 -0.0089  0.1522 -0.2338
17117TIP3    H172766   2.094   2.884  13.922 -2.9850 -0.6316  0.5706
17117TIP3    H272767   2.032   2.966  13.810  0.7889  0.7868 -0.6095
17118TIP3   OH272768   0.664   2.306  16.599 -0.0467  0.2778  0.6282
17118TIP3    H172769   0.757   2.286  16.583 -0.3270 -0.2959 -0.3943
17118TIP3    H272770   0.663   2.398  16.624  0.8133  0.2584  0.7540
17119TIP3   OH272771   1.605   0.938   1.311 -0.1868 -0.1567  0.9701
17119TIP3    H172772   1.525   0.972   1.271  0.0618 -0.2403  0.3891
17119TIP3    H272773   1.586   0.846   1.331 -0.0174 -0.3644  0.2095
17120TIP3   OH272774   1.771   6.528  11.324  0.2345  0.2466  0.3883
17120TIP3    H172775   1.776   6.538  11.229 -1.0579  0.0595  0.2870
17120TIP3    H272776   1.859   6.552  11.355  0.9875 -0.7046 -0.9290
17121TIP3   OH272777   3.255   3.835  11.930  0.4768  0.1217  0.4594
17121TIP3    H172778   3.200   3.825  11.852 -0.1345  0.0802  0.8907
17121TIP3    H272779   3.342   3.806  11.902 -0.1954 -1.9449  0.3650
17122TIP3   OH272780   6.285   5.617  13.264 -0.5290  0.3483  0.1800
17122TIP3    H172781   6.303   5.706  13.235 -0.3386 -0.4654 -2.5007
17122TIP3    H272782   6.339   5.605  13.342 -1.5455  2.9418  1.3923
17123TIP3   OH272783   2.174   3.945   0.620  0.2849 -0.2011  0.2108
17123TIP3    H172784   2.220   3.861   0.613  0.9770  0.0290  1.6512
17123TIP3    H272785   2.175   3.965   0.713  0.4210  1.5734 -0.1463
17124TIP3   OH272786   2.820   1.395   1.682  0.5683 -0.0481  0.1227
17124TIP3    H172787   2.835   1.421   1.591  1.7129 -0.1251  0.2658
17124TIP3    H272788   2.908   1.393   1.720  0.1001 -0.0581  1.2202
17125TIP3   OH272789   4.509   0.215   0.883 -0.7081  0.5840  0.1773
17125TIP3    H172790   4.433   0.268   0.907 -0.6539  1.0487 -0.6323
17125TIP3    H272791   4.548   0.261   0.808  1.0542  0.9981  1.2741
17126TIP3   OH272792   2.295   2.285   5.310 -0.2342 -0.0095 -0.3724
17126TIP3    H172793   2.292   2.348   5.381  0.6696  0.1898 -0.4917
17126TIP3    H272794   2.347   2.212   5.345 -0.8231 -0.4638 -0.4150
17127TIP3   OH272795   4.930   4.521   0.941  0.2481 -0.0241 -0.2338
17127TIP3    H172796   4.980   4.602   0.932  0.8001 -0.2177  0.9754
17127TIP3    H272797   4.881   4.515   0.859  0.4446  1.3576 -0.4852
17128TIP3   OH272798   5.922   3.225  12.833 -0.5036  0.2559 -0.2060
17128TIP3    H172799   5.992   3.263  12.779  0.9234  1.0900  2.0495
17128TIP3    H272800   5.876   3.301  12.868 -1.3161 -0.2520 -0.1627
17129TIP3   OH272801   6.750   2.335   6.059  0.5091  0.1991 -0.2403
17129TIP3    H172802   6.726   2.338   6.151 -1.8470  1.0846 -0.8215
17129TIP3    H272803   6.727   2.246   6.031 -0.3129  0.4260 -0.3202
17130TIP3   OH272804   0.814   4.074   1.681  0.1251 -0.6630 -0.1564
17130TIP3    H172805   0.871   4.058   1.756  1.1459  1.4133 -0.4305
17130TIP3    H272806   0.865   4.130   1.623 -1.7480  0.2913 -0.9749
17131TIP3   OH272807   5.238   0.613  15.681 -0.4005 -0.4296  0.2615
17131TIP3    H172808   5.244   0.688  15.623  0.5517 -0.6158  0.0995
17131TIP3    H272809   5.144   0.602  15.697 -0.5878  0.3908 -0.2235
17132TIP3   OH272810   5.822   5.763   2.752  0.1211 -0.3930 -0.0950
17132TIP3    H172811   5.822   5.726   2.663 -0.3501 -2.4218  0.6953
17132TIP3    H272812   5.745   5.820   2.753  0.6634  0.4131 -1.2549
17133TIP3   OH272813   2.884   6.470   3.601 -0.4132  0.1181 -0.1297
17133TIP3    H172814   2.965   6.478   3.651 -0.1774 -0.5798 -0.3962
17133TIP3    H272815   2.891   6.536   3.532 -0.1598  0.1871 -0.0387
17134TIP3   OH272816   1.766   3.789  13.187 -0.2971  0.3443  0.1244
17134TIP3    H172817   1.744   3.882  13.177 -2.7625  0.0179  1.7341
17134TIP3    H272818   1.816   3.784  13.268  0.2405  0.3043 -0.2046
17135TIP3   OH272819   0.876   0.292   1.971  0.1825 -0.5356  0.0088
17135TIP3    H172820   0.907   0.275   1.882  0.8283  1.0338 -0.0825
17135TIP3    H272821   0.781   0.278   1.966  0.1478 -0.0058 -1.0434
17136TIP3   OH272822   4.882   3.907   1.595  0.0632  0.0077  0.0402
17136TIP3    H172823   4.916   3.823   1.627 -0.9852 -0.7636 -0.8148
17136TIP3    H272824   4.959   3.963   1.589  1.0880 -1.4721 -1.1895
17137TIP3   OH272825   1.348   5.768  14.392  0.1591 -0.5404  0.1624
17137TIP3    H172826   1.409   5.752  14.319  0.0869 -0.0845 -0.0026
17137TIP3    H272827   1.264   5.785  14.349 -0.2994 -2.0609  0.4202
17138TIP3   OH272828   0.170   5.990   1.037  0.1922 -0.1757 -0.3906
17138TIP3    H172829   0.132   6.039   0.964 -0.9013  2.4973  1.7718
17138TIP3    H272830   0.240   6.047   1.070  1.6465 -1.9953 -0.1843
17139TIP3   OH272831   3.592   5.819   3.017  0.1868 -0.3076  0.1672
17139TIP3    H172832   3.560   5.738   2.978 -0.8279  1.1233 -2.1965
17139TIP3    H272833   3.687   5.815   3.007  0.2107 -1.4411  0.6543
17140TIP3   OH272834   1.273   1.308  13.347 -0.2381  0.0805 -0.3081
17140TIP3    H172835   1.248   1.242  13.282 -0.7796 -2.1592  2.0419
17140TIP3    H272836   1.368   1.298  13.355 -0.3180 -0.4301  0.0396
17141TIP3   OH272837   3.335   6.735  16.117  0.5216  0.0155  0.3972
17141TIP3    H172838   3.378   6.719  16.033 -0.7529  0.1352 -0.2994
17141TIP3    H272839   3.390   6.799  16.161  0.5387  0.9218 -0.8946
17142TIP3   OH272840   0.651   4.575  17.030 -0.2687 -0.4710 -0.0390
17142TIP3    H172841   0.631   4.666  17.055 -0.0064  0.0437 -1.5738
17142TIP3    H272842   0.642   4.525  17.111  1.0398  1.1464  1.1669
17143TIP3   OH272843   3.207   4.324   5.811 -0.2557  0.4464 -0.6200
17143TIP3    H172844   3.278   4.260   5.815 -3.4124 -3.5647 -0.9850
17143TIP3    H272845   3.174   4.316   5.721 -2.2552  0.6702  0.0361
17144TIP3   OH272846   2.140   4.939   4.781  0.0201  0.2231 -0.5463
17144TIP3    H172847   2.108   4.889   4.706 -1.9582 -0.1556  0.4779
17144TIP3    H272848   2.128   4.880   4.856  0.4495  1.1635  0.2908
17145TIP3   OH272849   4.747   6.303  13.598  0.7180 -0.1677  0.1873
17145TIP3    H172850   4.768   6.374  13.536  0.7275 -0.4304 -0.1148
17145TIP3    H272851   4.822   6.244  13.592  0.4504 -0.4952  0.0070
17146TIP3   OH272852   6.033   6.065  16.228  0.4216  0.8103 -0.2062
17146TIP3    H172853   6.008   5.984  16.183  1.0036 -0.1585  1.1160
17146TIP3    H272854   5.970   6.130  16.198  0.2867  0.0179 -1.7439
17147TIP3   OH272855   2.925   2.789   3.858  0.1461  0.6605  0.1596
17147TIP3    H172856   2.867   2.794   3.781  0.4476 -1.6478 -0.3088
17147TIP3    H272857   2.993   2.726   3.832  0.4068  0.0259  2.2199
17148TIP3   OH272858   2.647   2.880  16.007 -0.0357  0.7188 -0.0381
17148TIP3    H172859   2.624   2.957  15.955 -1.0902 -0.6443 -1.7209
17148TIP3    H272860   2.730   2.850  15.969 -0.6888 -0.1455 -0.8343
17149TIP3   OH272861   2.392   4.463  15.464 -0.7510  0.1626  0.1934
17149TIP3    H172862   2.380   4.534  15.402 -0.1630  0.3387  0.2729
17149TIP3    H272863   2.317   4.405  15.449 -1.1490  0.7119  0.0206
17150TIP3   OH272864   4.310   5.844  12.524 -0.3874 -0.2546 -0.2394
17150TIP3    H172865   4.220   5.872  12.508 -0.8967 -1.4286  0.5116
17150TIP3    H272866   4.305   5.749  12.534  1.3946 -0.8951 -3.5824
17151TIP3   OH272867   6.745   2.950  13.434  0.2054  0.2057 -0.0954
17151TIP3    H172868   6.833   2.988  13.433  0.2090  0.2146  0.5555
17151TIP3    H272869   6.712   2.966  13.345 -0.4138  3.2280  0.5513
17152TIP3   OH272870   1.169   1.394   0.979 -0.0873 -0.4690 -0.2429
17152TIP3    H172871   1.096   1.456   0.988  0.3580  0.0013  0.2444
17152TIP3    H272872   1.238   1.445   0.938 -0.6188 -1.4167 -2.4926
17153TIP3   OH272873   3.305   1.725  15.862 -0.4759  0.8950  0.0250
17153TIP3    H172874   3.352   1.720  15.945 -0.6429  0.9154  0.1204
17153TIP3    H272875   3.212   1.722  15.886 -0.6034  3.0313  0.0114
17154TIP3   OH272876   5.883   5.843  11.607  0.7460  0.0315  0.1564
17154TIP3    H172877   5.964   5.807  11.571  0.2994  0.9393 -1.8576
17154TIP3    H272878   5.819   5.772  11.597  0.1128  0.9265 -2.8881
17155TIP3   OH272879   0.344   5.056  11.830 -0.1259 -0.3895 -0.1270
17155TIP3    H172880   0.271   5.080  11.887 -0.2712  0.3113 -0.5798
17155TIP3    H272881   0.420   5.097  11.870 -0.3665  0.8605 -0.8727
17156TIP3   OH272882   1.694   3.988  15.559  0.6548 -0.4400  0.7468
17156TIP3    H172883   1.652   4.038  15.489 -0.1831  1.4542  2.4875
17156TIP3    H272884   1.657   3.900  15.551  0.1347 -0.1043 -0.7982
17157TIP3   OH272885   5.085   3.170   4.391  0.9060  0.3035 -1.0802
17157TIP3    H172886   5.025   3.245   4.393  0.6271  0.0709  0.8996
17157TIP3    H272887   5.140   3.181   4.469  1.8164 -0.8006 -1.5344
17158TIP3   OH272888   2.834   1.841   2.258 -0.5404 -0.0584  0.5308
17158TIP3    H172889   2.833   1.913   2.321  1.2080  0.5161 -0.0584
17158TIP3    H272890   2.879   1.770   2.303  0.9021  0.4229 -0.1098
17159TIP3   OH272891   5.973   4.502  11.460  0.1408 -0.0506 -0.3531
17159TIP3    H172892   5.960   4.575  11.521  0.4962 -1.4381  1.4963
17159TIP3    H272893   5.953   4.538  11.374  2.0759  2.7264  0.2178
17160TIP3   OH272894   1.357   0.506  16.740 -0.0810  0.6018  0.2402
17160TIP3    H172895   1.293   0.566  16.779  0.5422  2.1604 -1.0173
17160TIP3    H272896   1.305   0.443  16.691 -0.7187  0.7030  0.7737
17161TIP3   OH272897   2.990   1.011  17.338 -0.5524 -0.3808  0.1837
17161TIP3    H172898   2.899   1.022  17.366 -0.6704 -0.5539 -0.1267
17161TIP3    H272899   2.992   0.925  17.297 -0.4876  0.0365 -0.7300
17162TIP3   OH272900   3.769   1.795  16.842 -0.5789  0.0956  0.2976
17162TIP3    H172901   3.688   1.810  16.890 -0.7068 -0.2535  0.1887
17162TIP3    H272902   3.754   1.715  16.792 -0.3069  0.2361 -0.0208
17163TIP3   OH272903   6.415   4.903  14.016 -0.3760 -0.6219 -0.8665
17163TIP3    H172904   6.361   4.828  13.993  0.8364 -2.2819  1.3530
17163TIP3    H272905   6.357   4.961  14.064 -0.2380 -2.5609  1.8422
17164TIP3   OH272906   0.150   2.954   5.803  0.2541  0.1904 -0.7710
17164TIP3    H172907   0.094   2.950   5.726 -0.6183 -0.7729 -0.1154
17164TIP3    H272908   0.177   2.863   5.818 -0.3227  0.2125  0.5674
17165TIP3   OH272909   5.881   4.411   3.460  0.5056 -0.1858  0.1203
17165TIP3    H172910   5.827   4.472   3.409 -2.7894 -1.5946  1.6154
17165TIP3    H272911   5.856   4.428   3.551  1.3166 -2.1136  0.7506
17166TIP3   OH272912   2.642   5.178   3.208  0.1518 -0.4893 -0.1228
17166TIP3    H172913   2.658   5.185   3.114  1.6808  0.1096  0.1342
17166TIP3    H272914   2.697   5.105   3.236  1.7240  0.9224  0.6527
17167TIP3   OH272915   5.355   5.059  14.548  0.1777 -0.5545  0.6407
17167TIP3    H172916   5.365   5.154  14.549 -1.1069 -0.3725 -0.7694
17167TIP3    H272917   5.443   5.026  14.526  0.2920  0.3860 -0.3821
17168TIP3   OH272918   1.104   5.247   4.356  0.6937  0.0093  0.1537
17168TIP3    H172919   1.078   5.298   4.280  1.9295  0.0819 -0.2354
17168TIP3    H272920   1.160   5.178   4.321 -0.6761 -1.4517  0.7129
17169TIP3   OH272921   3.777   0.295   3.448 -0.3451  0.3120  0.0243
17169TIP3    H172922   3.835   0.259   3.515  1.2293  1.7685 -0.4892
17169TIP3    H272923   3.775   0.228   3.380 -2.5783 -1.5315  1.7550
17170TIP3   OH272924   1.001   2.334  14.470  0.2926  0.0689  0.6821
17170TIP3    H172925   0.968   2.349  14.381  1.3014 -1.9743 -0.0944
17170TIP3    H272926   1.075   2.275  14.458 -0.3814 -1.3588  2.9790
17171TIP3   OH272927   5.445   3.306   3.698  0.0187  0.0686  0.1162
17171TIP3    H172928   5.474   3.237   3.757 -0.4224 -0.8841 -0.7635
17171TIP3    H272929   5.383   3.357   3.750  0.2629 -0.2517  0.7349
17172TIP3   OH272930   2.009   4.993   0.669  0.2207  1.0725 -0.0662
17172TIP3    H172931   1.970   5.043   0.741  2.7884  2.0081  0.7658
17172TIP3    H272932   2.044   4.914   0.711 -0.5842  0.2980 -0.7888
17173TIP3   OH272933   3.587   1.278   1.332  0.5164 -0.1948 -0.0564
17173TIP3    H172934   3.547   1.198   1.367  0.2447  0.3593  0.9391
17173TIP3    H272935   3.529   1.348   1.362  3.1357  0.8897  3.0902
17174TIP3   OH272936   3.864   2.477  17.314 -0.0576 -0.2783  0.3906
17174TIP3    H172937   3.797   2.414  17.287 -0.6290  1.1159 -1.6850
17174TIP3    H272938   3.884   2.526  17.234  2.0337  0.6587  1.4171
17175TIP3   OH272939   1.920   5.912   4.149  0.7785 -0.0565  0.2734
17175TIP3    H172940   1.840   5.919   4.097  0.2922 -0.9484  0.8862
17175TIP3    H272941   1.976   5.854   4.097  1.1064  0.6925 -0.2315
17176TIP3   OH272942   2.079   5.566   3.277 -0.2568  0.5346  0.0027
17176TIP3    H172943   2.131   5.633   3.322  0.1267  1.5726 -1.8558
17176TIP3    H272944   2.101   5.578   3.184 -1.2426 -1.2813 -0.4996
17177TIP3   OH272945   4.322   0.923  12.672  0.6954 -0.3355  0.0740
17177TIP3    H172946   4.256   0.881  12.727 -0.0747  0.9544  0.1543
17177TIP3    H272947   4.359   0.851  12.621 -0.0973 -1.2172  0.7087
17178TIP3   OH272948   2.154   5.940   1.172 -0.3805  0.0297  0.5330
17178TIP3    H172949   2.064   5.961   1.198 -0.5085  0.4866 -0.2683
17178TIP3    H272950   2.189   5.889   1.246 -2.4230 -3.3031 -0.5544
17179TIP3   OH272951   1.677   6.090   4.129 -0.0302 -0.4153 -0.6467
17179TIP3    H172952   1.633   6.095   4.045 -2.0516 -0.0168  0.3786
17179TIP3    H272953   1.710   6.178   4.144  0.4084 -0.5087 -1.0497
17180TIP3   OH272954   4.097   6.000   1.222 -0.0797 -0.0174 -0.1128
17180TIP3    H172955   4.081   6.013   1.128  2.4673 -1.7651 -0.8948
17180TIP3    H272956   4.072   6.083   1.262 -3.3431  0.0587 -1.9785
17181TIP3   OH272957   4.906   4.929   1.724 -0.1982 -0.1719  0.2169
17181TIP3    H172958   4.898   4.908   1.631  2.2613  1.1909 -0.3935
17181TIP3    H272959   4.832   4.988   1.742 -1.4779 -1.5067 -0.4764
17182TIP3   OH272960   4.165   1.890   1.687  0.4150 -0.0502 -0.6880
17182TIP3    H172961   4.173   1.973   1.640 -0.5051  0.6890  0.3970
17182TIP3    H272962   4.212   1.905   1.770  0.2355 -0.6109 -0.4800
17183TIP3   OH272963   3.841   1.412  15.479  0.1023  0.3287 -0.2232
17183TIP3    H172964   3.899   1.488  15.478  0.1073  0.3616  0.8150
17183TIP3    H272965   3.766   1.440  15.532 -0.8859  0.2910 -1.5402
17184TIP3   OH272966   6.418   6.614  14.684 -0.7007 -0.8684 -0.7650
17184TIP3    H172967   6.381   6.654  14.763 -2.1500  0.7221 -2.1741
17184TIP3    H272968   6.482   6.551  14.717 -0.3403  0.6404  1.6463
17185TIP3   OH272969   2.216   1.935   5.315 -0.5216  0.3508 -0.0628
17185TIP3    H172970   2.212   1.999   5.386 -1.2834 -1.6280  1.8159
17185TIP3    H272971   2.307   1.934   5.287 -0.6443  2.7686 -0.7151
17186TIP3   OH272972   1.987   4.160  11.268 -0.2434  0.3475  0.2458
17186TIP3    H172973   1.937   4.107  11.206 -0.1311  0.6653 -0.1199
17186TIP3    H272974   2.024   4.097  11.329 -2.4395  0.2201  1.5336
17187TIP3   OH272975   1.147   1.340   3.240 -0.1494 -0.2660  0.2377
17187TIP3    H172976   1.083   1.412   3.237 -1.3056 -1.2344  1.0167
17187TIP3    H272977   1.160   1.317   3.148  0.4460  1.0967 -0.0521
17188TIP3   OH272978   4.318   5.735  14.673 -0.6548 -0.0280  0.2910
17188TIP3    H172979   4.302   5.740  14.767 -1.1271  0.2318  0.2027
17188TIP3    H272980   4.294   5.645  14.649 -1.6282  0.2303  0.2358
17189TIP3   OH272981   6.724   0.235  13.699  0.7780 -0.4271 -0.1612
17189TIP3    H172982   6.730   0.156  13.753 -1.7885 -0.1204  0.6728
17189TIP3    H272983   6.694   0.204  13.614 -1.5187 -0.2920  0.5438
17190TIP3   OH272984   1.577   4.019  11.629 -0.0165  0.2427 -0.3148
17190TIP3    H172985   1.646   4.041  11.692 -0.0636 -2.5585  0.8412
17190TIP3    H272986   1.622   3.973  11.558 -0.5039 -0.4609 -0.1776
17191TIP3   OH272987   5.198   0.977   5.734 -0.4358 -0.6242  0.4342
17191TIP3    H172988   5.288   0.981   5.767 -0.2725  2.5495 -0.1151
17191TIP3    H272989   5.200   1.026   5.652 -2.4126 -1.7624 -0.3709
17192TIP3   OH272990   2.193   0.905   3.882 -0.0020 -0.1854  0.4259
17192TIP3    H172991   2.186   0.986   3.933  0.4839  0.6066 -0.7271
17192TIP3    H272992   2.263   0.856   3.925  0.1825  0.3259  0.7173
17193TIP3   OH272993   6.517   4.179  12.335 -0.3138 -0.1979  0.5028
17193TIP3    H172994   6.599   4.222  12.311 -0.7198  0.2234 -0.1577
17193TIP3    H272995   6.544   4.094  12.371  0.5341  0.8463  2.4685
17194TIP3   OH272996   5.421   3.561   1.724 -0.1867 -0.0511  0.3965
17194TIP3    H172997   5.401   3.471   1.697 -0.6032  0.3303 -0.5841
17194TIP3    H272998   5.468   3.599   1.650  1.1210  0.1751  1.2934
17195TIP3   OH272999   3.481   0.010   1.310  0.2817 -0.3594 -0.0643
17195TIP3    H173000   3.390   0.031   1.332  0.3335 -0.4020  0.1849
17195TIP3    H273001   3.485  -0.085   1.307  0.2002 -0.3535 -0.5731
17196TIP3   OH273002   0.023   6.100  15.828  0.0268  0.3196  0.4825
17196TIP3    H173003   0.096   6.161  15.836  0.2237  0.8215 -3.1504
17196TIP3    H273004  -0.047   6.151  15.787 -2.2303 -0.3287  3.1876
17197TIP3   OH273005   1.614   3.512   3.890  0.5541  0.2169  0.2101
17197TIP3    H173006   1.633   3.553   3.974  0.1921  2.4377 -0.7147
17197TIP3    H273007   1.520   3.527   3.876 -0.0003 -2.4433  0.5313
17198TIP3   OH273008   2.625   4.744  14.273  0.0390 -0.1420 -0.6029
17198TIP3    H173009   2.577   4.805  14.328  0.2390  3.0581 -3.6648
17198TIP3    H273010   2.692   4.706  14.331 -0.8150  1.7117  1.6989
17199TIP3   OH273011   6.052   0.079  13.794 -0.3343  0.2263  0.1595
17199TIP3    H173012   6.060   0.095  13.888 -2.8533 -0.5291  0.5907
17199TIP3    H273013   6.134   0.037  13.770 -0.1420 -0.8053  2.3328
17200TIP3   OH273014   2.855   1.296  10.528 -0.0746 -0.2753 -0.1281
17200TIP3    H173015   2.903   1.345  10.461 -0.1795  0.4177  0.2901
17200TIP3    H273016   2.917   1.288  10.600 -0.0755 -0.7244 -0.1754
17201TIP3   OH273017   4.869   1.010  15.805  0.1797  0.6094  0.2618
17201TIP3    H173018   4.917   1.064  15.867 -2.3315  1.7730  1.3624
17201TIP3    H273019   4.777   1.023  15.828 -0.7476 -0.9567 -2.0897
17202TIP3   OH273020   2.455   6.583  17.016 -0.0502 -0.2549  0.1195
17202TIP3    H173021   2.516   6.635  17.068 -1.7019  1.2167  0.6868
17202TIP3    H273022   2.511   6.525  16.964  1.8943  1.7159 -0.1403
17203TIP3   OH273023   3.642   2.920  14.272  0.3346 -0.2726 -0.1539
17203TIP3    H173024   3.556   2.957  14.289  0.5652 -0.0324  0.5468
17203TIP3    H273025   3.628   2.858  14.201 -0.1024  0.9603 -1.1790
17204TIP3   OH273026   2.717   1.335   1.329  1.0167 -0.2612 -0.1419
17204TIP3    H173027   2.750   1.344   1.240 -0.6745 -1.5554 -0.9676
17204TIP3    H273028   2.717   1.424   1.365  0.8391  0.4245 -1.7722
17205TIP3   OH273029   0.586   2.181   3.947  0.3228  0.1829  0.3093
17205TIP3    H173030   0.493   2.199   3.965  0.2748  0.2708 -0.0174
17205TIP3    H273031   0.597   2.088   3.967  0.2150  0.2214  0.5547
17206TIP3   OH273032   1.734   5.531   4.079  0.5149 -0.1640  0.9261
17206TIP3    H173033   1.659   5.581   4.109  0.0007 -0.8345  0.7944
17206TIP3    H273034   1.800   5.597   4.056  0.0466  0.4220  1.2422
17207TIP3   OH273035   3.127   1.189   0.657 -0.5755 -0.0863 -0.3380
17207TIP3    H173036   3.189   1.262   0.660 -0.8049  0.1067  2.1665
17207TIP3    H273037   3.041   1.231   0.663 -0.7397 -0.5087  0.3826
17208TIP3   OH273038   3.102   5.026   0.858 -0.3203 -0.2944 -0.1929
17208TIP3    H173039   3.050   5.060   0.785 -0.8562 -2.0003 -0.6546
17208TIP3    H273040   3.190   5.015   0.822 -0.1696  0.4368 -0.0715
17209TIP3   OH273041   5.583   3.923   6.115  0.1353  0.3771 -0.4486
17209TIP3    H173042   5.595   3.828   6.113 -1.1798  0.1767  0.2668
17209TIP3    H273043   5.566   3.943   6.207  0.4465  1.3271 -0.5828
17210TIP3   OH273044   3.964   3.468   2.838  0.3259 -0.1411  0.0579
17210TIP3    H173045   3.901   3.500   2.774  0.6812 -2.8396 -1.8733
17210TIP3    H273046   4.049   3.482   2.796  0.7040 -0.3182  0.7522
17211TIP3   OH273047   6.567   6.192  11.679  0.2490 -0.5414  0.1677
17211TIP3    H173048   6.511   6.142  11.738 -0.3671 -0.4752 -0.3602
17211TIP3    H273049   6.656   6.161  11.699  0.0709 -0.3900  1.2479
17212TIP3   OH273050   2.128   5.141   1.641 -0.7548  0.2835  0.0269
17212TIP3    H173051   2.198   5.101   1.589  0.1623 -0.4990  1.7904
17212TIP3    H273052   2.135   5.235   1.621 -0.6392 -0.0149 -1.4662
17213TIP3   OH273053   1.708   3.042  15.710  0.0001  0.2545 -0.1588
17213TIP3    H173054   1.770   3.100  15.753 -1.3100  0.4477  1.5910
17213TIP3    H273055   1.751   3.016  15.629  0.9170  3.1067 -0.6945
17214TIP3   OH273056   4.913   5.852   2.976  0.0426  0.2026  0.2707
17214TIP3    H173057   4.875   5.939   2.968  2.3529  1.2353 -0.4922
17214TIP3    H273058   4.927   5.824   2.886  0.5775 -0.3463  0.5180
17215TIP3   OH273059   4.536   3.919  10.607 -0.6271  0.3615 -0.0236
17215TIP3    H173060   4.473   3.864  10.654  1.7334 -1.5778  1.0971
17215TIP3    H273061   4.608   3.860  10.586  0.1339  2.0866 -2.7609
17216TIP3   OH273062   0.288   5.009   5.503 -0.2509  0.3221 -0.1888
17216TIP3    H173063   0.349   4.960   5.559 -3.6695 -1.3898  2.4132
17216TIP3    H273064   0.300   5.100   5.530 -0.5540 -0.2720  2.1567
17217TIP3   OH273065   6.530   4.332   2.167  0.1640 -0.0101  0.2010
17217TIP3    H173066   6.599   4.283   2.123  1.1033 -0.2086  1.8173
17217TIP3    H273067   6.559   4.423   2.162  1.2924 -0.2203  2.0541
17218TIP3   OH273068   1.523   4.642   3.378 -0.1222 -0.4422  0.2376
17218TIP3    H173069   1.540   4.589   3.300 -1.7115  0.9281 -1.0886
17218TIP3    H273070   1.431   4.627   3.398  0.3336 -1.0281  2.1066
17219TIP3   OH273071   5.464   2.061  12.031  0.3534  0.3565  0.3525
17219TIP3    H173072   5.499   2.137  11.986 -0.7328 -0.6009 -2.3080
17219TIP3    H273073   5.501   1.986  11.985  0.2449 -0.7539  1.9600
17220TIP3   OH273074   6.563   5.811  14.825 -0.1466 -0.2797 -0.7440
17220TIP3    H173075   6.515   5.880  14.780  0.3050 -0.2362 -1.1576
17220TIP3    H273076   6.540   5.822  14.918 -1.1336 -0.4175 -0.9626
17221TIP3   OH273077   4.691   2.123  12.862 -0.2366  0.1030 -0.1917
17221TIP3    H173078   4.731   2.043  12.896 -1.0778  0.0798  0.7859
17221TIP3    H273079   4.749   2.194  12.892  0.3159 -0.1064 -0.7563
17222TIP3   OH273080   4.393   5.964   3.293  1.0735 -0.4026 -0.2722
17222TIP3    H173081   4.439   5.880   3.287  0.3603 -0.7016 -2.5892
17222TIP3    H273082   4.358   5.979   3.205 -0.1414  1.5962  0.4712
17223TIP3   OH273083   4.389   6.554   2.997 -0.0437  0.2632  0.4031
17223TIP3    H173084   4.301   6.520   2.978 -0.0503 -0.0352  0.9409
17223TIP3    H273085   4.444   6.477   3.003  0.1270  0.4050  0.6998
17224TIP3   OH273086   6.486   2.030   0.360  0.0962  0.6028 -0.1812
17224TIP3    H173087   6.509   2.115   0.396  1.8939 -0.9470  2.6888
17224TIP3    H273088   6.398   2.012   0.394  1.0145 -0.0088  2.0344
17225TIP3   OH273089   3.815   0.588  15.792  0.0054 -1.0357  0.0577
17225TIP3    H173090   3.754   0.543  15.733 -0.5717  1.5761 -1.5109
17225TIP3    H273091   3.872   0.518  15.824 -1.4077 -3.0148 -1.4205
17226TIP3   OH273092   4.833   1.322   4.016  0.4976  0.3630  0.5141
17226TIP3    H173093   4.865   1.236   3.990  0.2766  1.1605 -2.9019
17226TIP3    H273094   4.774   1.305   4.089  0.0385 -2.4500 -0.3897
17227TIP3   OH273095   3.338   2.324   0.798 -0.0019 -0.0815 -0.3548
17227TIP3    H173096   3.371   2.262   0.863 -0.5825 -0.5334 -0.4737
17227TIP3    H273097   3.366   2.410   0.829  1.0255 -0.4228 -0.3101
17228TIP3   OH273098   5.902   0.466  14.730 -0.5031  0.2979 -0.6064
17228TIP3    H173099   5.966   0.411  14.775 -0.9062 -1.0944 -1.6909
17228TIP3    H273100   5.827   0.469  14.789 -0.0715  0.6029 -0.0604
17229TIP3   OH273101   4.236   6.374  13.944 -0.1338  0.8392 -0.3451
17229TIP3    H173102   4.305   6.321  13.983 -0.3885  0.9601  0.2902
17229TIP3    H273103   4.166   6.374  14.010 -0.7922  0.6047 -1.0350
17230TIP3   OH273104   4.226   1.202  12.641  0.5124 -0.4674 -0.0290
17230TIP3    H173105   4.265   1.119  12.669 -0.6537 -1.0161  0.0195
17230TIP3    H273106   4.230   1.199  12.545  1.7243  0.0545 -0.0150
17231TIP3   OH273107   4.467   2.969  13.254  0.0418 -0.7587  0.3680
17231TIP3    H173108   4.503   3.049  13.215 -1.2409 -0.4444 -0.2085
17231TIP3    H273109   4.516   2.898  13.213  2.1165 -0.2879  1.8199
17232TIP3   OH273110   6.271   6.515   2.282 -0.1714  0.5345 -0.0021
17232TIP3    H173111   6.269   6.420   2.269  1.7672  0.0786  2.3634
17232TIP3    H273112   6.315   6.527   2.365 -0.4006  3.5582 -0.2056
17233TIP3   OH273113   0.175   3.937  13.176 -0.2609  0.2578  0.1414
17233TIP3    H173114   0.201   4.017  13.221 -1.8892  0.4386  0.8149
17233TIP3    H273115   0.197   3.867  13.237  2.6808 -0.0308 -1.0951
17234TIP3   OH273116   0.883   2.487   6.045  1.0242 -0.1535  0.2932
17234TIP3    H173117   0.940   2.502   5.970  1.2576 -0.5238  0.3956
17234TIP3    H273118   0.905   2.399   6.075  0.9499  0.0009  0.8107
17235TIP3   OH273119   2.896   6.248   2.378  0.6977  0.1960 -1.3480
17235TIP3    H173120   2.964   6.313   2.398  0.6076 -0.6908  2.7652
17235TIP3    H273121   2.935   6.164   2.405 -1.2538 -0.6295 -0.9509
17236TIP3   OH273122   3.114   1.236  12.686  0.4210  0.2721 -0.0008
17236TIP3    H173123   3.048   1.301  12.713  0.5480  0.0433  0.8742
17236TIP3    H273124   3.089   1.214  12.596 -0.0633  0.9857 -0.0525
17237TIP3   OH273125   3.388   5.953  16.139 -0.5987 -0.0119 -0.1717
17237TIP3    H173126   3.364   5.969  16.048 -1.6029  0.7696  0.2062
17237TIP3    H273127   3.353   5.866  16.159 -2.1464  0.6256  0.0238
17238TIP3   OH273128   3.086   1.194  15.907  0.1780 -0.1310 -1.1610
17238TIP3    H173129   3.112   1.287  15.904 -0.1149  0.0092  0.0948
17238TIP3    H273130   3.166   1.148  15.933 -0.2193  0.0517  0.5004
17239TIP3   OH273131   5.122   3.151   5.507  0.8275 -0.3795  0.0339
17239TIP3    H173132   5.182   3.096   5.457  1.3715  0.3727 -0.1565
17239TIP3    H273133   5.081   3.208   5.442  0.9176  0.0304  0.3273
17240TIP3   OH273134   4.608   2.864  15.753 -0.2707  0.4085  0.0180
17240TIP3    H173135   4.606   2.946  15.803 -0.5359  1.0887 -1.0832
17240TIP3    H273136   4.545   2.808  15.797  1.6132 -0.1192  2.2584
17241TIP3   OH273137   5.192   4.135  12.141 -0.3975 -0.3175  0.4225
17241TIP3    H173138   5.253   4.065  12.163  1.0540  1.0340  0.9349
17241TIP3    H273139   5.111   4.113  12.187  0.1808 -1.3886  0.9483
17242TIP3   OH273140   0.843   3.558   3.105 -0.2336 -0.2802  0.2094
17242TIP3    H173141   0.865   3.553   3.013  1.9919  0.0198  0.6841
17242TIP3    H273142   0.897   3.491   3.147 -0.0969  0.5753  1.4701
17243TIP3   OH273143   1.058   5.189   2.536 -0.2816 -0.4175 -0.0292
17243TIP3    H173144   1.139   5.238   2.519  0.1471 -0.5652  1.4346
17243TIP3    H273145   0.992   5.257   2.552  0.0288 -0.2901  0.7674
17244TIP3   OH273146   3.711   1.384  15.936  0.3741  0.4575 -0.0162
17244TIP3    H173147   3.724   1.293  15.911  0.1889  0.6876 -0.9925
17244TIP3    H273148   3.625   1.386  15.978 -0.9500  0.6491 -2.5815
17245TIP3   OH273149   1.195   3.438   5.575  0.6387  0.0573  0.0819
17245TIP3    H173150   1.134   3.468   5.508  0.6573 -2.7497 -1.3362
17245TIP3    H273151   1.282   3.445   5.534  0.7559 -0.7200  0.1907
17246TIP3   OH273152   1.634   3.341   2.395  0.1448  0.3416  0.4052
17246TIP3    H173153   1.545   3.374   2.387 -0.1015 -0.0261  1.4939
17246TIP3    H273154   1.623   3.249   2.418  0.8147  0.1119 -0.1733
17247TIP3   OH273155   3.553   2.985   6.020  0.1745 -0.3158 -0.7388
17247TIP3    H173156   3.622   2.993   6.086 -0.1011 -0.1673 -0.4675
17247TIP3    H273157   3.508   3.070   6.022 -0.5923 -0.7144 -0.2687
17248TIP3   OH273158   3.290   4.758   4.541  0.0734 -0.2997 -0.0869
17248TIP3    H173159   3.371   4.716   4.570  0.3516  0.2736 -0.0117
17248TIP3    H273160   3.220   4.700   4.570  0.4746 -0.9902 -0.4752
17249TIP3   OH273161   2.584   0.835   1.115  0.1150 -0.4125 -0.0693
17249TIP3    H173162   2.616   0.917   1.077  2.2211 -1.3249 -0.4363
17249TIP3    H273163   2.510   0.810   1.060  0.1955  0.6353 -0.6742
17250TIP3   OH273164   1.724   2.692  14.011 -0.2293  0.2711  0.0588
17250TIP3    H173165   1.709   2.772  13.961  0.1994 -0.6962 -1.6837
17250TIP3    H273166   1.689   2.712  14.098 -0.1373  2.3365 -0.3265
17251TIP3   OH273167   4.993   4.327  16.701  0.1030 -0.2784  0.0793
17251TIP3    H173168   5.053   4.396  16.729  0.0431 -0.1819 -0.0319
17251TIP3    H273169   4.911   4.372  16.682  0.2717 -0.2778 -0.6764
17252TIP3   OH273170   4.672   3.264  13.797 -0.4913  0.0735 -0.1128
17252TIP3    H173171   4.742   3.303  13.850  0.1416 -0.7722 -0.3088
17252TIP3    H273172   4.595   3.263  13.854  0.4009 -1.6731  1.1460
17253TIP3   OH273173   5.175   1.014  14.296 -0.3237  0.2207 -0.0254
17253TIP3    H173174   5.181   0.947  14.364  1.1770  1.0781  0.7439
17253TIP3    H273175   5.129   0.971  14.224 -2.6257 -0.5083  1.7547
17254TIP3   OH273176   2.722   1.696  16.021 -1.3312 -0.2781 -0.6087
17254TIP3    H173177   2.754   1.744  15.945  0.0464  2.1012  1.3254
17254TIP3    H273178   2.801   1.653  16.056 -1.6932 -0.3429  0.1400
17255TIP3   OH273179   2.906   2.457  12.565 -0.1639 -0.0967 -0.3510
17255TIP3    H173180   2.959   2.537  12.571 -0.8181  0.3843 -0.7961
17255TIP3    H273181   2.854   2.469  12.485 -0.9279 -0.5627  0.0662
17256TIP3   OH273182   1.709   0.489   6.536  0.2775  0.0061 -0.0916
17256TIP3    H173183   1.706   0.397   6.510  2.5467 -0.0193 -0.4439
17256TIP3    H273184   1.796   0.501   6.574  0.1659  2.0829 -0.3490
17257TIP3   OH273185   5.214   6.198   5.806  0.2911 -0.5461 -0.5569
17257TIP3    H173186   5.306   6.221   5.823 -0.2186  1.2010  0.0626
17257TIP3    H273187   5.183   6.163   5.890 -0.4877  2.0864  0.3456
17258TIP3   OH273188   0.289   3.729  13.374 -0.0980 -0.3996 -0.3790
17258TIP3    H173189   0.360   3.772  13.421 -0.3426  0.0958 -0.4580
17258TIP3    H273190   0.325   3.644  13.348 -0.0497 -0.8080  0.9574
17259TIP3   OH273191   2.899   4.190   2.469 -0.5805  0.1728  0.2292
17259TIP3    H173192   2.907   4.167   2.376 -1.8345  0.5779  0.0136
17259TIP3    H273193   2.986   4.223   2.493 -0.1580 -0.2283 -0.7103
17260TIP3   OH273194   0.888   5.120  12.140 -0.0098  0.4757 -0.5114
17260TIP3    H173195   0.924   5.049  12.192 -0.4936  0.7615  0.2432
17260TIP3    H273196   0.816   5.154  12.194  0.3431  1.6612 -0.7617
17261TIP3   OH273197   6.190   4.343  15.606  0.0237  0.2735  0.1216
17261TIP3    H173198   6.139   4.408  15.655  1.0186  0.0961  1.4572
17261TIP3    H273199   6.127   4.273  15.587 -0.7297  1.0065 -0.1408
17262TIP3   OH273200   2.712   2.202   6.134 -0.0621  0.2884  0.1575
17262TIP3    H173201   2.626   2.242   6.126  0.2599  1.0428  0.3939
17262TIP3    H273202   2.769   2.272   6.164  0.8218  0.0447 -0.8560
17263TIP3   OH273203   2.099   5.428  14.780  0.4659 -0.7902  0.2238
17263TIP3    H173204   2.088   5.490  14.852  2.4255 -0.9428  0.7229
17263TIP3    H273205   2.143   5.478  14.712  0.3273 -1.1295 -0.1172
17264TIP3   OH273206   2.785   3.507   5.385  0.2625 -0.0911 -0.3509
17264TIP3    H173207   2.721   3.562   5.431  0.9653 -0.2368  0.8727
17264TIP3    H273208   2.795   3.431   5.442  0.3585 -0.8192 -1.3232
17265TIP3   OH273209   4.492   4.286   6.134  0.0292 -0.1518 -0.2719
17265TIP3    H173210   4.462   4.310   6.222 -1.3296 -1.5543 -0.2893
17265TIP3    H273211   4.493   4.369   6.086  1.9345  0.8362  1.3313
17266TIP3   OH273212   5.144   1.615  12.369 -0.1388  0.2032 -0.1147
17266TIP3    H173213   5.190   1.576  12.443  1.7436 -0.1776 -1.4257
17266TIP3    H273214   5.202   1.683  12.336 -1.2683  0.8796 -0.8123
17267TIP3   OH273215   0.971   4.537  10.884  0.3249 -0.5371  0.5568
17267TIP3    H173216   1.043   4.478  10.904  1.3161 -0.6624 -2.8636
17267TIP3    H273217   0.946   4.516  10.794 -2.0496  1.5074  0.6172
17268TIP3   OH273218   1.041   3.635   3.598  0.4844 -0.0346 -0.1780
17268TIP3    H173219   1.006   3.713   3.556  0.9834  0.1221 -0.3047
17268TIP3    H273220   1.118   3.612   3.547  1.1143  0.1744  0.6494
17269TIP3   OH273221   6.386   0.924  15.405  0.5117  0.0586 -0.3973
17269TIP3    H173222   6.452   0.987  15.434 -0.2535  0.6645  0.0612
17269TIP3    H273223   6.310   0.942  15.459  0.1396 -1.0053 -0.5404
17270TIP3   OH273224   4.568   0.197  15.238 -1.3638  0.4316 -0.2961
17270TIP3    H173225   4.624   0.215  15.162  1.3105  0.4503  1.5345
17270TIP3    H273226   4.546   0.283  15.273 -0.2878  0.4340  0.4464
17271TIP3   OH273227   2.891   2.160  14.911 -0.2966  0.6400 -0.0877
17271TIP3    H173228   2.821   2.207  14.864  0.0156  0.0898 -1.1191
17271TIP3    H273229   2.864   2.068  14.908  0.7162  0.3550 -0.9553
17272TIP3   OH273230   5.673   1.953   1.267  0.2746 -0.2416  0.0648
17272TIP3    H173231   5.616   1.877   1.261  1.8579 -1.6021  1.2392
17272TIP3    H273232   5.708   1.965   1.179  2.3122 -2.8120  0.4233
17273TIP3   OH273233   4.712   0.577   0.508  0.3755 -0.1331 -0.1831
17273TIP3    H173234   4.749   0.658   0.543 -0.7260  0.1290  0.4082
17273TIP3    H273235   4.667   0.604   0.428 -0.3038 -0.0834  0.2073
17274TIP3   OH273236   3.775   3.439  14.747  0.6317  0.2467  0.0203
17274TIP3    H173237   3.802   3.418  14.658  0.9267 -1.5938  0.4985
17274TIP3    H273238   3.702   3.381  14.765  2.6866 -1.9664  2.0724
17275TIP3   OH273239   1.641   0.745   0.353  0.3350  0.2392  0.4719
17275TIP3    H173240   1.611   0.829   0.318  0.4839  0.2353  0.3365
17275TIP3    H273241   1.715   0.767   0.409  1.2069  0.0664 -0.5886
17276TIP3   OH273242   0.933   2.307  17.077  0.3010 -0.5009  0.4485
17276TIP3    H173243   0.882   2.229  17.100  0.5039 -0.5984  0.5762
17276TIP3    H273244   0.869   2.368  17.041  0.0166 -0.4580  1.0053
17277TIP3   OH273245   0.540   5.606   1.765 -0.0958 -0.0461  0.1180
17277TIP3    H173246   0.542   5.681   1.707  0.1460  0.2641  0.5202
17277TIP3    H273247   0.630   5.573   1.766 -0.0925 -0.0343  0.3339
17278TIP3   OH273248   2.171   2.316   2.812  0.2427  0.0455  0.2417
17278TIP3    H173249   2.136   2.269   2.736  0.2102  1.4161 -0.6254
17278TIP3    H273250   2.203   2.247   2.870 -0.4787 -1.0728 -0.6405
17279TIP3   OH273251   4.239   1.500   2.311  0.6486  0.4614 -0.2694
17279TIP3    H173252   4.176   1.480   2.242 -0.7465  3.0529  0.1258
17279TIP3    H273253   4.317   1.530   2.265 -0.4222  2.5876 -0.8350
17280TIP3   OH273254   0.535   5.379   2.516 -0.1387 -0.1072  0.1629
17280TIP3    H173255   0.618   5.331   2.516 -1.1044 -2.0276  3.0024
17280TIP3    H273256   0.482   5.334   2.450  0.0859 -0.7491  0.4170
17281TIP3   OH273257   5.245   1.331   0.030 -0.3245 -0.2909  0.1989
17281TIP3    H173258   5.244   1.378   0.113 -0.5348  0.7844 -0.3939
17281TIP3    H273259   5.153   1.311   0.012 -0.3714  0.2526 -0.1916
17282TIP3   OH273260   3.239   2.658   5.044  0.5716  0.7130 -0.7517
17282TIP3    H173261   3.170   2.623   4.988 -0.3477  2.2787 -0.6530
17282TIP3    H273262   3.217   2.750   5.056  1.4191  0.7358  1.1590
17283TIP3   OH273263   3.337   2.101  16.043  0.2162  0.1252 -0.2118
17283TIP3    H173264   3.293   2.165  16.099 -1.5636 -1.1512 -0.0698
17283TIP3    H273265   3.272   2.079  15.976  0.7686 -1.5240 -0.2495
17284TIP3   OH273266   4.955   1.726   0.013 -0.1426 -0.0318 -0.0421
17284TIP3    H173267   4.908   1.665   0.070 -0.2604 -2.8593 -2.8770
17284TIP3    H273268   5.040   1.738   0.055 -1.1338  0.1614  2.0108
17285TIP3   OH273269   6.142   1.140  14.588 -0.0273  0.0158 -0.5478
17285TIP3    H173270   6.085   1.136  14.665  0.6020  3.1802  0.2498
17285TIP3    H273271   6.187   1.056  14.587 -0.6359 -0.4424  2.1102
17286TIP3   OH273272   0.498   0.660  15.619  0.0456  0.2473  0.2607
17286TIP3    H173273   0.423   0.606  15.644  0.6998 -0.9258 -0.2449
17286TIP3    H273274   0.505   0.649  15.524  0.1925  1.2317  0.1488
17287TIP3   OH273275   4.073   5.160   1.521 -0.1207 -0.6222  0.2295
17287TIP3    H173276   4.025   5.240   1.543 -1.1504 -0.4757 -2.2282
17287TIP3    H273277   4.115   5.179   1.437 -1.4140 -3.0109 -1.0773
17288TIP3   OH273278   6.260   2.512   0.755  0.2236  0.7539 -0.0314
17288TIP3    H173279   6.312   2.521   0.675  1.2822  0.0088  0.5471
17288TIP3    H273280   6.266   2.419   0.778 -1.7502  0.5469 -0.1761
17289TIP3   OH273281   4.722   5.988  11.319  0.1938  0.7206  0.2053
17289TIP3    H173282   4.730   6.078  11.289 -0.5988  1.2553  1.5074
17289TIP3    H273283   4.650   5.952  11.268  0.3592  0.9024 -0.1535
17290TIP3   OH273284   4.278   0.108  15.204  0.2677 -0.5725 -0.3209
17290TIP3    H173285   4.221   0.159  15.146 -0.0558 -1.3594 -0.7122
17290TIP3    H273286   4.365   0.147  15.193 -0.3025  1.1250  0.8452
17291TIP3   OH273287   2.957   3.625   1.990 -0.3553  0.1534 -0.5307
17291TIP3    H173288   2.895   3.623   1.917 -1.2914  0.1599  0.2435
17291TIP3    H273289   2.979   3.717   2.001 -0.7462  0.2303 -0.3727
17292TIP3   OH273290   4.652   3.417   5.729 -0.2062 -0.8269 -0.6422
17292TIP3    H173291   4.587   3.466   5.778 -0.1030 -0.5709 -0.7614
17292TIP3    H273292   4.628   3.325   5.742  1.9841 -1.0907  3.1355
17293TIP3   OH273293   5.336   0.049   6.607 -0.0199 -0.1133 -0.5874
17293TIP3    H173294   5.355   0.119   6.669 -0.6960  1.0479 -1.6334
17293TIP3    H273295   5.262   0.082   6.556  0.4908 -1.0231 -1.9845
17294TIP3   OH273296   4.398   0.493   2.924 -0.0767 -0.2735 -0.1450
17294TIP3    H173297   4.471   0.554   2.934 -0.9103  0.7674 -0.2461
17294TIP3    H273298   4.375   0.498   2.831 -0.6627 -0.1230 -0.0001
17295TIP3   OH273299   4.699   6.600   2.368 -0.6530 -0.4706  0.4258
17295TIP3    H173300   4.745   6.683   2.354  0.0447 -1.2189 -2.2764
17295TIP3    H273301   4.615   6.611   2.323 -0.8802 -0.9554  0.7263
17296TIP3   OH273302   2.175   4.076  15.143 -0.0466  0.5186  0.3393
17296TIP3    H173303   2.268   4.054  15.145 -0.6171 -2.5150 -0.9370
17296TIP3    H273304   2.141   4.042  15.226 -0.0657  1.4875  0.7375
17297TIP3   OH273305   5.805   5.119   5.374  0.2344  0.2346  0.1438
17297TIP3    H173306   5.786   5.037   5.327  0.8037  0.2324 -0.0840
17297TIP3    H273307   5.841   5.090   5.458 -1.3029  0.2271  0.8379
17298TIP3   OH273308   6.126   1.001   5.270 -0.1792 -0.2220 -0.3039
17298TIP3    H173309   6.141   0.927   5.211  0.7779 -0.0161 -0.3320
17298TIP3    H273310   6.189   0.988   5.341  0.2709  0.7914 -0.5142
17299TIP3   OH273311   6.357   1.714  11.572 -0.7787 -0.0045 -0.4141
17299TIP3    H173312   6.365   1.684  11.663  1.0399 -1.4310 -0.9664
17299TIP3    H273313   6.308   1.796  11.577  1.1252  1.1133  2.1056
17300TIP3   OH273314   0.249   6.254   2.611 -0.2384  0.4427  0.2654
17300TIP3    H173315   0.167   6.297   2.632 -0.6954 -0.5922  0.6770
17300TIP3    H273316   0.285   6.229   2.696 -0.4011 -0.7102  0.0143
17301TIP3   OH273317   4.674   6.143   5.003  0.1219 -0.6513 -0.1197
17301TIP3    H173318   4.735   6.173   4.935 -1.3151 -1.3925 -1.8060
17301TIP3    H273319   4.686   6.048   5.005 -0.8185 -0.7799 -0.3298
17302TIP3   OH273320   5.345   3.742   6.050  0.0315  0.1402 -0.3395
17302TIP3    H173321   5.394   3.715   5.972  1.5298  0.1435  0.5666
17302TIP3    H273322   5.398   3.711   6.123 -0.6318  1.3744  0.6930
17303TIP3   OH273323   0.496   3.604  16.553  0.6321  0.1283  0.0779
17303TIP3    H173324   0.476   3.558  16.471  0.5060  0.7564 -0.2439
17303TIP3    H273325   0.553   3.543  16.600  1.1756  0.0053 -0.7201
17304TIP3   OH273326   2.739   1.844   5.880  0.0559 -0.0211  0.2579
17304TIP3    H173327   2.685   1.878   5.951 -0.4330  1.0236 -0.5759
17304TIP3    H273328   2.743   1.916   5.816  3.2557  0.2982  0.6817
17305TIP3   OH273329   5.484   0.324   1.354  0.6499  0.3242  1.0980
17305TIP3    H173330   5.426   0.276   1.412  2.3578 -2.4846  0.6704
17305TIP3    H273331   5.513   0.399   1.405 -1.2564  0.3688  2.2149
17306TIP3   OH273332   5.371   6.390  12.618 -0.0532 -0.1654 -0.1615
17306TIP3    H173333   5.342   6.392  12.709  0.9088  0.0018  0.1566
17306TIP3    H273334   5.375   6.482  12.591  1.3750 -0.1021  0.2087
17307TIP3   OH273335   0.919   6.079   0.634  0.0638  0.0420 -0.0368
17307TIP3    H173336   0.851   6.098   0.699  0.6430 -1.0940  0.9370
17307TIP3    H273337   0.910   5.986   0.616  0.2403  0.2431 -1.2335
17308TIP3   OH273338   2.844   3.666  12.730 -0.4739  0.3954 -0.5423
17308TIP3    H173339   2.799   3.749  12.740  1.3176  1.5397 -1.3814
17308TIP3    H273340   2.816   3.634  12.644 -1.1622  0.1139 -0.2200
17309TIP3   OH273341   6.229   1.391  16.090 -0.4424 -0.1760  0.3998
17309TIP3    H173342   6.178   1.472  16.098 -0.0620  0.1210 -0.1535
17309TIP3    H273343   6.162   1.322  16.086 -0.8733  0.2940 -1.4280
17310TIP3   OH273344   0.355   1.960  12.105  0.2959  0.1632  0.4619
17310TIP3    H173345   0.315   1.926  12.025  0.9967 -0.3463  0.3207
17310TIP3    H273346   0.439   1.995  12.078  1.5883 -2.0612  1.2707
17311TIP3   OH273347   3.066   5.795   5.107 -0.0504 -0.0832 -0.8631
17311TIP3    H173348   3.105   5.713   5.077 -0.6936 -0.8772  0.3668
17311TIP3    H273349   2.971   5.781   5.102 -0.2835 -0.9291  2.9271
17312TIP3   OH273350   4.705   2.815   0.386  0.0923  0.5531  0.1700
17312TIP3    H173351   4.689   2.739   0.441 -0.3899 -1.5516 -2.6745
17312TIP3    H273352   4.623   2.828   0.338  0.5686  2.1171 -0.2842
17313TIP3   OH273353   6.114   6.034  15.077 -0.0637 -0.1036 -0.7815
17313TIP3    H173354   6.060   6.042  15.156  2.2092  0.8451  0.7717
17313TIP3    H273355   6.082   6.103  15.019  0.6752  1.7543  0.9036
17314TIP3   OH273356   1.610   0.176  11.572 -0.2725 -0.2683 -0.3832
17314TIP3    H173357   1.568   0.097  11.605  1.8117 -1.8977 -1.4459
17314TIP3    H273358   1.645   0.219  11.649  0.9731 -1.8718 -0.0168
17315TIP3   OH273359   6.333   6.500   3.104  0.0224  0.2221 -0.0320
17315TIP3    H173360   6.343   6.414   3.064  1.6565  0.3583  0.0030
17315TIP3    H273361   6.313   6.559   3.031 -1.9711 -0.2724  0.0481
17316TIP3   OH273362   1.950   0.682   5.534 -0.4670 -0.4923  0.0157
17316TIP3    H173363   1.897   0.603   5.534 -0.9547 -0.1866 -1.1801
17316TIP3    H273364   2.008   0.672   5.609 -0.9087 -1.7138  0.2175
17317TIP3   OH273365   0.266   1.073  14.124  0.6847  0.1675 -0.2565
17317TIP3    H173366   0.344   1.019  14.135  0.1016 -0.2726  2.1824
17317TIP3    H273367   0.213   1.025  14.061  0.3326 -1.9941  1.5861
17318TIP3   OH273368   0.972   5.619  15.139 -0.0049  0.2562 -0.4722
17318TIP3    H173369   0.922   5.701  15.131  0.2675  0.7598  1.9336
17318TIP3    H273370   1.062   5.648  15.156  0.0808 -0.5231  0.4830
17319TIP3   OH273371   4.815   1.955  15.845  0.3505  0.2756  0.8862
17319TIP3    H173372   4.753   1.999  15.903  1.1375  0.8390  1.3196
17319TIP3    H273373   4.873   2.025  15.815 -1.0607  0.3364 -1.9879
17320TIP3   OH273374   5.090   3.938  14.767  0.2816 -0.2909  0.1319
17320TIP3    H173375   5.073   3.850  14.801 -0.3529  0.0903  0.8091
17320TIP3    H273376   5.177   3.932  14.728 -0.6902 -1.8716 -2.0212
17321TIP3   OH273377   1.030   1.001   4.233 -0.3837 -0.8139 -0.2430
17321TIP3    H173378   1.038   1.017   4.139 -1.2942  1.0554 -0.0297
17321TIP3    H273379   1.116   0.968   4.259  0.5568  0.6381 -1.3661
17322TIP3   OH273380   1.175   2.147   4.721 -0.1479  0.4741 -0.4990
17322TIP3    H173381   1.215   2.230   4.747 -0.1299 -0.1506  1.6571
17322TIP3    H273382   1.103   2.135   4.782  0.1481 -1.3202 -0.4553
17323TIP3   OH273383   4.779   0.034   3.541  0.5354  0.3349  0.0870
17323TIP3    H173384   4.875   0.028   3.538  0.4448 -3.1446  0.5291
17323TIP3    H273385   4.749  -0.046   3.499 -2.1662  0.2663  1.9307
17324TIP3   OH273386   0.117   2.222   0.710  0.2450  0.3938 -0.2353
17324TIP3    H173387   0.187   2.218   0.776 -0.2671 -0.6788  0.2792
17324TIP3    H273388   0.075   2.306   0.724  0.1011  0.1532  0.8851
17325TIP3   OH273389   4.868   4.976  13.125 -0.8345 -0.1730 -0.5458
17325TIP3    H173390   4.823   5.049  13.084 -1.0576  1.3220  2.1239
17325TIP3    H273391   4.940   5.015  13.174 -0.5347 -1.8075  0.4146
17326TIP3   OH273392   2.174   1.083   2.917 -0.6315  0.5434  0.2936
17326TIP3    H173393   2.123   1.101   2.838  0.1283  1.2507 -0.0430
17326TIP3    H273394   2.139   1.143   2.983 -1.4702 -0.2551  0.5986
17327TIP3   OH273395   1.443   1.556   6.400  0.5315 -0.5694 -0.4206
17327TIP3    H173396   1.479   1.644   6.396  0.5377 -0.5171  0.7027
17327TIP3    H273397   1.517   1.500   6.422  0.2468 -0.6648  0.3234
17328TIP3   OH273398   4.882   1.914  14.394 -0.3495  0.4262 -0.2085
17328TIP3    H173399   4.874   1.919  14.489  1.6988 -1.0385  0.1057
17328TIP3    H273400   4.872   2.004  14.365 -2.2849  0.7592  1.2164
17329TIP3   OH273401   4.771   2.507   1.374  0.0733 -0.6239 -0.2729
17329TIP3    H173402   4.798   2.501   1.465  1.8092 -0.2407 -0.7271
17329TIP3    H273403   4.719   2.587   1.369  1.4559  0.3318  0.0658
17330TIP3   OH273404   1.673   1.145  15.010 -0.7513 -0.0346  0.3292
17330TIP3    H173405   1.683   1.238  14.988 -3.9206  0.6107  1.0979
17330TIP3    H273406   1.597   1.116  14.960 -1.7139 -1.3276  2.3967
17331TIP3   OH273407   5.871   6.162  14.234 -0.2643  0.0578  0.7342
17331TIP3    H173408   5.793   6.207  14.269 -0.7402 -1.8415  2.3227
17331TIP3    H273409   5.882   6.087  14.292  1.6394 -0.7842 -0.6453
17332TIP3   OH273410   6.672   2.533  12.585 -0.0261 -0.4752 -0.4083
17332TIP3    H173411   6.690   2.542  12.491  2.0600  0.4731  0.0222
17332TIP3    H273412   6.750   2.488  12.620 -0.7614 -0.8048  0.8773
17333TIP3   OH273413   1.665   1.608   5.630  0.3261  0.1497 -0.1101
17333TIP3    H173414   1.752   1.572   5.645  0.3952  1.0756  2.1202
17333TIP3    H273415   1.680   1.702   5.620 -0.3953  0.3021  0.2134
17334TIP3   OH273416   5.539   3.053   1.279 -0.1458 -0.2886 -0.6101
17334TIP3    H173417   5.545   2.971   1.327  0.7266  0.5596  0.8051
17334TIP3    H273418   5.451   3.052   1.241 -1.1018 -0.7725  1.4672
17335TIP3   OH273419   5.250   3.458  14.477  0.4959 -0.0918 -0.0695
17335TIP3    H173420   5.240   3.545  14.517  0.5935 -0.4841  0.8263
17335TIP3    H273421   5.168   3.413  14.497 -0.1823  0.2771 -1.8247
17336TIP3   OH273422   5.349   1.910   1.898 -0.7334 -0.2602  0.0567
17336TIP3    H173423   5.421   1.958   1.940 -0.8172 -0.0730 -0.0146
17336TIP3    H273424   5.384   1.884   1.813 -1.1236  0.7978 -0.4428
17337TIP3   OH273425   1.593   0.683   3.210  0.1116 -0.1252 -0.0794
17337TIP3    H173426   1.646   0.718   3.282  0.4156 -2.4135  0.8984
17337TIP3    H273427   1.653   0.626   3.162 -0.6982 -0.4265 -0.7540
17338TIP3   OH273428   2.582   5.869   5.811 -0.7419 -0.2564  0.3449
17338TIP3    H173429   2.677   5.862   5.817 -0.6119  0.4649 -0.5730
17338TIP3    H273430   2.568   5.949   5.760 -1.8273 -0.9404 -0.4469
17339TIP3   OH273431   2.326   6.008   2.088 -0.0585 -0.0261 -0.3673
17339TIP3    H173432   2.322   5.953   2.166 -0.8121 -1.5224 -1.3953
17339TIP3    H273433   2.269   6.082   2.107 -0.1894 -0.3403  0.5203
17340TIP3   OH273434   4.312   4.635   6.585 -0.2841  0.4255  0.1230
17340TIP3    H173435   4.217   4.636   6.572 -0.0563 -2.2179 -2.7199
17340TIP3    H273436   4.344   4.711   6.537 -0.8031  0.0473 -0.8371
17341TIP3   OH273437   6.294   2.863  16.395  0.0123 -0.3133  0.5226
17341TIP3    H173438   6.279   2.888  16.486  0.1272  0.0528  0.4423
17341TIP3    H273439   6.216   2.813  16.370 -2.4027  3.5521 -0.6192
17342TIP3   OH273440   4.941   4.734  13.816  0.6973  0.1889 -0.2013
17342TIP3    H173441   4.931   4.710  13.908  0.0101 -1.2114 -0.6076
17342TIP3    H273442   4.955   4.828  13.817 -0.7565  0.4353  1.2614
17343TIP3   OH273443   2.347   5.150   5.175 -0.4580  0.7648  0.5116
17343TIP3    H173444   2.287   5.103   5.117  0.0055  0.3286  0.3855
17343TIP3    H273445   2.314   5.131   5.263  0.3019 -0.6288  0.5203
17344TIP3   OH273446   5.356   4.921   6.689  0.2105  0.0323  0.3313
17344TIP3    H173447   5.445   4.922   6.656  0.0535 -0.9386 -0.1862
17344TIP3    H273448   5.304   4.883   6.617 -0.7135  1.1168  0.3970
17345TIP3   OH273449   0.910   4.522   2.620 -0.4528 -0.0763  0.1459
17345TIP3    H173450   0.957   4.572   2.553 -1.0046 -0.2683 -0.4013
17345TIP3    H273451   0.818   4.546   2.608 -0.6011 -0.4181  0.5767
17346TIP3   OH273452   2.592   3.933  14.559  0.3545  0.2463 -0.2498
17346TIP3    H173453   2.499   3.955  14.546  0.9625  2.5930 -1.1735
17346TIP3    H273454   2.603   3.931  14.654 -0.4807  0.8022 -0.1262
17347TIP3   OH273455   0.356   2.451   0.795  0.2173 -0.4136  0.2430
17347TIP3    H173456   0.286   2.508   0.764 -0.3341 -1.1161  0.1808
17347TIP3    H273457   0.355   2.460   0.890  0.5827  0.1970  0.1926
17348TIP3   OH273458   1.098   5.487   2.943  0.1649 -0.0294  0.5382
17348TIP3    H173459   1.103   5.527   3.030  0.2667  0.1867  0.4340
17348TIP3    H273460   1.116   5.559   2.882  1.5996 -0.4893  0.3830
17349TIP3   OH273461   1.074   2.298   1.799  0.0404 -0.0934  0.2685
17349TIP3    H173462   1.149   2.311   1.857 -1.4432  0.5745  2.1252
17349TIP3    H273463   1.098   2.343   1.718  1.5473  0.2666  0.8861
17350TIP3   OH273464   3.248   4.874  17.032  0.0995  0.0387 -0.2169
17350TIP3    H173465   3.187   4.907  17.098 -0.6196 -0.3471 -0.6699
17350TIP3    H273466   3.200   4.804  16.988  0.4779  0.4185 -1.2774
17351TIP3   OH273467   4.075   6.211  16.333 -0.2821  0.3215 -0.5035
17351TIP3    H173468   4.103   6.247  16.418 -0.7681  0.9858 -0.6197
17351TIP3    H273469   4.132   6.254  16.269  0.9091 -1.0770 -0.4269
17352TIP3   OH273470   1.586   2.824  11.337 -0.0479 -0.2735  0.2019
17352TIP3    H173471   1.619   2.899  11.288 -0.9344  0.7149  1.0710
17352TIP3    H273472   1.579   2.753  11.273  1.0865  0.2903 -0.5693
17353TIP3   OH273473   1.281   0.598  17.111 -0.4412  0.1600 -0.5114
17353TIP3    H173474   1.365   0.583  17.068 -0.2561  0.5392 -0.2821
17353TIP3    H273475   1.216   0.581  17.042 -0.2755 -1.9460 -0.2224
17354TIP3   OH273476   1.370   2.615  17.014 -0.5339 -0.4464 -0.2052
17354TIP3    H173477   1.462   2.630  16.992 -0.3810 -1.8736 -0.6404
17354TIP3    H273478   1.322   2.659  16.944 -0.1144 -1.6795 -1.3130
17355TIP3   OH273479   1.448   2.647   2.728 -0.2531 -0.2589 -0.1084
17355TIP3    H173480   1.435   2.708   2.656  0.5152 -1.0555 -0.9556
17355TIP3    H273481   1.534   2.670   2.764 -0.5350 -0.0091  0.4332
17356TIP3   OH273482   1.772   4.777   4.935  0.3847  0.4109  0.0666
17356TIP3    H173483   1.802   4.865   4.914 -1.2918  1.4235  1.6150
17356TIP3    H273484   1.691   4.790   4.984 -1.0864 -2.0615 -1.4627
17357TIP3   OH273485   2.377   2.830  15.828  0.2322  0.3938 -0.1193
17357TIP3    H173486   2.418   2.911  15.858 -0.2652  0.6146 -0.0241
17357TIP3    H273487   2.344   2.789  15.908 -3.9759  2.5369 -0.4853
17358TIP3   OH273488   0.810   5.759  11.940  0.3107  0.1013 -0.7159
17358TIP3    H173489   0.732   5.746  11.887 -0.2904 -0.0877  0.1878
17358TIP3    H273490   0.781   5.813  12.014  0.8679 -0.5128 -0.0228
17359TIP3   OH273491   4.922   1.236  16.335 -0.2846  0.4552  0.3710
17359TIP3    H173492   4.869   1.288  16.396 -0.8235 -0.5755  0.7968
17359TIP3    H273493   4.917   1.147  16.369  4.3608  0.6499  2.4400
17360TIP3   OH273494   3.490   4.951  13.747  0.6597 -0.5330  0.1770
17360TIP3    H173495   3.440   4.972  13.826 -0.0300 -0.9331 -0.1410
17360TIP3    H273496   3.576   4.992  13.761  0.2738  0.1030  0.7678
17361TIP3   OH273497   3.429   6.759  12.154 -0.4913  0.4463  0.3492
17361TIP3    H173498   3.395   6.802  12.075 -1.1096 -0.0255  0.3437
17361TIP3    H273499   3.460   6.674  12.122  2.7257  1.6177 -0.0425
17362TIP3   OH273500   6.750   0.348  15.947  0.0568  0.2582  0.5816
17362TIP3    H173501   6.746   0.266  15.898  0.3067  0.7319 -0.2481
17362TIP3    H273502   6.843   0.370  15.949 -0.0102  0.5289  0.8025
17363TIP3   OH273503   4.667   2.244   1.276 -0.1905 -0.2576 -0.2623
17363TIP3    H173504   4.760   2.264   1.285 -0.2182 -0.3909  0.3535
17363TIP3    H273505   4.630   2.322   1.234 -0.4890  1.6263  3.0660
17364TIP3   OH273506   5.044   5.982  14.735 -0.1365  0.1427 -0.4761
17364TIP3    H173507   5.099   6.025  14.800  1.1572  0.5760 -1.7987
17364TIP3    H273508   4.958   6.022  14.746  0.4662  1.3982 -0.1208
17365TIP3   OH273509   5.683   4.343  15.078 -0.4405  0.1267  0.5660
17365TIP3    H173510   5.613   4.279  15.066  1.2652 -1.7384  0.0053
17365TIP3    H273511   5.685   4.392  14.996 -0.1368 -0.8305 -0.0106
17366TIP3   OH273512   5.617   6.713  12.880 -0.8171 -0.0285 -0.2740
17366TIP3    H173513   5.631   6.753  12.794 -1.5834  1.0211  0.0697
17366TIP3    H273514   5.635   6.783  12.943 -0.1770 -0.8079  0.4365
17367TIP3   OH273515   2.946   5.233  13.396  0.6719  0.1588 -0.1664
17367TIP3    H173516   2.910   5.166  13.337 -1.8093 -0.5527  1.9916
17367TIP3    H273517   3.040   5.215  13.397  0.4101 -1.6772 -1.5949
17368TIP3   OH273518   1.558   0.159  16.648  0.1267 -0.4157  0.2533
17368TIP3    H173519   1.612   0.080  16.660 -0.5752 -0.9297  0.1168
17368TIP3    H273520   1.485   0.129  16.594  0.5843  0.6645 -1.0126
17369TIP3   OH273521   0.756   2.836  16.571  0.1098  0.0313 -0.1268
17369TIP3    H173522   0.775   2.838  16.665  0.7505 -1.6384 -0.1950
17369TIP3    H273523   0.765   2.927  16.543 -0.0143  0.5433  1.4060
17370TIP3   OH273524   2.038   1.164   5.421 -0.0537 -0.1758  0.2224
17370TIP3    H173525   1.980   1.167   5.344  1.1652 -0.4928 -0.7487
17370TIP3    H273526   2.118   1.124   5.388  0.3538 -0.7056  1.7831
17371TIP3   OH273527   0.871   6.594  16.700  0.1074 -0.2747  0.0483
17371TIP3    H173528   0.879   6.583  16.605 -0.7385 -0.7920  0.0292
17371TIP3    H273529   0.949   6.552  16.736 -0.0829 -0.9875 -0.3622
17372TIP3   OH273530   1.444   2.510  14.180 -0.0846 -0.3710  0.1710
17372TIP3    H173531   1.477   2.587  14.226 -0.0166 -0.3908  0.1557
17372TIP3    H273532   1.501   2.438  14.208  1.9721  0.1488 -2.2733
17373TIP3   OH273533   4.938   4.435  13.357 -0.2014 -0.1698  0.0900
17373TIP3    H173534   4.868   4.373  13.335 -0.0512 -0.0301 -0.8235
17373TIP3    H273535   4.899   4.494  13.421 -1.2157  0.4589 -1.0668
17374TIP3   OH273536   3.086   5.751  15.055  0.5984  0.1874 -0.9920
17374TIP3    H173537   3.007   5.701  15.078 -0.6885  1.3874 -2.5966
17374TIP3    H273538   3.063   5.842  15.072  1.7901  0.5358 -1.1260
17375TIP3   OH273539   4.112   2.472  16.593  0.1221 -0.0467  0.1816
17375TIP3    H173540   4.062   2.550  16.619 -1.3340 -0.6479 -0.6796
17375TIP3    H273541   4.095   2.408  16.662 -1.2244 -0.6098 -0.6353
17376TIP3   OH273542   3.589   5.910   1.935  0.0470 -0.0949 -0.5390
17376TIP3    H173543   3.574   5.991   1.984  0.3029 -0.8160  0.7672
17376TIP3    H273544   3.506   5.892   1.892 -0.5433 -0.0429  0.5420
17377TIP3   OH273545   1.019   4.515  14.614 -0.6397  0.3796 -0.0462
17377TIP3    H173546   1.080   4.588  14.626  1.0509 -0.9458 -0.3120
17377TIP3    H273547   0.974   4.507  14.698  1.3890 -0.2149  1.0413
17378TIP3   OH273548   1.385   5.122  11.345 -0.6282  0.1228 -0.1668
17378TIP3    H173549   1.335   5.200  11.368 -2.2133 -1.1638  0.9160
17378TIP3    H273550   1.345   5.091  11.264 -0.0403  0.3688 -0.5618
17379TIP3   OH273551   6.339   1.924   4.844 -0.3611 -0.8077  0.1944
17379TIP3    H173552   6.399   1.852   4.865  1.1577 -0.1127 -1.5009
17379TIP3    H273553   6.261   1.880   4.811 -0.6219 -1.7281  1.9186
17380TIP3   OH273554   0.719   2.065  16.885  0.1326 -0.1496 -0.0667
17380TIP3    H173555   0.657   2.131  16.917 -0.9215 -0.4188 -1.4319
17380TIP3    H273556   0.735   2.009  16.961 -1.2384 -0.0024  0.3706
17381TIP3   OH273557   0.598   0.088   0.123  0.0335  0.0738  0.3985
17381TIP3    H173558   0.689   0.093   0.151 -0.1299  1.6382  0.7262
17381TIP3    H273559   0.560   0.020   0.178  0.7300  0.1946  1.0514
17382TIP3   OH273560   3.337   4.501   1.404 -0.7903  0.1341 -0.1619
17382TIP3    H173561   3.266   4.438   1.410 -1.6084  0.8805 -1.4684
17382TIP3    H273562   3.400   4.461   1.344 -0.8222  0.1039 -0.1751
17383TIP3   OH273563   3.027   2.025  15.305  0.0338  0.0392  0.2895
17383TIP3    H173564   2.994   1.982  15.384 -2.4448  0.8719 -0.2005
17383TIP3    H273565   3.018   1.960  15.236  0.7129 -0.1596  0.3764
17384TIP3   OH273566   2.752   5.555   4.199  0.1412 -0.2123  0.3272
17384TIP3    H173567   2.725   5.545   4.108  3.1518  1.2839 -0.8797
17384TIP3    H273568   2.814   5.483   4.214  0.5848  0.2421  0.7569
17385TIP3   OH273569   3.632   4.150   5.871 -0.2218  0.3648 -0.9320
17385TIP3    H173570   3.677   4.220   5.822  1.7567 -0.1731  0.0160
17385TIP3    H273571   3.562   4.195   5.918  0.8126  1.6808 -0.5844
17386TIP3   OH273572   4.144   6.636   3.282  0.6007 -0.7879 -0.0678
17386TIP3    H173573   4.208   6.693   3.238 -1.0279  0.3184 -1.1723
17386TIP3    H273574   4.145   6.664   3.373  0.8614  0.0369 -0.3158
17387TIP3   OH273575   2.451   6.137  16.782  0.2926  0.1557 -0.9987
17387TIP3    H173576   2.475   6.105  16.695 -0.2712  0.1483 -1.1542
17387TIP3    H273577   2.398   6.068  16.819  2.3941 -0.8693  0.2732
17388TIP3   OH273578   0.845   1.147  16.642 -0.3172 -0.5712 -0.1764
17388TIP3    H173579   0.927   1.105  16.667 -0.2260 -1.3400 -1.6715
17388TIP3    H273580   0.777   1.083  16.663 -0.5604  0.0654  1.0627
17389TIP3   OH273581   3.237   1.143   1.623 -0.3516 -0.7182 -0.1922
17389TIP3    H173582   3.332   1.145   1.638 -0.5548 -2.9505  2.0763
17389TIP3    H273583   3.216   1.050   1.620 -2.3298 -0.2762 -2.1149
17390TIP3   OH273584   5.277   2.243  16.512  0.1778 -0.2490 -0.4828
17390TIP3    H173585   5.244   2.333  16.525 -0.2671 -0.0473 -2.6441
17390TIP3    H273586   5.200   2.188  16.527  0.1483 -0.1785 -0.3706
17391TIP3   OH273587   1.844   5.901   0.708 -0.3313 -0.4112 -0.6261
17391TIP3    H173588   1.763   5.850   0.704 -1.7627  1.7705 -1.6896
17391TIP3    H273589   1.913   5.837   0.727 -2.0560 -2.6024 -1.4092
17392TIP3   OH273590   6.535   3.097   1.270  0.1200  0.0227 -0.2001
17392TIP3    H173591   6.569   3.147   1.196 -0.8779  2.0460  0.6536
17392TIP3    H273592   6.614   3.065   1.315  0.7457 -0.9469 -1.8777
17393TIP3   OH273593   2.771   4.787   0.291 -0.5886  0.3260 -0.1901
17393TIP3    H173594   2.756   4.710   0.237 -0.8026  1.1374 -1.3450
17393TIP3    H273595   2.725   4.769   0.373 -3.7536  0.6632 -1.7408
17394TIP3   OH273596   3.531   6.705  14.927  0.0546 -0.4451 -0.6815
17394TIP3    H173597   3.452   6.733  14.881  0.0448 -1.0550 -1.0424
17394TIP3    H273598   3.509   6.618  14.961  0.0775 -0.0305  0.4446
17395TIP3   OH273599   1.986   0.310  15.837 -0.2395 -0.0415  0.2308
17395TIP3    H173600   2.024   0.222  15.836 -0.5119 -0.1597  0.1770
17395TIP3    H273601   2.048   0.363  15.886  0.5116 -0.0019 -0.7324
17396TIP3   OH273602   0.066   3.154   0.723 -0.7925  0.7796 -0.1072
17396TIP3    H173603   0.110   3.225   0.675 -0.8180 -0.4469 -2.0898
17396TIP3    H273604  -0.023   3.154   0.689 -0.9148  0.0910  0.2065
17397TIP3   OH273605   0.071   4.361  11.942 -0.4382 -0.0402  0.0292
17397TIP3    H173606  -0.014   4.401  11.959 -0.7872 -0.6612 -0.2178
17397TIP3    H273607   0.054   4.299  11.871  0.0248 -0.8143  0.5768
17398TIP3   OH273608   3.978   0.780   4.133  0.1429 -0.2505  0.7120
17398TIP3    H173609   4.029   0.844   4.084 -0.1133  0.3532  1.2076
17398TIP3    H273610   4.033   0.702   4.135 -0.3430 -0.7178 -1.5533
17399TIP3   OH273611   4.548   3.782   4.338 -0.1625 -0.2273  0.4143
17399TIP3    H173612   4.614   3.732   4.386  0.1391 -1.7563 -1.4664
17399TIP3    H273613   4.560   3.755   4.247 -3.5923 -0.8513  0.0345
17400TIP3   OH273614   1.095   3.178  16.012 -0.1195  0.3063 -0.2813
17400TIP3    H173615   1.166   3.118  16.035  0.0438  0.2589 -0.8926
17400TIP3    H273616   1.062   3.209  16.096  0.8348  0.5647  0.0111
17401TIP3   OH273617   4.706   5.551   2.342  0.3692 -0.5183  0.5313
17401TIP3    H173618   4.761   5.493   2.290 -0.9468 -0.5301 -0.9490
17401TIP3    H273619   4.628   5.499   2.361 -0.3887  0.4108  0.0597
17402TIP3   OH273620   0.764   5.474  15.848 -0.2710  0.8999  0.5995
17402TIP3    H173621   0.778   5.450  15.756 -1.1739  0.2221  0.6227
17402TIP3    H273622   0.834   5.538  15.867 -1.0824  2.3811 -1.0494
17403TIP3   OH273623   3.203   0.258   1.319  0.0033 -0.1563 -0.9643
17403TIP3    H173624   3.235   0.294   1.401  0.2808  0.2072 -1.2256
17403TIP3    H273625   3.113   0.292   1.311 -0.2698 -0.7544 -0.4814
17404TIP3   OH273626   3.144   2.369   3.347  0.0988 -0.1392  0.3121
17404TIP3    H173627   3.163   2.404   3.260  1.1478 -0.0891  0.5408
17404TIP3    H273628   3.084   2.432   3.386  1.2469  0.9552  0.3770
17405TIP3   OH273629   2.927   6.092  12.520  0.1159 -0.2772  0.4706
17405TIP3    H173630   2.886   6.175  12.497 -0.5642 -0.0279  2.3915
17405TIP3    H273631   2.880   6.063  12.598  1.9726 -1.2159  1.3055
17406TIP3   OH273632   1.832   5.743   1.097  0.5231  0.0094  0.4901
17406TIP3    H173633   1.911   5.694   1.116  2.0543  2.4308  0.7839
17406TIP3    H273634   1.761   5.681   1.110  2.3425 -2.2212  0.3009
17407TIP3   OH273635   4.100   4.273  16.450  0.0843 -0.1295  0.2258
17407TIP3    H173636   4.049   4.302  16.525 -1.2273 -0.1279 -0.6400
17407TIP3    H273637   4.061   4.190  16.425 -1.4496  1.2256 -2.2214
17408TIP3   OH273638   2.067   2.262  12.879  0.4702 -0.3224  0.0154
17408TIP3    H173639   1.983   2.238  12.839 -0.3579 -2.1698  2.5647
17408TIP3    H273640   2.124   2.187  12.861  0.4731 -0.5965  1.0608
17409TIP3   OH273641   6.165   4.583   2.854  0.1775  0.2239 -0.3107
17409TIP3    H173642   6.098   4.602   2.788  0.1060 -0.3073 -0.3924
17409TIP3    H273643   6.217   4.513   2.816  0.6562  0.4947 -0.1579
17410TIP3   OH273644   0.080   5.627  12.057  0.2809 -0.1656  0.4183
17410TIP3    H173645  -0.012   5.599  12.062  0.3907 -0.5681  0.1767
17410TIP3    H273646   0.085   5.677  11.976 -0.0073  0.9127  1.0428
17411TIP3   OH273647   6.746   2.868  13.893 -0.2985 -0.2707 -0.0832
17411TIP3    H173648   6.811   2.938  13.902 -2.5413  2.1676 -1.3096
17411TIP3    H273649   6.684   2.884  13.964 -3.6688  2.5440 -3.2104
17412TIP3   OH273650   2.392   1.174  12.885 -0.0611  0.4943  0.1074
17412TIP3    H173651   2.397   1.142  12.795 -1.9523  0.4973 -0.0318
17412TIP3    H273652   2.483   1.194  12.908  0.4695  0.4815 -1.7890
17413TIP3   OH273653   0.162   2.107  16.114  0.2248 -0.0712 -0.4585
17413TIP3    H173654   0.242   2.158  16.118  0.5609 -0.5768 -0.6602
17413TIP3    H273655   0.168   2.058  16.032 -1.0402  1.1093 -1.3043
17414TIP3   OH273656   4.463   6.522  11.027  0.1555 -0.2766  0.0524
17414TIP3    H173657   4.415   6.482  10.954  1.0339 -0.1312 -0.6173
17414TIP3    H273658   4.551   6.537  10.993  0.8883 -1.1276  1.4752
17415TIP3   OH273659   3.865   3.776  17.241 -0.1726 -0.1593  0.3387
17415TIP3    H173660   3.882   3.793  17.149 -0.1028  0.5374  0.4733
17415TIP3    H273661   3.927   3.707  17.264 -0.4805 -0.6330 -0.2328
17416TIP3   OH273662   2.337   5.496  12.739  0.8352 -0.2795 -0.0438
17416TIP3    H173663   2.303   5.445  12.666  0.3446  2.5455 -1.9418
17416TIP3    H273664   2.269   5.560  12.758  2.1722  0.9428  0.8783
17417TIP3   OH273665   5.457   6.507  13.042 -0.1633  0.1055  0.2600
17417TIP3    H173666   5.464   6.527  13.135  1.3267  0.0819  0.1785
17417TIP3    H273667   5.528   6.558  13.001 -0.7110  0.0173 -0.8449
17418TIP3   OH273668   0.157   4.627   1.554 -0.5152  0.4263  0.0948
17418TIP3    H173669   0.244   4.589   1.541 -0.9278 -0.1690 -1.0537
17418TIP3    H273670   0.174   4.709   1.600  0.9764  1.7683 -2.6121
17419TIP3   OH273671   6.009   3.610   2.221  0.0203  0.4782  0.4669
17419TIP3    H173672   5.970   3.672   2.282  0.1330  0.5150  0.5028
17419TIP3    H273673   6.066   3.555   2.275  0.2361  0.6066  0.3768
17420TIP3   OH273674   2.211   4.501   1.251 -0.0123 -0.3202  0.2468
17420TIP3    H173675   2.286   4.553   1.279  0.6419  0.5519 -2.8531
17420TIP3    H273676   2.249   4.427   1.204 -0.8620  1.7897 -4.2886
17421TIP3   OH273677   6.351   4.883   2.571 -0.5206 -0.3361  0.4869
17421TIP3    H173678   6.395   4.803   2.542  1.3953  0.3950  1.2655
17421TIP3    H273679   6.384   4.952   2.513 -1.6347  0.0382  0.2640
17422TIP3   OH273680   2.563   0.479   2.371  0.0121  0.0470 -0.2031
17422TIP3    H173681   2.561   0.515   2.282 -2.4273 -1.3396 -0.8189
17422TIP3    H273682   2.526   0.549   2.426 -1.2081 -0.1179 -0.7811
17423TIP3   OH273683   2.323   6.681   0.881 -0.6137  0.4321 -0.7661
17423TIP3    H173684   2.360   6.616   0.822  0.8536 -1.5994  2.1418
17423TIP3    H273685   2.394   6.703   0.941 -2.7207  0.0558  2.0969
17424TIP3   OH273686   6.061   2.626  14.792 -0.2444 -0.2237  0.3091
17424TIP3    H173687   6.112   2.587  14.720  0.0727  1.2301 -0.2842
17424TIP3    H273688   6.125   2.672  14.845 -0.7425  0.3845  0.3951
17425TIP3   OH273689   5.601   2.997  15.915  0.0713  0.2721  0.0919
17425TIP3    H173690   5.629   2.979  16.004  0.4180  0.1662 -0.0354
17425TIP3    H273691   5.551   3.078  15.921 -1.7309 -0.8220  0.7205
17426TIP3   OH273692   1.485   5.522  15.721  0.6154 -0.0359 -0.0274
17426TIP3    H173693   1.537   5.590  15.764  0.7818 -0.4217  0.3933
17426TIP3    H273694   1.467   5.557  15.634  2.3789 -0.2679 -0.5323
17427TIP3   OH273695   2.688   0.749   4.923  0.2492 -0.1459  0.1261
17427TIP3    H173696   2.652   0.837   4.931 -2.7948 -1.2364 -0.4647
17427TIP3    H273697   2.710   0.740   4.831  1.6316  0.2991  0.3769
17428TIP3   OH273698   5.516   6.117  14.787 -0.1834  0.2424 -0.1674
17428TIP3    H173699   5.540   6.195  14.836  1.7869 -0.3385 -0.1237
17428TIP3    H273700   5.510   6.048  14.854  1.9945 -0.4379 -0.5746
17429TIP3   OH273701   4.776   1.470  16.354 -1.1908 -0.0762 -0.3831
17429TIP3    H173702   4.849   1.490  16.295 -0.1690 -0.2936  0.7806
17429TIP3    H273703   4.724   1.551  16.356  0.9538  1.3872  1.4861
17430TIP3   OH273704   1.553   6.442   1.521 -0.0320 -0.1027 -0.0425
17430TIP3    H173705   1.618   6.374   1.538 -0.2336  0.1739  2.1209
17430TIP3    H273706   1.588   6.492   1.447  0.9824 -1.4391 -0.5010
17431TIP3   OH273707   4.836   3.502   6.278 -0.1340  0.2387 -0.2417
17431TIP3    H173708   4.932   3.494   6.276 -0.2028 -0.6324 -0.8813
17431TIP3    H273709   4.805   3.411   6.271 -1.0063  0.5606 -0.6396
17432TIP3   OH273710   3.009   5.501   6.817 -0.2196 -0.4544  0.2931
17432TIP3    H173711   3.082   5.561   6.805 -0.0772 -0.5845  0.5051
17432TIP3    H273712   3.022   5.433   6.752 -2.3512  1.6032 -2.5245
17433TIP3   OH273713   4.070   3.097   5.161  0.5785 -0.1924 -0.3678
17433TIP3    H173714   4.138   3.029   5.168 -0.0918 -0.7586  1.2775
17433TIP3    H273715   4.070   3.139   5.247 -0.6764  0.2547 -0.5632
17434TIP3   OH273716   3.703   0.379  14.534  0.8878  0.0405  0.3329
17434TIP3    H173717   3.726   0.290  14.507  0.2878 -0.4039  1.2370
17434TIP3    H273718   3.736   0.386  14.624 -1.0342 -0.0702  1.0919
17435TIP3   OH273719   2.551   6.213  13.018 -0.0314  0.3824 -0.3639
17435TIP3    H173720   2.602   6.294  13.026  0.2970  0.2068 -0.6981
17435TIP3    H273721   2.592   6.153  13.080  0.4607  0.0924 -0.9603
17436TIP3   OH273722   0.228   2.771   3.002 -0.6783  0.2509 -0.3532
17436TIP3    H173723   0.264   2.824   3.073  1.3524 -0.4127 -0.8387
17436TIP3    H273724   0.177   2.832   2.950 -1.1403  1.0148  0.9339
17437TIP3   OH273725   0.327   0.266   5.860  0.3022  0.3736  0.6501
17437TIP3    H173726   0.248   0.318   5.845  0.0705  0.3450  1.7344
17437TIP3    H273727   0.295   0.181   5.890  0.7110 -0.1626 -0.3608
17438TIP3   OH273728   5.737   3.332   5.948  0.3527 -0.5242 -0.7329
17438TIP3    H173729   5.784   3.404   5.990  1.9544  0.3012 -3.6497
17438TIP3    H273730   5.647   3.364   5.940 -0.0695 -0.7746  1.9661
17439TIP3   OH273731   1.561   3.221  13.844 -0.2839  0.0997 -0.1065
17439TIP3    H173732   1.618   3.274  13.900  0.1404  1.1087 -1.4645
17439TIP3    H273733   1.603   3.135  13.842  1.1499  0.7886 -0.9638
17440TIP3   OH273734   6.722   1.706  13.940  0.1171  0.1079 -0.6417
17440TIP3    H173735   6.761   1.783  13.981  0.5584 -0.4679  0.0495
17440TIP3    H273736   6.635   1.700  13.978  0.6638 -0.6458  0.5451
17441TIP3   OH273737   5.425   0.704  11.533 -0.1598  0.1862 -0.5249
17441TIP3    H173738   5.419   0.633  11.468  1.1465  0.1368 -0.6218
17441TIP3    H273739   5.451   0.781  11.482  2.7603 -0.2679  0.1213
17442TIP3   OH273740   0.919   6.153   3.614  0.0215 -0.0978 -0.1607
17442TIP3    H173741   0.842   6.096   3.620  1.0364 -1.4851  0.0156
17442TIP3    H273742   0.882   6.240   3.596 -1.6222 -0.5933  0.5902
17443TIP3   OH273743   0.704   4.296  12.781  0.1051  0.3101 -0.0839
17443TIP3    H173744   0.716   4.273  12.689  1.2741  3.0735 -0.7357
17443TIP3    H273745   0.791   4.283  12.820 -0.4845 -1.2404  0.7519
17444TIP3   OH273746   3.487   6.169   4.084  0.3081  0.1956  0.2995
17444TIP3    H173747   3.543   6.178   4.008  2.2322 -1.2244  1.4561
17444TIP3    H273748   3.442   6.085   4.071 -2.1146  1.5554 -0.8782
17445TIP3   OH273749   4.221   1.967   1.381  0.2447 -0.1688  0.2473
17445TIP3    H173750   4.282   1.923   1.440 -0.1132 -1.1653 -0.1198
17445TIP3    H273751   4.275   2.034   1.337  0.5579  0.4707  1.5382
17446TIP3   OH273752   4.691   2.246  15.068 -0.2645  0.3994  0.4711
17446TIP3    H173753   4.782   2.217  15.062  0.1609  1.6107  0.8392
17446TIP3    H273754   4.691   2.335  15.031 -1.3583  0.3018  0.2003
17447TIP3   OH273755   0.285   4.311   4.583 -0.3161  0.4645 -0.1783
17447TIP3    H173756   0.363   4.346   4.542  0.0130 -0.4778 -0.3708
17447TIP3    H273757   0.232   4.278   4.511  0.7363 -2.1578  0.1618
17448TIP3   OH273758   2.910   5.458  15.578  0.7238  0.2535  0.1597
17448TIP3    H173759   3.000   5.443  15.608  0.3802 -0.5772  0.8262
17448TIP3    H273760   2.873   5.370  15.571 -0.2470  0.6185  0.5734
17449TIP3   OH273761   4.768   1.958  13.137 -0.2249 -0.1899 -0.1472
17449TIP3    H173762   4.799   1.898  13.069  0.0214 -1.7982  1.3207
17449TIP3    H273763   4.843   1.970  13.195 -0.1090  1.9888 -0.6655
17450TIP3   OH273764   2.350   2.568   0.855  0.2593 -0.4645 -0.7654
17450TIP3    H173765   2.403   2.631   0.806 -3.2698  2.5043 -1.1665
17450TIP3    H273766   2.328   2.501   0.792  1.2529 -0.3032 -1.3126
17451TIP3   OH273767   6.410   4.619  15.081 -0.2041  0.3346 -0.1778
17451TIP3    H173768   6.504   4.601  15.077 -0.3969 -0.6916 -0.2501
17451TIP3    H273769   6.398   4.660  15.167  0.3724  0.9125 -0.3605
17452TIP3   OH273770   5.152   3.191   4.685 -0.3522  0.1415  0.1286
17452TIP3    H173771   5.178   3.242   4.761  0.5234 -1.1993  0.7757
17452TIP3    H273772   5.077   3.139   4.715  0.1196 -0.5370  0.1581
17453TIP3   OH273773   5.249   5.422  11.211  0.4910 -0.1526  0.3410
17453TIP3    H173774   5.298   5.495  11.174 -0.3867  0.7425  0.8834
17453TIP3    H273775   5.207   5.459  11.289 -1.1722 -0.8311 -0.1935
17454TIP3   OH273776   3.643   4.647  17.048  0.5303 -0.2421  0.3593
17454TIP3    H173777   3.711   4.616  17.109  0.0487  0.7803  1.4574
17454TIP3    H273778   3.600   4.718  17.095 -1.4798 -1.0156 -0.2065
17455TIP3   OH273779   4.799   2.427   6.127  0.0930 -0.2241 -0.2246
17455TIP3    H173780   4.756   2.512   6.122  0.3164  0.0326  1.5750
17455TIP3    H273781   4.781   2.396   6.216  0.5935 -1.7544 -0.6243
17456TIP3   OH273782   4.256   5.653  14.072  0.7198 -0.1095 -0.5488
17456TIP3    H173783   4.190   5.627  14.136  1.7566 -1.4582  0.0284
17456TIP3    H273784   4.310   5.717  14.117 -2.0555  3.7115 -2.0903
17457TIP3   OH273785   4.494   3.501  16.866 -0.6941 -0.3368  0.0379
17457TIP3    H173786   4.411   3.484  16.910 -0.4860 -0.4493  0.3936
17457TIP3    H273787   4.469   3.531  16.778 -1.0945 -2.8364 -0.7811
17458TIP3   OH273788   4.927   1.652   2.786  0.4246 -1.0123  0.5378
17458TIP3    H173789   4.878   1.693   2.857  1.6906  2.3600 -0.3716
17458TIP3    H273790   4.864   1.647   2.713  0.8465  1.8714 -0.1422
17459TIP3   OH273791   5.952   4.536  16.257  0.2670 -0.2851  0.0446
17459TIP3    H173792   5.952   4.631  16.242 -0.5046  0.0278  1.7368
17459TIP3    H273793   5.875   4.521  16.312  1.6124 -1.5575  1.6992
17460TIP3   OH273794   3.033   2.463   5.148  0.3673  0.0229  0.1622
17460TIP3    H173795   3.064   2.535   5.204 -1.7227  1.2944 -0.2055
17460TIP3    H273796   3.100   2.395   5.158  1.4574  1.2547  2.0483
17461TIP3   OH273797   4.411   6.615   1.952  0.0091  0.6433 -0.3212
17461TIP3    H173798   4.457   6.640   2.032  0.7530 -1.8875  0.1478
17461TIP3    H273799   4.342   6.680   1.942 -0.5460  0.6853  2.7818
17462TIP3   OH273800   6.211   2.379  13.026  0.2816  0.0476 -0.2931
17462TIP3    H173801   6.274   2.307  13.024 -0.2080 -0.3756 -1.4291
17462TIP3    H273802   6.223   2.424  12.942  0.5077  1.2375  0.3536
17463TIP3   OH273803   2.433   4.615   3.789 -0.9512 -0.3295  0.1019
17463TIP3    H173804   2.346   4.581   3.772 -1.6129 -0.2407  2.7947
17463TIP3    H273805   2.427   4.708   3.768 -1.6873 -0.2138  0.7973
17464TIP3   OH273806   3.293   5.873  13.165  0.0890 -0.2218  0.1337
17464TIP3    H173807   3.218   5.915  13.206  1.3055  1.4156  0.8105
17464TIP3    H273808   3.255   5.808  13.106 -1.7789 -0.7112  1.7866
17465TIP3   OH273809   3.841   0.564   6.207 -0.3006 -0.1616 -0.5474
17465TIP3    H173810   3.852   0.498   6.276 -1.6649 -1.2577 -1.3281
17465TIP3    H273811   3.926   0.607   6.201  0.7452 -2.0822 -0.2377
17466TIP3   OH273812   6.637   0.062   3.443  0.3616 -0.4997 -0.0544
17466TIP3    H173813   6.667   0.113   3.367  1.5425 -0.7437  0.2242
17466TIP3    H273814   6.551   0.030   3.418 -0.6398  1.9777 -0.0799
17467TIP3   OH273815   5.626   6.218   2.470  0.4703 -0.2269 -0.4707
17467TIP3    H173816   5.595   6.203   2.380 -1.5698 -0.3234  0.2039
17467TIP3    H273817   5.639   6.130   2.506  0.0628 -0.2160 -0.2885
17468TIP3   OH273818   1.053   2.158   2.401  0.0798 -0.2315 -0.0349
17468TIP3    H173819   0.998   2.212   2.458  0.5069  0.4364 -0.2529
17468TIP3    H273820   0.998   2.141   2.324  1.2490  3.3327 -1.8877
17469TIP3   OH273821   0.862   1.492  12.637 -0.1400  0.2807 -0.4415
17469TIP3    H173822   0.852   1.416  12.695  1.8276  0.8998  0.8069
17469TIP3    H273823   0.773   1.518  12.616 -0.8723 -1.5116  0.2533
17470TIP3   OH273824   5.900   1.159  15.017  0.3055  0.6682 -0.7882
17470TIP3    H173825   5.818   1.147  15.065  0.3087  1.3705 -0.5884
17470TIP3    H273826   5.945   1.075  15.024 -0.4738  0.2221 -1.0547
17471TIP3   OH273827   4.695   4.849   3.997 -0.3325 -0.3537  0.1522
17471TIP3    H173828   4.657   4.868   3.911 -1.2267  0.5362  0.7122
17471TIP3    H273829   4.776   4.899   3.999 -0.3011 -0.3862 -0.1740
17472TIP3   OH273830   2.012   2.881   3.919  0.3612 -0.2574 -0.6700
17472TIP3    H173831   2.056   2.956   3.959  1.2409 -0.7127 -0.7504
17472TIP3    H273832   2.083   2.821   3.898 -0.3902 -1.4049  0.0015
17473TIP3   OH273833   0.137   5.200  16.076  0.2349 -0.3931  0.0120
17473TIP3    H173834   0.181   5.274  16.118  0.4256 -1.2352  1.3353
17473TIP3    H273835   0.195   5.126  16.093 -0.7335 -1.1456  0.0642
17474TIP3   OH273836   0.072   1.506   0.699 -0.0442 -0.5263  0.3124
17474TIP3    H173837  -0.020   1.488   0.681  0.2955 -2.6072  0.4478
17474TIP3    H273838   0.114   1.503   0.613 -0.3086  2.2112  0.0012
17475TIP3   OH273839   3.172   3.710  11.107 -0.1074  0.0875 -0.3642
17475TIP3    H173840   3.242   3.767  11.139 -1.3327  0.7723  1.2785
17475TIP3    H273841   3.095   3.736  11.159 -1.2680 -1.4892 -1.2129
17476TIP3   OH273842   2.212   4.553   6.434  0.0214 -1.2180 -0.4091
17476TIP3    H173843   2.238   4.604   6.510  0.8919 -1.7930 -0.2976
17476TIP3    H273844   2.180   4.617   6.370  0.6159 -0.5996 -0.0880
17477TIP3   OH273845   6.655   0.225  12.359  0.0698  0.5196  0.0825
17477TIP3    H173846   6.651   0.261  12.448 -1.3141  0.4566  0.0637
17477TIP3    H273847   6.718   0.281  12.314  0.5507  0.7545  1.0072
17478TIP3   OH273848   4.208   0.840   4.951  0.0111  0.0508 -0.1940
17478TIP3    H173849   4.243   0.795   4.874 -0.6348 -0.3983 -0.2409
17478TIP3    H273850   4.209   0.933   4.928  0.4106 -0.0283 -0.4989
17479TIP3   OH273851   0.111   2.740   1.153  0.0723  0.0509 -0.3859
17479TIP3    H173852   0.031   2.691   1.168 -0.4249  0.6298 -1.0967
17479TIP3    H273853   0.085   2.832   1.158  1.5904  0.5052  4.5739
17480TIP3   OH273854   0.298   3.733  16.722 -0.1139  0.0149  0.6324
17480TIP3    H173855   0.370   3.733  16.658 -0.1431  2.2838  0.5058
17480TIP3    H273856   0.220   3.716  16.669 -0.1446  1.9279 -0.0521
17481TIP3   OH273857   0.237   2.358  15.638  0.5906  0.2363  0.5104
17481TIP3    H173858   0.189   2.330  15.560  1.1695 -0.5008  0.4035
17481TIP3    H273859   0.324   2.319  15.627  0.8130  0.4906  1.3168
17482TIP3   OH273860   0.195   1.307   3.366 -0.1979 -0.5130  0.4905
17482TIP3    H173861   0.225   1.284   3.454  1.3205  1.3494  0.5164
17482TIP3    H273862   0.256   1.263   3.308  2.0697  2.3223  0.5262
17483TIP3   OH273863   2.297   1.814  17.154  0.4484  0.1232  0.7901
17483TIP3    H173864   2.335   1.855  17.232  0.2410  3.4112 -0.7074
17483TIP3    H273865   2.371   1.794  17.098  0.4037  0.5072  0.5924
17484TIP3   OH273866   2.700   0.045   0.421 -0.1108  0.1151  0.0829
17484TIP3    H173867   2.747   0.008   0.346 -0.3731 -0.2191  0.0818
17484TIP3    H273868   2.625   0.090   0.382 -0.5624 -0.5413  0.1793
17485TIP3   OH273869   5.349   6.640   5.107  0.1098 -0.3239  0.0127
17485TIP3    H173870   5.295   6.615   5.181 -0.5509 -0.8061 -0.6123
17485TIP3    H273871   5.286   6.663   5.038  0.6603 -1.5380 -0.9393
17486TIP3   OH273872   3.266   3.946  16.137  0.4618  0.2916  0.4749
17486TIP3    H173873   3.229   3.990  16.060  1.1983 -0.4891 -0.3411
17486TIP3    H273874   3.360   3.946  16.121  0.5310 -0.9209  0.8140
17487TIP3   OH273875   3.030   2.688   2.555 -0.2483  0.1829  0.3635
17487TIP3    H173876   3.029   2.632   2.478  0.4836  0.4506  0.1537
17487TIP3    H273877   2.992   2.771   2.524 -3.3096 -0.7764  1.1700
17488TIP3   OH273878   3.802   3.244  12.019  0.1091  0.0661  0.6619
17488TIP3    H173879   3.849   3.220  12.098  0.2357 -1.5047  0.1357
17488TIP3    H273880   3.710   3.229  12.039  0.2480 -1.7122  0.0759
17489TIP3   OH273881   0.049   3.030   3.199 -0.1666 -0.1346  0.4647
17489TIP3    H173882   0.136   3.028   3.159  0.0242 -1.3616  0.8696
17489TIP3    H273883   0.064   3.001   3.289 -0.7757  1.2834  1.0428
17490TIP3   OH273884   4.214   5.543   3.740 -0.3610 -0.5721 -0.1460
17490TIP3    H173885   4.122   5.522   3.757 -0.9954  0.5588 -1.9850
17490TIP3    H273886   4.212   5.605   3.667  1.8786 -0.7452 -0.4224
17491TIP3   OH273887   2.390   2.455  13.129  0.2638  0.0020 -0.3460
17491TIP3    H173888   2.396   2.442  13.034 -0.5458  0.6321 -0.4986
17491TIP3    H273889   2.298   2.436  13.150  0.4924 -0.3578  0.3509
17492TIP3   OH273890   5.208   1.645  11.112 -0.6086  0.2665 -0.4245
17492TIP3    H173891   5.130   1.689  11.078 -1.6999 -1.7536 -0.7053
17492TIP3    H273892   5.273   1.653  11.042 -0.6013  1.7866 -0.2707
17493TIP3   OH273893   5.936   0.694  12.896 -0.0416 -0.5959  0.5475
17493TIP3    H173894   5.969   0.617  12.942 -0.6970 -1.5363 -0.4950
17493TIP3    H273895   5.989   0.699  12.816  0.4742  0.4762  0.9363
17494TIP3   OH273896   1.763   1.089  10.911 -0.5808  0.5383  0.0077
17494TIP3    H173897   1.709   1.146  10.856 -0.2425  0.1742 -0.7126
17494TIP3    H273898   1.837   1.064  10.855 -0.0756  0.3990  0.7270
17495TIP3   OH273899   4.503   4.002  14.423  0.0660  0.1109  0.1930
17495TIP3    H173900   4.522   4.093  14.401 -1.4839  0.4645  0.1665
17495TIP3    H273901   4.418   3.985  14.382 -1.2817 -0.2737  2.9028
17496TIP3   OH273902   0.963   4.439  15.233 -0.1659 -0.2190 -0.6735
17496TIP3    H173903   0.939   4.526  15.203 -2.5699 -0.5853 -0.0380
17496TIP3    H273904   0.971   4.448  15.328 -1.3857 -0.8356 -0.4863
17497TIP3   OH273905   3.085   0.724   0.152  0.2197  0.6605 -0.1074
17497TIP3    H173906   3.089   0.630   0.172  0.2777  0.7219  0.1753
17497TIP3    H273907   3.110   0.767   0.234  0.6940  0.9171 -0.3810
17498TIP3   OH273908   5.806   2.948   5.617  0.2107  0.0970  0.2798
17498TIP3    H173909   5.847   2.873   5.660 -0.9109 -0.2328  0.8072
17498TIP3    H273910   5.847   2.951   5.530  0.7116 -0.7453  0.4738
17499TIP3   OH273911   5.629   2.547   3.859 -0.0011 -0.0153  0.0842
17499TIP3    H173912   5.581   2.617   3.814  1.9441 -0.0974 -2.3405
17499TIP3    H273913   5.718   2.581   3.867  0.3660 -1.2038  1.3044
17500TIP3   OH273914   0.896   4.023   6.599 -0.3498 -0.0317 -0.2145
17500TIP3    H173915   0.851   3.948   6.558 -1.9758  0.5134  0.4703
17500TIP3    H273916   0.825   4.080   6.628  0.7994  2.7397 -2.3666
17501TIP3   OH273917   6.525   1.241   0.889 -0.6902  0.2179 -0.5895
17501TIP3    H173918   6.434   1.217   0.872 -0.0613 -1.9597 -1.1932
17501TIP3    H273919   6.570   1.220   0.807  0.7678 -1.2464  0.5231
17502TIP3   OH273920   2.311   4.692   1.956 -0.7854  0.0037  0.3727
17502TIP3    H173921   2.216   4.702   1.946 -0.4908  2.9182 -0.4940
17502TIP3    H273922   2.347   4.729   1.875  1.1234 -1.0164  0.6982
17503TIP3   OH273923   1.849   2.652  15.458 -0.4606  0.2107  0.0202
17503TIP3    H173924   1.850   2.672  15.552 -1.0489  0.9017 -0.1126
17503TIP3    H273925   1.787   2.579  15.450  1.9872 -2.1176  0.5585
17504TIP3   OH273926   0.580   2.653  13.321 -0.0940  0.0591 -0.0125
17504TIP3    H173927   0.588   2.687  13.232  1.1310 -0.3947 -0.0858
17504TIP3    H273928   0.588   2.730  13.377  1.2576  0.0879 -0.2274
17505TIP3   OH273929   6.243   1.700   3.021  0.2332  1.1270 -0.4603
17505TIP3    H173930   6.254   1.785   2.977  1.0757  1.4068  0.2468
17505TIP3    H273931   6.322   1.691   3.075 -0.0497  0.0843 -0.1983
17506TIP3   OH273932   1.235   0.320  15.122 -0.3256  0.0629 -0.4387
17506TIP3    H173933   1.196   0.407  15.126 -0.2388  0.0672  1.0076
17506TIP3    H273934   1.327   0.335  15.104 -0.2906  0.2858 -0.0813
17507TIP3   OH273935   0.393   3.014   6.520 -0.1661 -0.0392  0.2876
17507TIP3    H173936   0.461   2.965   6.474  0.0826  1.3542 -0.8939
17507TIP3    H273937   0.311   2.984   6.480 -0.1606 -0.7573  0.7992
17508TIP3   OH273938   4.831   4.381   6.329 -0.2343  0.2839  0.0576
17508TIP3    H173939   4.926   4.379   6.341 -0.4031  1.2530  2.0998
17508TIP3    H273940   4.815   4.458   6.275  0.0638  1.1894  1.2164
17509TIP3   OH273941   2.547   2.413  11.027  0.2810 -0.1993 -0.1300
17509TIP3    H173942   2.479   2.407  10.961  1.1098  0.4407 -1.0687
17509TIP3    H273943   2.581   2.502  11.019 -1.1882  0.7627  2.7915
17510TIP3   OH273944   1.435   2.150   5.204  0.3077  0.8477 -0.3115
17510TIP3    H173945   1.394   2.088   5.264  0.4154 -0.0315 -1.1349
17510TIP3    H273946   1.408   2.236   5.238 -0.7217  0.3427  0.2208
17511TIP3   OH273947   3.167   5.161   5.551  0.2866 -0.3902 -0.5682
17511TIP3    H173948   3.188   5.147   5.459  1.4700  2.2747 -0.7853
17511TIP3    H273949   3.079   5.198   5.551  1.4849  2.8170 -1.0577
17512TIP3   OH273950   3.380   5.652   5.131 -0.6643  0.0104  0.5633
17512TIP3    H173951   3.387   5.601   5.212 -0.0220 -1.7039 -0.5289
17512TIP3    H273952   3.367   5.587   5.062  0.3402  1.3015 -0.9134
17513TIP3   OH273953   4.013   5.330  11.267 -0.1093 -0.1783  0.4540
17513TIP3    H173954   4.103   5.335  11.236 -1.1778  0.1209 -2.9792
17513TIP3    H273955   4.010   5.389  11.343  2.6982 -0.8058  1.1600
17514TIP3   OH273956   0.069   3.628   4.255 -0.2222 -0.5602  0.1080
17514TIP3    H173957   0.092   3.673   4.337 -1.4352  1.2044 -0.4537
17514TIP3    H273958   0.137   3.561   4.245  1.8596  1.2717  0.9080
17515TIP3   OH273959   1.659   3.816  14.307 -0.1289  0.0499  0.0093
17515TIP3    H173960   1.601   3.888  14.333 -0.2247 -0.4557  1.2785
17515TIP3    H273961   1.734   3.859  14.267  1.1387  1.1317  3.2121
17516TIP3   OH273962   4.930   3.891  12.019 -0.0581  0.5222  0.1793
17516TIP3    H173963   4.835   3.880  12.010  0.0635 -0.9664  0.4061
17516TIP3    H273964   4.957   3.936  11.939 -0.5689 -1.7491 -1.3521
17517TIP3   OH273965   3.993   3.654   0.922 -0.1172  0.1535 -0.4314
17517TIP3    H173966   3.964   3.602   0.848 -0.8722 -0.1620  0.0692
17517TIP3    H273967   3.972   3.744   0.898  0.5734  0.1720 -1.0131
17518TIP3   OH273968   6.200   4.338   1.125 -0.3177 -0.2687 -1.1724
17518TIP3    H173969   6.257   4.303   1.194  0.8097 -0.0284 -1.9497
17518TIP3    H273970   6.220   4.432   1.124 -3.5282  0.6137  1.1216
17519TIP3   OH273971   0.207   3.824   5.167  0.6942 -0.1098  0.1307
17519TIP3    H173972   0.153   3.889   5.121 -0.0692 -1.1967 -0.5606
17519TIP3    H273973   0.283   3.812   5.110  1.4335  1.0180  0.8374
17520TIP3   OH273974   5.205   3.054   0.596  0.2125  0.3084  0.2466
17520TIP3    H173975   5.118   3.068   0.634  0.8148 -0.4694  1.9944
17520TIP3    H273976   5.209   3.116   0.523 -0.9493  1.9806  1.5211
17521TIP3   OH273977   6.579   0.026   4.124  0.2871 -0.6210 -0.5563
17521TIP3    H173978   6.671   0.003   4.115  0.3998 -0.5993  0.4724
17521TIP3    H273979   6.535  -0.055   4.148  0.5724 -0.0364  2.3008
17522TIP3   OH273980   1.283   1.453   3.600 -0.1827  0.3567  0.1397
17522TIP3    H173981   1.216   1.385   3.600  0.2240 -0.0646 -1.2374
17522TIP3    H273982   1.364   1.406   3.624  0.3460  0.0508 -2.0523
17523TIP3   OH273983   0.274   3.240   3.240  0.5954  0.0624  0.2590
17523TIP3    H173984   0.342   3.190   3.286  1.0191 -0.5928 -1.0249
17523TIP3    H273985   0.294   3.227   3.147  0.9284  2.9510 -0.1431
17524TIP3   OH273986   1.514   2.600  16.385 -0.4408  0.2493  0.5376
17524TIP3    H173987   1.487   2.529  16.327 -0.0311  1.7099 -1.5540
17524TIP3    H273988   1.593   2.635  16.344 -0.1892  1.4304  1.9484
17525TIP3   OH273989   6.410   0.103  12.762  0.3218 -0.5111  0.1263
17525TIP3    H173990   6.348   0.038  12.728 -0.4374  0.1980  0.1162
17525TIP3    H273991   6.452   0.059  12.836 -0.8202 -0.7283  0.6693
17526TIP3   OH273992   2.745   3.334  15.139 -0.0879  0.5138 -0.1399
17526TIP3    H173993   2.784   3.355  15.224  0.8393  1.4512 -0.7750
17526TIP3    H273994   2.664   3.288  15.161  0.8912 -0.6600  1.2285
17527TIP3   OH273995   0.876   3.118   1.395 -0.0421 -0.0458  0.1737
17527TIP3    H173996   0.830   3.201   1.380 -2.6249 -0.9535  2.3305
17527TIP3    H273997   0.938   3.137   1.465  2.2082  0.8857 -1.9271
17528TIP3   OH273998   2.335   6.470   4.454 -0.2155  0.5096  0.1442
17528TIP3    H173999   2.390   6.546   4.438  0.5563  0.4176  2.0697
17528TIP3    H274000   2.381   6.397   4.412 -0.2995  0.8715 -0.5940
17529TIP3   OH274001   6.339   4.281   2.583 -0.0784  0.1721  0.3999
17529TIP3    H174002   6.297   4.267   2.498  0.5127 -0.4542  0.1997
17529TIP3    H274003   6.426   4.315   2.561 -0.0390  0.3125  0.7692
17530TIP3   OH274004   6.433   1.807   2.734  0.3611  0.1772 -0.6826
17530TIP3    H174005   6.497   1.870   2.702  0.1962  0.2106 -0.9480
17530TIP3    H274006   6.446   1.730   2.678  1.1647 -0.3550  0.2002
17531TIP3   OH274007   4.744   5.674  12.128 -0.2660  0.0962 -0.3556
17531TIP3    H174008   4.727   5.693  12.036  0.0555  0.8589 -0.2654
17531TIP3    H274009   4.682   5.604  12.150  0.1504 -0.5896 -1.3334
17532TIP3   OH274010   1.421   1.322  12.095  0.3600  0.4666 -0.7606
17532TIP3    H174011   1.408   1.227  12.086  0.5761  0.5564 -2.1598
17532TIP3    H274012   1.336   1.360  12.074  0.2520  0.5987 -0.1208
17533TIP3   OH274013   6.178   0.847  17.251 -0.2934  0.6655  0.4407
17533TIP3    H174014   6.159   0.853  17.158  0.9482  0.7028  0.1743
17533TIP3    H274015   6.244   0.778  17.258  0.3735  1.3537  1.1569
17534TIP3   OH274016   0.581   1.838  11.602 -0.7557  0.2664 -0.1967
17534TIP3    H174017   0.575   1.798  11.515 -0.2452 -3.1375  1.1761
17534TIP3    H274018   0.664   1.805  11.637 -1.1372  1.2453  1.7309
17535TIP3   OH274019   4.519   4.169   2.314 -0.3948 -0.4656  0.2270
17535TIP3    H174020   4.513   4.146   2.407 -2.7960  1.9751  0.7857
17535TIP3    H274021   4.439   4.134   2.275 -0.4553  0.3943 -0.4516
17536TIP3   OH274022   1.310   5.077   3.023  0.4630  0.4316  0.5863
17536TIP3    H174023   1.296   5.154   2.968  0.7602  0.9285  1.1930
17536TIP3    H274024   1.385   5.100   3.078  1.5643 -0.8935 -0.3031
17537TIP3   OH274025   0.612   6.186   1.790  0.1474 -0.0206  0.1537
17537TIP3    H174026   0.558   6.250   1.744  1.0984  0.5939 -0.1424
17537TIP3    H274027   0.678   6.238   1.836  0.1123 -0.7125  1.0379
17538TIP3   OH274028   3.168   1.057   5.173 -0.4129  0.1011  0.5351
17538TIP3    H174029   3.246   1.104   5.201 -0.2969  0.8161 -0.9016
17538TIP3    H274030   3.095   1.105   5.212 -0.1534 -1.4733  3.1982
17539TIP3   OH274031   0.530   2.411   4.141  0.3863  0.0959  0.3785
17539TIP3    H174032   0.598   2.402   4.208  1.3605 -0.2734 -0.6420
17539TIP3    H274033   0.563   2.362   4.066 -1.0449 -0.1526 -0.1253
17540TIP3   OH274034   3.747   4.640  11.632  0.1893  0.7860 -0.6924
17540TIP3    H174035   3.710   4.625  11.545 -0.2704 -1.3476 -0.1709
17540TIP3    H274036   3.672   4.647  11.690  0.5172 -0.7773 -0.0444
17541TIP3   OH274037   5.551   1.229  15.750  0.1987 -0.0324  0.7079
17541TIP3    H174038   5.557   1.314  15.794 -1.5628  0.8469 -0.6047
17541TIP3    H274039   5.536   1.251  15.658 -3.0490 -1.6616  0.7157
17542TIP3   OH274040   6.100   3.344  14.715 -0.1408 -0.5826 -0.3778
17542TIP3    H174041   6.019   3.379  14.677  0.0713  1.0107  0.5526
17542TIP3    H274042   6.132   3.282  14.650 -0.2587  1.3591 -2.4128
17543TIP3   OH274043   1.133   1.951  11.445 -0.3345 -0.3957 -0.1745
17543TIP3    H174044   1.208   1.975  11.390  0.8704 -1.6287  0.8778
17543TIP3    H274045   1.165   1.962  11.535 -0.9070 -2.3514  0.3094
17544TIP3   OH274046   1.301   1.398  10.307  0.1188  0.3608 -0.2952
17544TIP3    H174047   1.278   1.473  10.252 -0.3282  0.7393  0.3960
17544TIP3    H274048   1.384   1.366  10.271  0.7305  1.6774 -0.1033
17545TIP3   OH274049   5.165   2.575   0.633  0.1626 -0.2085 -0.3036
17545TIP3    H174050   5.242   2.523   0.612 -0.0893 -0.9523  0.5457
17545TIP3    H274051   5.104   2.512   0.672 -1.4193  0.0789 -2.1666
17546TIP3   OH274052   2.223   0.550   5.366 -0.1151  0.4067 -0.6099
17546TIP3    H174053   2.290   0.503   5.415 -0.4294 -0.4769 -1.0064
17546TIP3    H274054   2.217   0.636   5.409 -0.7063 -0.4921  1.2135
17547TIP3   OH274055   3.122   1.679   0.395  0.1129  0.6763  0.5625
17547TIP3    H174056   3.175   1.708   0.321  1.2068 -1.0252  0.6362
17547TIP3    H274057   3.141   1.586   0.403 -0.4349  0.7018  2.6130
17548TIP3   OH274058   0.479   6.142  17.182 -0.3779 -0.4351 -0.5386
17548TIP3    H174059   0.466   6.149  17.277 -0.5178 -0.6673 -0.5397
17548TIP3    H274060   0.394   6.163  17.144 -0.5028 -1.0048 -0.5843
17549TIP3   OH274061   3.995   4.539  11.930  0.2244 -0.4233 -0.0897
17549TIP3    H174062   3.903   4.537  11.959  0.4327 -3.2087  0.5819
17549TIP3    H274063   4.041   4.485  11.993  2.2678  0.4431 -0.7763
17550TIP3   OH274064   3.797   2.138  17.286  0.1906 -0.4125  0.2109
17550TIP3    H174065   3.819   2.115  17.377  0.7406  0.9299  0.4357
17550TIP3    H274066   3.701   2.146  17.287  0.0157 -2.0921  0.2380
17551TIP3   OH274067   1.237   4.170   2.738 -0.5889 -0.2317 -0.0787
17551TIP3    H174068   1.149   4.132   2.745 -1.0677  0.4392 -1.8708
17551TIP3    H274069   1.222   4.262   2.713  0.5939  0.5372  1.8015
17552TIP3   OH274070   2.246   2.924  15.240 -0.3302  0.8698 -0.0511
17552TIP3    H174071   2.276   2.985  15.308  1.0643  0.6924 -0.4805
17552TIP3    H274072   2.326   2.896  15.196 -0.7906 -2.1840  0.8508
17553TIP3   OH274073   0.625   1.765  11.343 -0.3869 -0.2936  0.1685
17553TIP3    H174074   0.570   1.728  11.274  0.0770 -0.3792 -0.1576
17553TIP3    H274075   0.702   1.798  11.297 -1.3318  2.2558  0.2588
17554TIP3   OH274076   4.301   2.669  12.350 -0.1870  0.0596 -0.8322
17554TIP3    H174077   4.282   2.584  12.389 -1.4991 -0.0055 -1.5855
17554TIP3    H274078   4.234   2.727  12.385  1.7138  1.2689  1.0919
17555TIP3   OH274079   1.218   3.709  12.708  0.1103 -0.4049  0.5478
17555TIP3    H174080   1.296   3.669  12.748 -1.1925 -1.6919  1.9298
17555TIP3    H274081   1.177   3.638  12.659 -0.0865  0.3309 -0.3766
17556TIP3   OH274082   1.179   4.285  16.653 -0.2185 -0.0513  0.3608
17556TIP3    H174083   1.143   4.253  16.735 -1.2956 -1.7114 -0.6861
17556TIP3    H274084   1.274   4.281  16.665 -0.3583  0.4165  1.7478
17557TIP3   OH274085   2.047   1.001  11.823 -0.2303  0.1869  0.0805
17557TIP3    H174086   2.050   0.955  11.906  0.0905  1.1971  0.6454
17557TIP3    H274087   2.137   1.032  11.809 -0.4589  0.7487 -0.2123
17558TIP3   OH274088   1.529   2.447  12.318  0.9063  0.5109 -0.5249
17558TIP3    H174089   1.573   2.363  12.311  1.6738  0.9691 -1.3675
17558TIP3    H274090   1.511   2.457  12.412 -1.1914 -1.5737 -0.6058
17559TIP3   OH274091   0.482   4.300  15.778 -0.6777 -0.4899 -0.2803
17559TIP3    H174092   0.542   4.267  15.711  0.1264  0.2831  0.0400
17559TIP3    H274093   0.424   4.359  15.730 -0.9912 -0.9954 -0.5333
17560TIP3   OH274094   0.049   2.573  14.533 -0.0251 -0.4418 -0.0098
17560TIP3    H174095   0.019   2.482  14.523 -0.1294 -0.1818 -3.0213
17560TIP3    H274096   0.124   2.579  14.473 -0.7866  1.7550 -0.8203
17561TIP3   OH274097   4.974   3.433  17.335  0.5891 -0.3598  0.2451
17561TIP3    H174098   4.907   3.487  17.377  0.3888 -0.6852  0.3511
17561TIP3    H274099   4.925   3.361  17.295  0.7847 -0.0901 -0.4941
17562TIP3   OH274100   0.984   0.137   4.008  0.1036  0.0138  0.4326
17562TIP3    H174101   1.005   0.173   4.094 -1.2531  0.0863  0.7553
17562TIP3    H274102   1.069   0.120   3.967  0.7776 -0.6337  2.0406
17563TIP3   OH274103   5.168   0.481   1.026 -0.7449  0.4553  0.0580
17563TIP3    H174104   5.262   0.463   1.030 -0.3451  2.1615 -0.7322
17563TIP3    H274105   5.136   0.463   1.115  0.3810  0.1585  0.4124
17564TIP3   OH274106   5.244   1.620   0.952 -0.0646  0.0278  0.5850
17564TIP3    H174107   5.253   1.569   0.871  1.1649  1.5069 -0.2882
17564TIP3    H274108   5.150   1.629   0.964 -0.2895  0.0255 -0.8838
17565TIP3   OH274109   1.926   4.307   2.569 -0.2252  0.2340 -0.4155
17565TIP3    H174110   1.915   4.402   2.564 -0.8947  0.1825  0.0152
17565TIP3    H274111   2.001   4.289   2.511  0.1542  1.0615 -0.2020
17566TIP3   OH274112   1.441   4.926  11.534 -0.2744 -0.3010  0.4759
17566TIP3    H174113   1.440   4.986  11.460 -1.8986 -0.8242  0.0443
17566TIP3    H274114   1.442   4.983  11.611  1.1678  0.2457  0.0984
17567TIP3   OH274115   1.558   4.534  17.051 -0.1910 -0.2064  0.0598
17567TIP3    H174116   1.488   4.555  17.113 -0.5606  0.2284 -0.4951
17567TIP3    H274117   1.638   4.564  17.093 -0.4543  0.2009  0.2710
17568TIP3   OH274118   0.935   4.124   6.318  0.4297 -0.3293  0.2169
17568TIP3    H174119   0.848   4.093   6.291  1.1504 -1.2510 -1.1435
17568TIP3    H274120   0.936   4.112   6.413 -1.2759  0.6190  0.3931
17569TIP3   OH274121   1.369   6.008   3.755 -0.2517 -0.0809 -0.5122
17569TIP3    H174122   1.304   6.064   3.712  0.4252 -0.2046 -1.7579
17569TIP3    H274123   1.327   5.978   3.835 -2.3137 -1.2983 -1.9486
17570TIP3   OH274124   4.142   0.137   0.589  0.0361  0.0918  0.1771
17570TIP3    H174125   4.059   0.182   0.604 -0.5343 -0.6176 -0.7843
17570TIP3    H274126   4.142   0.116   0.496  0.6285 -1.1965  0.4377
17571TIP3   OH274127   2.283   0.993  14.548 -0.1369 -0.1771  0.3225
17571TIP3    H174128   2.359   1.036  14.590  0.4419 -1.3258  0.4916
17571TIP3    H274129   2.245   1.061  14.493  1.7822  0.1096 -0.7703
17572TIP3   OH274130   1.105   1.652  14.026  0.1077  0.3377  0.1449
17572TIP3    H174131   1.194   1.642  13.991 -0.0640 -1.0773  0.0458
17572TIP3    H274132   1.073   1.562  14.036 -1.6024  0.8311 -0.5311
17573TIP3   OH274133   0.762   4.349   1.528  0.5190  0.8285 -0.1317
17573TIP3    H174134   0.718   4.430   1.556 -0.6137  0.4788 -0.8404
17573TIP3    H274135   0.855   4.368   1.538  0.3313  2.6193 -1.3379
17574TIP3   OH274136   2.166   3.887   5.338 -0.0353  0.4956 -0.1498
17574TIP3    H174137   2.156   3.801   5.380 -2.4014  0.1095 -1.3417
17574TIP3    H274138   2.216   3.869   5.258  3.4982  1.0597  1.7309
17575TIP3   OH274139   5.199   4.691  16.985  0.7296  0.7279  0.2118
17575TIP3    H174140   5.134   4.694  17.054 -0.9432  0.5963 -1.2880
17575TIP3    H274141   5.277   4.731  17.024 -0.9709  3.2131  1.3166
17576TIP3   OH274142   0.172   4.569   3.417 -0.1610 -0.6187 -0.2918
17576TIP3    H174143   0.241   4.626   3.383  2.1175 -3.1824 -0.2954
17576TIP3    H274144   0.092   4.620   3.407  1.6987  2.6355 -0.0686
17577TIP3   OH274145   6.591   4.065  11.521  0.7345  0.8348 -0.5251
17577TIP3    H174146   6.605   3.970  11.513  1.7481  1.0084 -0.8950
17577TIP3    H274147   6.602   4.099  11.432  0.3915  1.3126 -0.3920
17578TIP3   OH274148   3.312   0.521  16.875 -0.0286  0.6587 -0.3819
17578TIP3    H174149   3.284   0.500  16.964  2.0975  0.1453  0.2181
17578TIP3    H274150   3.364   0.601  16.884 -1.5267  1.8233 -1.5235
17579TIP3   OH274151   6.665   0.220   3.228  0.8958 -0.0173 -0.0122
17579TIP3    H174152   6.726   0.243   3.157  1.9120 -0.6919  0.6182
17579TIP3    H274153   6.596   0.170   3.185  0.9969  0.3963 -0.6741
17580TIP3   OH274154   1.302   3.128  16.999 -0.0211  0.1762 -0.0197
17580TIP3    H174155   1.261   3.091  16.921 -0.0607  0.6900 -0.2457
17580TIP3    H274156   1.383   3.078  17.010  0.0473  0.1857 -0.4659
17581TIP3   OH274157   4.108   6.246  14.424  0.1771  0.0570 -0.2588
17581TIP3    H174158   4.137   6.322  14.373  2.2579  0.0806  0.8404
17581TIP3    H274159   4.073   6.185  14.359  0.3884  1.1041 -1.3922
17582TIP3   OH274160   2.684   2.535  13.901  0.7523  0.3865  0.0042
17582TIP3    H174161   2.729   2.456  13.929 -0.3725 -0.2696  0.0266
17582TIP3    H274162   2.746   2.606  13.918  1.1027 -0.2732  1.6946
17583TIP3   OH274163   3.725   1.003   1.816 -0.3744  0.3494  0.4914
17583TIP3    H174164   3.727   0.957   1.900 -0.7999 -0.9912 -0.2072
17583TIP3    H274165   3.664   1.076   1.830 -1.6882 -0.7770  0.9149
17584TIP3   OH274166   3.237   1.488   5.803  0.3182 -0.0680 -0.1353
17584TIP3    H174167   3.207   1.438   5.727  0.8272 -0.2627 -0.2084
17584TIP3    H274168   3.175   1.465   5.872 -1.1601  1.3612 -0.9100
17585TIP3   OH274169   1.490   0.401   3.699 -0.4099  0.3372 -0.0301
17585TIP3    H174170   1.528   0.469   3.644 -0.6008 -0.1034 -0.7232
17585TIP3    H274171   1.514   0.319   3.656 -0.1539 -0.0380  0.8112
17586TIP3   OH274172   1.385   3.334  12.959  0.3076 -0.2944  0.4083
17586TIP3    H174173   1.375   3.249  12.915 -2.8922  1.1176 -2.0278
17586TIP3    H274174   1.476   3.359  12.943  0.6204 -2.1200 -1.0461
17587TIP3   OH274175   2.919   2.359  13.594  0.2296 -0.2898 -0.0196
17587TIP3    H174176   3.009   2.342  13.567  0.5963 -0.4539  1.2517
17587TIP3    H274177   2.921   2.447  13.631  0.0374 -0.5950  0.7332
17588TIP3   OH274178   4.785   6.630  13.812 -0.6346 -0.5753  0.0305
17588TIP3    H174179   4.790   6.724  13.793 -0.2061 -0.8576 -1.2965
17588TIP3    H274180   4.872   6.596  13.789 -1.0263 -1.4293 -0.2199
17589TIP3   OH274181   2.717   5.069   6.457 -0.6537  0.0066  0.1974
17589TIP3    H174182   2.787   5.038   6.515  0.9036 -0.8937 -2.0304
17589TIP3    H274183   2.666   4.990   6.438 -1.7059  0.4693  0.9814
17590TIP3   OH274184   4.977   2.031   0.115  0.4773 -0.3007 -0.1441
17590TIP3    H174185   5.054   2.031   0.059  1.2513  1.5188  0.8300
17590TIP3    H274186   4.954   2.123   0.125 -1.2974 -0.7555  0.3041
17591TIP3   OH274187   5.772   1.177   0.979  0.0077 -0.0765 -0.2521
17591TIP3    H174188   5.859   1.210   0.957 -0.8289  3.5357  1.1429
17591TIP3    H274189   5.713   1.249   0.956 -2.0088 -0.3295  3.4325
17592TIP3   OH274190   6.659   2.133  15.559  0.1536 -0.0118 -0.0806
17592TIP3    H174191   6.734   2.114  15.502  1.8207  2.8296  0.9612
17592TIP3    H274192   6.600   2.185  15.504  0.7044  0.8422  0.1243
17593TIP3   OH274193   1.374   4.658  15.455 -0.1685  0.0671  0.0167
17593TIP3    H174194   1.346   4.747  15.437 -2.8118 -0.7127 -0.1023
17593TIP3    H274195   1.368   4.649  15.550 -0.7627 -0.2385 -0.0478
17594TIP3   OH274196   1.238   5.806   1.532 -0.2713 -0.0649 -0.0456
17594TIP3    H174197   1.304   5.832   1.596 -0.7677 -1.0893  0.9027
17594TIP3    H274198   1.163   5.863   1.550  0.0312  0.5238 -0.5789
17595TIP3   OH274199   6.079   2.523  12.488  0.1220  0.4421  0.2552
17595TIP3    H174200   6.053   2.598  12.435  1.2262  0.0842 -0.8162
17595TIP3    H274201   5.999   2.499  12.535 -0.6065  1.4123 -0.4510
17596TIP3   OH274202   4.216   2.421   2.765  0.0358 -0.3330 -0.4688
17596TIP3    H174203   4.238   2.503   2.720  0.0233  0.9247  1.6782
17596TIP3    H274204   4.276   2.356   2.728  1.8035  1.2165 -0.4614
17597TIP3   OH274205   5.222   1.973  16.058  0.3705 -0.0333 -0.1194
17597TIP3    H174206   5.285   2.025  16.009  2.4799 -0.1735  2.2070
17597TIP3    H274207   5.197   2.029  16.132  0.0111 -1.0478  0.5521
17598TIP3   OH274208   0.483   1.092  12.952 -0.4750  0.3537  0.2048
17598TIP3    H174209   0.401   1.118  12.995 -0.2220 -1.6728  2.0653
17598TIP3    H274210   0.459   1.085  12.859 -2.8664 -1.6196  0.8561
17599TIP3   OH274211   4.111   0.739  10.994 -0.1668 -0.4661 -0.0682
17599TIP3    H174212   4.016   0.738  10.983 -0.1401 -1.3327 -0.2911
17599TIP3    H274213   4.134   0.832  10.999 -1.2686 -0.2417  2.1844
17600TIP3   OH274214   6.191   3.124   2.470 -0.2193 -0.0762  0.7263
17600TIP3    H174215   6.173   3.050   2.528  0.2724  0.9026  2.1837
17600TIP3    H274216   6.281   3.148   2.489 -0.9507  2.1040  1.7338
17601TIP3   OH274217   0.101   1.176   5.423  0.0941 -0.0099 -0.7393
17601TIP3    H174218   0.036   1.243   5.398 -0.8393  0.1858  1.8861
17601TIP3    H274219   0.050   1.096   5.432  0.1918  0.0822  1.0598
17602TIP3   OH274220   3.342   2.213  15.052 -0.0105 -0.2462  0.2856
17602TIP3    H174221   3.315   2.213  14.960 -0.0196 -0.4139  0.2880
17602TIP3    H274222   3.290   2.283  15.092  0.7480  0.5298 -0.0579
17603TIP3   OH274223   2.487   2.421  12.646 -0.3694 -0.4966 -0.1490
17603TIP3    H174224   2.530   2.500  12.613 -1.7532 -0.0509 -0.9537
17603TIP3    H274225   2.394   2.436  12.633 -0.8469 -1.3179  1.8089
17604TIP3   OH274226   3.861   0.841   6.503 -0.0439 -0.0704 -0.0977
17604TIP3    H174227   3.819   0.758   6.527  0.0784  0.0461  0.5332
17604TIP3    H274228   3.788   0.903   6.496 -0.1052 -0.1615 -0.2775
17605TIP3   OH274229   4.210   2.345   0.304  0.4176  0.2727 -0.0721
17605TIP3    H174230   4.274   2.277   0.326  0.4031 -0.1466 -1.2549
17605TIP3    H274231   4.258   2.427   0.315  0.3795  0.1053  1.5607
17606TIP3   OH274232   5.233   6.548  12.106  0.4340 -0.3318 -0.0363
17606TIP3    H174233   5.244   6.610  12.178  2.0827 -0.8282  0.1679
17606TIP3    H274234   5.190   6.599  12.037  2.2957  1.2412 -0.1057
17607TIP3   OH274235   0.947   1.182   3.795  0.2576 -0.4717 -0.6994
17607TIP3    H174236   0.946   1.232   3.876 -1.3290 -0.4092 -0.7242
17607TIP3    H274237   0.855   1.168   3.774  0.6158 -3.6490 -0.5600
17608TIP3   OH274238   1.051   0.441   1.103  0.6991 -0.0174  0.3298
17608TIP3    H174239   0.982   0.486   1.152  0.7025 -0.4130  0.7015
17608TIP3    H274240   1.112   0.511   1.080  0.3060  0.2926  0.2229
17609TIP3   OH274241   2.080   3.288   0.160  0.4088  0.3356  0.2026
17609TIP3    H174242   2.095   3.213   0.217  0.4868  1.3087  1.5062
17609TIP3    H274243   1.986   3.305   0.168  0.8504  2.1963  2.3365
17610TIP3   OH274244   2.479   3.094   1.672  0.1195 -0.1559 -0.1253
17610TIP3    H174245   2.518   3.031   1.610  1.1592  1.9157 -1.6887
17610TIP3    H274246   2.390   3.062   1.685  0.3869 -1.5603 -1.4297
17611TIP3   OH274247   2.110   2.094   3.173  0.0265  0.1548  0.6620
17611TIP3    H174248   2.031   2.092   3.228 -1.1921  0.5865 -0.9826
17611TIP3    H274249   2.080   2.063   3.088  1.5902  0.6234 -0.0857
17612TIP3   OH274250   1.570   3.035   0.600 -0.0314 -0.0586  0.3111
17612TIP3    H174251   1.544   3.088   0.525 -0.7837 -2.4716 -1.2750
17612TIP3    H274252   1.555   3.090   0.676 -0.9226  1.8908 -1.2030
17613TIP3   OH274253   4.475   0.392  16.954 -0.1487  0.1124  0.0317
17613TIP3    H174254   4.434   0.331  16.892  0.0057  1.8638 -1.8816
17613TIP3    H274255   4.568   0.374  16.947  0.1072  1.9243 -2.1744
17614TIP3   OH274256   3.113   1.728  13.556  1.0740 -0.0875  0.3428
17614TIP3    H174257   3.142   1.805  13.606  0.6772  1.0327 -1.0960
17614TIP3    H274258   3.023   1.713  13.585  0.5790  1.0265 -0.5366
17615TIP3   OH274259   4.869   1.235   2.032 -0.8020 -0.4794 -0.5826
17615TIP3    H174260   4.927   1.226   1.956  0.6158 -0.9740  0.5001
17615TIP3    H274261   4.888   1.157   2.085  0.6515  1.3595  1.8208
17616TIP3   OH274262   0.420   5.075   5.884 -0.0296  0.3317 -0.0480
17616TIP3    H174263   0.445   5.056   5.975  2.7245  1.0032 -0.5860
17616TIP3    H274264   0.471   5.152   5.860  1.5185 -1.4023 -2.9817
17617TIP3   OH274265   2.228   5.136   0.341 -0.1431  0.3836 -0.3278
17617TIP3    H174266   2.189   5.129   0.254 -0.9411  1.4366 -0.0729
17617TIP3    H274267   2.197   5.220   0.375  2.3388  1.2763 -0.0740
17618TIP3   OH274268   2.066   3.278   4.413 -0.1318 -0.2767  0.0854
17618TIP3    H174269   2.099   3.248   4.498  0.7977  2.6644  0.9023
17618TIP3    H274270   2.075   3.373   4.417  0.4326 -0.0447 -3.5359
17619TIP3   OH274271   3.007   5.527   1.674 -0.1281 -0.0564  0.7073
17619TIP3    H174272   3.061   5.575   1.736 -0.6227  2.2373 -0.5392
17619TIP3    H274273   2.923   5.515   1.718 -0.1127  0.5713  0.9134
17620TIP3   OH274274   2.983   2.761   0.806 -0.0725  0.1754  0.4423
17620TIP3    H174275   3.028   2.834   0.762 -0.3728  0.1763  0.1368
17620TIP3    H274276   3.038   2.685   0.788 -1.5894 -0.3942 -2.3348
17621TIP3   OH274277   6.191   3.289   6.571 -0.0951  0.1153  0.2559
17621TIP3    H174278   6.147   3.372   6.588 -0.2133  0.4547 -1.5212
17621TIP3    H274279   6.269   3.314   6.521  0.0464 -0.8080  0.0091
17622TIP3   OH274280   0.003   5.306   5.754 -0.1969 -0.1827  0.3193
17622TIP3    H174281  -0.033   5.218   5.766 -1.1408  0.2532  0.7842
17622TIP3    H274282  -0.028   5.356   5.830  0.3684  0.5381  0.0923
17623TIP3   OH274283   5.625   2.812   6.153 -0.2725 -0.8627  0.3198
17623TIP3    H174284   5.586   2.768   6.229  0.3130 -1.1610  0.4575
17623TIP3    H274285   5.608   2.905   6.168  1.3202 -0.7560  1.7142
17624TIP3   OH274286   2.899   4.613   3.452  0.2312  0.3587  0.3770
17624TIP3    H174287   2.945   4.624   3.369  1.5301 -0.9626  0.8775
17624TIP3    H274288   2.808   4.595   3.427  1.2370 -3.8250 -1.0447
17625TIP3   OH274289   4.216   3.672  16.070 -0.3073 -0.6859  0.3665
17625TIP3    H174290   4.131   3.707  16.044 -0.0858 -0.4506 -0.0773
17625TIP3    H274291   4.273   3.691  15.995 -0.0126 -1.3918  0.4046
17626TIP3   OH274292   6.750   6.700  12.976  0.0664  0.4810  0.2626
17626TIP3    H174293   6.775   6.757  12.904 -0.2351 -1.5484 -1.5533
17626TIP3    H274294   6.655   6.693  12.970  0.0868 -0.1111  0.5453
17627TIP3   OH274295   3.743   4.430  14.119 -0.0003  0.2082 -0.1938
17627TIP3    H174296   3.650   4.448  14.133  0.2146  0.0595  1.6503
17627TIP3    H274297   3.769   4.493  14.052 -1.2734  0.7152 -0.2545
17628TIP3   OH274298   6.223   2.756   1.731 -0.3501 -0.4156  0.3722
17628TIP3    H174299   6.197   2.729   1.643 -0.3947  2.8605 -0.7464
17628TIP3    H274300   6.165   2.829   1.752  1.8969  1.1476  1.6279
17629TIP3   OH274301   0.317   4.990  12.151 -0.4441  0.2252  0.6823
17629TIP3    H174302   0.255   5.062  12.142  0.6506  1.0243 -0.9701
17629TIP3    H274303   0.274   4.915  12.110 -1.6126 -0.1434  2.4613
17630TIP3   OH274304   0.031   4.442   3.224 -0.1983  0.0428  0.1286
17630TIP3    H174305  -0.009   4.360   3.255  0.1638 -0.6609 -1.1799
17630TIP3    H274306   0.102   4.459   3.286 -0.6430 -0.3160  0.7484
17631TIP3   OH274307   4.261   4.832   3.519  0.5639 -0.0347  0.1620
17631TIP3    H174308   4.333   4.888   3.490  0.3527 -0.1548 -0.6104
17631TIP3    H274309   4.266   4.834   3.614  0.8059  0.9738  0.1322
17632TIP3   OH274310   6.674   0.628  10.692 -0.5288  0.3081 -0.0029
17632TIP3    H174311   6.724   0.622  10.773 -1.1077 -0.2118  0.3182
17632TIP3    H274312   6.623   0.547  10.688  0.8026 -0.5250 -1.7684
17633TIP3   OH274313   5.302   4.362  16.511 -0.1337 -0.7247  0.2562
17633TIP3    H174314   5.208   4.381  16.518  0.1944  0.4204  2.5263
17633TIP3    H274315   5.310   4.271  16.539 -0.3727 -0.1518  2.3204
17634TIP3   OH274316   0.363   6.219   0.748 -0.3696  0.6349  0.1419
17634TIP3    H174317   0.433   6.252   0.805 -0.3603  0.0748  0.4576
17634TIP3    H274318   0.283   6.253   0.787 -0.4794 -0.8565  1.2999
17635TIP3   OH274319   6.227   0.130  11.173  1.0515 -0.5267  0.4232
17635TIP3    H174320   6.199   0.221  11.181 -1.1815 -1.2553  1.8425
17635TIP3    H274321   6.192   0.087  11.251  4.0934 -2.1762  1.0389
17636TIP3   OH274322   2.277   3.578  14.802 -0.1788  0.2513  0.3212
17636TIP3    H174323   2.293   3.484  14.792  1.0747  0.0136  3.3338
17636TIP3    H274324   2.227   3.585  14.883  2.5115  2.2639  2.0008
17637TIP3   OH274325   6.074   2.539   2.324 -0.3806  0.2573 -0.3003
17637TIP3    H174326   6.081   2.630   2.353  2.1434 -0.8804  3.4621
17637TIP3    H274327   6.152   2.525   2.271  0.0985 -0.0306  0.4519
17638TIP3   OH274328   5.722   6.287  11.512  0.2604 -0.3807 -0.6284
17638TIP3    H174329   5.712   6.305  11.419 -0.2464 -0.0671 -0.5186
17638TIP3    H274330   5.697   6.369  11.555 -0.5765 -0.8564 -0.1820
17639TIP3   OH274331   6.441   3.351   4.453  0.4491 -0.7235  0.0816
17639TIP3    H174332   6.505   3.282   4.435  0.0040 -0.5383 -2.6602
17639TIP3    H274333   6.467   3.423   4.395 -1.1989  0.0102  0.1996
17640TIP3   OH274334   6.180   5.838  11.710  0.1786  0.5710  0.3240
17640TIP3    H174335   6.158   5.805  11.623  1.9218 -0.5430  0.2557
17640TIP3    H274336   6.272   5.865  11.703 -0.4203  3.1104  1.1013
17641TIP3   OH274337   6.095   1.674  12.245  0.6776  0.0405 -0.1503
17641TIP3    H174338   6.009   1.698  12.281 -0.0053  1.6991 -2.6528
17641TIP3    H274339   6.152   1.746  12.270  1.1690 -0.6752  0.8306
17642TIP3   OH274340   4.595   4.002   2.008  0.5813 -0.0345 -0.2904
17642TIP3    H174341   4.539   4.071   2.043  0.1181 -0.9783  0.8941
17642TIP3    H274342   4.592   3.933   2.074  0.4623 -1.4894 -1.7672
17643TIP3   OH274343   0.981   6.434  16.390 -0.2520 -0.0767  0.2309
17643TIP3    H174344   0.940   6.358  16.348 -0.4746  0.0236  0.2672
17643TIP3    H274345   0.909   6.497  16.401  0.2846  0.9122 -1.5455
17644TIP3   OH274346   4.329   3.981   1.796 -0.1849 -0.4349 -0.4698
17644TIP3    H174347   4.317   3.890   1.769 -1.6834 -0.4398  0.0853
17644TIP3    H274348   4.423   3.995   1.793  0.2451 -2.5054  1.0483
17645TIP3   OH274349   1.474   5.680   1.172 -0.4738 -0.0045  0.0397
17645TIP3    H174350   1.536   5.673   1.245 -0.7194 -2.4760  0.0943
17645TIP3    H274351   1.390   5.654   1.209 -1.1272  1.1189 -0.5843
17646TIP3   OH274352   1.875   2.935  13.032  0.8333  0.2979  0.4962
17646TIP3    H174353   1.943   2.985  13.078 -0.8853  0.5992  2.8802
17646TIP3    H274354   1.793   2.979  13.056 -0.3178 -0.5885 -1.5802
17647TIP3   OH274355   6.283   6.479   0.874 -0.0269 -0.1149  0.2458
17647TIP3    H174356   6.342   6.448   0.942 -1.2557  0.6227  1.7009
17647TIP3    H274357   6.245   6.400   0.837  1.7152 -0.6022 -0.6516
17648TIP3   OH274358   2.840   2.516  14.856 -0.2239 -0.4564  0.2203
17648TIP3    H174359   2.753   2.539  14.822  0.1503 -1.8263 -1.8979
17648TIP3    H274360   2.894   2.593  14.838 -0.8026  0.0795  0.7575
17649TIP3   OH274361   5.334   1.271  11.192 -0.0624 -0.1044 -0.3098
17649TIP3    H174362   5.242   1.280  11.216 -0.0830 -1.3683  0.1526
17649TIP3    H274363   5.342   1.180  11.164  1.4574 -0.5582  1.4666
17650TIP3   OH274364   4.991   6.454  16.176 -0.2058  0.1565  0.0041
17650TIP3    H174365   5.020   6.463  16.267  0.3031 -0.6552 -0.0764
17650TIP3    H274366   5.033   6.375  16.144 -0.1679  0.5726 -1.0311
17651TIP3   OH274367   1.619   1.083   4.387 -0.4176 -0.0200 -0.7497
17651TIP3    H174368   1.668   1.162   4.367 -1.0767 -0.2612 -3.8003
17651TIP3    H274369   1.554   1.110   4.452 -0.4568  1.9016 -1.5393
17652TIP3   OH274370   4.852   6.467   4.648  0.2740 -0.2392  0.1191
17652TIP3    H174371   4.941   6.452   4.680  0.4655  1.6584  0.5771
17652TIP3    H274372   4.834   6.392   4.592  1.6580 -1.3287  1.0682
17653TIP3   OH274373   0.466   2.357   2.167  0.5020 -0.0208 -0.6272
17653TIP3    H174374   0.487   2.270   2.199  0.2043 -0.0358 -0.4730
17653TIP3    H274375   0.492   2.356   2.075  3.5970  0.7730  0.1343
17654TIP3   OH274376   1.785   4.553   0.740  0.4341 -0.1172 -0.4259
17654TIP3    H174377   1.834   4.496   0.798 -0.3260  1.3543  1.7689
17654TIP3    H274378   1.843   4.566   0.664  1.2807 -2.3861 -0.2319
17655TIP3   OH274379   3.445   1.072   3.809  0.0789 -0.0685 -0.1529
17655TIP3    H174380   3.473   1.123   3.733 -2.4940 -1.8604 -2.5068
17655TIP3    H274381   3.349   1.071   3.803 -0.1580 -1.3061  2.4704
17656TIP3   OH274382   2.646   4.645   4.317  0.5858 -0.1823 -0.2827
17656TIP3    H174383   2.554   4.641   4.343 -0.3403 -1.4643 -3.3469
17656TIP3    H274384   2.694   4.605   4.390 -1.3363 -0.2469  1.0054
17657TIP3   OH274385   5.526   1.312   1.325  0.6971  0.6193  0.1017
17657TIP3    H174386   5.523   1.327   1.230 -2.2994 -0.7330 -0.1355
17657TIP3    H274387   5.435   1.296   1.349  1.2754  1.6000  3.3735
17658TIP3   OH274388   4.696   3.211  12.017 -0.5500 -0.8187  0.1226
17658TIP3    H174389   4.690   3.302  12.048  0.7377 -0.2493 -1.2012
17658TIP3    H274390   4.764   3.172  12.070 -0.8365 -0.9079  0.4289
17659TIP3   OH274391   4.937   5.416  12.110 -0.3571  0.4564  0.0059
17659TIP3    H174392   4.998   5.364  12.057 -0.3416  0.0854  0.3886
17659TIP3    H274393   4.914   5.490  12.053  0.9154  0.9401  0.0680
17660TIP3   OH274394   1.666   4.053   3.661  0.1230  0.0526 -0.0183
17660TIP3    H174395   1.754   4.028   3.689 -0.3472 -1.0859  0.5064
17660TIP3    H274396   1.615   3.972   3.664 -1.1477  0.8307  0.4259
17661TIP3   OH274397   4.187   3.446  13.729  0.6676 -0.1716 -0.3226
17661TIP3    H174398   4.224   3.365  13.763 -1.6853 -1.6435 -1.0092
17661TIP3    H274399   4.183   3.434  13.634 -0.6844  0.2442 -0.3503
17662TIP3   OH274400   1.675   2.428   3.048 -0.1084 -0.4856 -0.3914
17662TIP3    H174401   1.752   2.371   3.049 -0.5666 -1.1149  0.3980
17662TIP3    H274402   1.705   2.510   3.089  0.0291 -0.8808  0.3062
17663TIP3   OH274403   3.422   6.641  14.581 -0.3186  0.1525 -0.1311
17663TIP3    H174404   3.376   6.675  14.504  1.2144 -1.8365 -2.0482
17663TIP3    H274405   3.427   6.546  14.567 -0.0692 -0.3080  2.5125
17664TIP3   OH274406   0.905   5.751   5.726  0.4274 -0.9296 -0.8804
17664TIP3    H174407   0.998   5.735   5.709  0.4689 -1.3203 -0.2895
17664TIP3    H274408   0.884   5.696   5.801  0.3253  0.9756  0.5661
17665TIP3   OH274409   6.147   1.353  11.078 -0.3653 -0.7276 -0.6931
17665TIP3    H174410   6.055   1.332  11.097 -0.5584  1.6265  1.4851
17665TIP3    H274411   6.195   1.273  11.100 -1.6801 -1.3623  0.0036
17666TIP3   OH274412   0.738   0.069  12.226  0.0885  0.7431  0.5402
17666TIP3    H174413   0.729   0.012  12.150 -1.5503  1.2463  0.3168
17666TIP3    H274414   0.672   0.037  12.288  0.1797  1.4566  1.0189
17667TIP3   OH274415   1.179   6.048  15.620 -0.6607  0.0009  0.0959
17667TIP3    H174416   1.188   6.059  15.714 -2.3083 -1.6672  0.5187
17667TIP3    H274417   1.114   6.113  15.594 -1.1430 -0.3641  0.3609
17668TIP3   OH274418   4.962   2.356   0.638  0.2370  0.2562  0.2593
17668TIP3    H174419   5.028   2.313   0.692 -0.6640 -1.9094 -0.2580
17668TIP3    H274420   4.888   2.295   0.639  0.2660 -0.0457 -3.6193
17669TIP3   OH274421   1.169   0.104  11.596 -0.4914  0.2994 -0.7442
17669TIP3    H174422   1.126   0.186  11.573 -0.4070  0.6957  0.4467
17669TIP3    H274423   1.100   0.050  11.634 -0.2657  0.3755 -0.2057
17670TIP3   OH274424   5.737   6.073  15.491  0.1138  0.7984  0.2788
17670TIP3    H174425   5.663   6.127  15.462 -1.8988 -1.4406  0.8444
17670TIP3    H274426   5.703   5.984  15.487  2.4814 -0.2351  1.6262
17671TIP3   OH274427   1.309   4.821   1.072  0.6775  0.1235 -0.1524
17671TIP3    H174428   1.226   4.851   1.036 -0.0743 -1.0347  0.5269
17671TIP3    H274429   1.298   4.726   1.081  2.0927 -0.0536 -0.0922
17672TIP3   OH274430   2.623   6.065  15.608  0.3820  0.3925 -0.1101
17672TIP3    H174431   2.623   6.063  15.512 -1.0179 -2.6581 -0.1611
17672TIP3    H274432   2.547   6.013  15.633  1.0777  0.5705  2.6884
17673TIP3   OH274433   1.978   0.369   4.000  0.5185 -0.1924 -0.0986
17673TIP3    H174434   1.895   0.408   3.971 -0.5522 -0.4380  2.3714
17673TIP3    H274435   2.006   0.424   4.073  1.3840 -1.4175  0.5127
17674TIP3   OH274436   1.567   2.187   4.945  0.6128 -0.0148  0.3969
17674TIP3    H174437   1.485   2.137   4.943  0.9702 -0.6025 -0.5295
17674TIP3    H274438   1.583   2.204   5.037 -0.0058 -0.8333  0.6674
17675TIP3   OH274439   3.870   4.947   3.464  0.2503 -0.0636 -0.0463
17675TIP3    H174440   3.806   4.902   3.408 -0.0272  1.6940 -1.2464
17675TIP3    H274441   3.935   4.881   3.485 -0.8343 -1.3556 -0.5795
17676TIP3   OH274442   5.090   1.625  11.571  0.1776 -0.0576  0.5478
17676TIP3    H174443   5.119   1.693  11.632  0.9856 -0.2891  0.4322
17676TIP3    H274444   5.157   1.625  11.502 -1.6266  1.4705 -1.3477
17677TIP3   OH274445   0.539   1.263  12.698 -0.0612 -0.4810  0.3978
17677TIP3    H174446   0.481   1.339  12.696 -2.9720 -2.5199  1.3309
17677TIP3    H274447   0.620   1.296  12.738 -1.7369  1.8336  2.2000
17678TIP3   OH274448   2.862   0.173   6.545 -0.2601  0.4165 -0.4575
17678TIP3    H174449   2.911   0.167   6.627  0.0726  0.7029 -0.6317
17678TIP3    H274450   2.797   0.103   6.550 -0.4807  0.6689  0.2078
17679TIP3   OH274451   2.283   4.606  13.047  0.1090 -0.4294  0.5960
17679TIP3    H174452   2.253   4.545  12.980 -2.3235 -0.9830  2.0746
17679TIP3    H274453   2.378   4.595  13.049  0.1922 -0.8662 -2.2338
17680TIP3   OH274454   2.656   5.355  14.654  0.6865  0.3441 -0.2886
17680TIP3    H174455   2.683   5.361  14.746 -1.2558  0.8543  0.2931
17680TIP3    H274456   2.602   5.277  14.650  0.5777  0.4475 -0.9534
17681TIP3   OH274457   6.184   5.975  17.126  0.1755  0.1312 -0.3070
17681TIP3    H174458   6.103   6.004  17.085  0.4445  0.2714 -0.7413
17681TIP3    H274459   6.175   5.880  17.134 -0.4258  0.2398  0.5079
17682TIP3   OH274460   4.029   3.086  12.522  0.2722 -0.1520 -0.4559
17682TIP3    H174461   4.069   3.111  12.605 -0.7755  0.5197 -0.1307
17682TIP3    H274462   3.935   3.090  12.538  0.0556 -0.8197 -1.4441
17683TIP3   OH274463   3.509   4.354   3.912  0.1177 -0.4254  0.4701
17683TIP3    H174464   3.436   4.293   3.903  0.9205 -1.2757 -0.5520
17683TIP3    H274465   3.571   4.328   3.844  1.1639  0.5805  0.9932
17684TIP3   OH274466   0.454   6.472   0.292  0.2532  0.6609  0.2351
17684TIP3    H174467   0.440   6.566   0.305 -0.3801  0.4963  0.8648
17684TIP3    H274468   0.446   6.435   0.380 -0.2017 -0.0581 -0.0973
17685TIP3   OH274469   1.546   2.166   1.442  0.2178  0.2519  0.3545
17685TIP3    H174470   1.520   2.211   1.362 -1.1423 -1.2944 -0.1358
17685TIP3    H274471   1.531   2.230   1.512  0.2756  1.2196 -0.4939
17686TIP3   OH274472   1.599   1.865   3.852 -0.1755 -0.3202 -0.2789
17686TIP3    H174473   1.536   1.907   3.793 -1.0795 -1.2428  0.0028
17686TIP3    H274474   1.628   1.935   3.911 -1.2441  0.0327 -0.1604
17687TIP3   OH274475   4.380   4.654  14.666 -0.0855 -0.5450 -0.2420
17687TIP3    H174476   4.346   4.702  14.590 -0.0291 -1.0686 -0.6040
17687TIP3    H274477   4.380   4.562  14.638 -0.1669 -0.7528  0.4352
17688TIP3   OH274478   4.172   0.411  12.433 -0.4954  0.1130 -0.1943
17688TIP3    H174479   4.116   0.407  12.355 -1.9730 -3.4358  0.8856
17688TIP3    H274480   4.115   0.389  12.505  1.8985 -1.9689  1.2175
17689TIP3   OH274481   2.090   2.610  16.324 -0.7005  0.6268 -0.5874
17689TIP3    H174482   2.058   2.555  16.253 -0.0495  1.0446 -1.2233
17689TIP3    H274483   2.030   2.594  16.397 -0.1179 -1.4552 -0.5229
17690TIP3   OH274484   2.227   3.932  12.346  0.0373  0.2234  0.4660
17690TIP3    H174485   2.243   3.850  12.298 -0.9264 -0.6271  1.5181
17690TIP3    H274486   2.152   3.911  12.403 -0.6004  2.0223  0.3428
17691TIP3   OH274487   0.774   6.027  15.517 -0.3276  0.0997  0.8057
17691TIP3    H174488   0.692   5.977  15.515 -0.7064  0.7282 -0.2509
17691TIP3    H274489   0.818   5.997  15.596 -1.1376 -0.9528  0.8861
17692TIP3   OH274490   3.002   0.917   0.679  0.5548  0.0106  0.9054
17692TIP3    H174491   2.970   1.007   0.672 -0.3679 -0.3485  0.3446
17692TIP3    H274492   2.955   0.880   0.753 -1.8430 -1.0880 -1.0385
17693TIP3   OH274493   2.300   2.982   5.817 -0.3327  0.1407 -0.1356
17693TIP3    H174494   2.279   2.929   5.893  0.5430 -0.9149 -0.6000
17693TIP3    H274495   2.272   2.929   5.742  2.2556 -0.5907 -0.6988
17694TIP3   OH274496   4.587   3.866  12.224  0.1793 -0.5139  0.1390
17694TIP3    H174497   4.597   3.826  12.310 -0.4846  0.1527  0.5358
17694TIP3    H274498   4.521   3.813  12.180  2.6918 -2.7780 -1.1748
17695TIP3   OH274499   0.203   4.330   2.807 -0.3328 -0.3751  0.3261
17695TIP3    H174500   0.209   4.401   2.871  0.4546 -0.1047 -0.0321
17695TIP3    H274501   0.142   4.267   2.846  0.6684 -0.5587  1.6744
17696TIP3   OH274502   5.639   2.328  13.078 -0.4764 -0.3405 -0.3637
17696TIP3    H174503   5.614   2.378  13.000 -0.2603  0.6451  0.1748
17696TIP3    H274504   5.635   2.392  13.149  1.2866 -0.7195  0.1161
17697TIP3   OH274505   5.168   5.052   0.197 -0.3617 -0.2674  0.5619
17697TIP3    H174506   5.172   4.956   0.204  1.0991 -0.1427  2.2760
17697TIP3    H274507   5.151   5.081   0.287 -2.8063  1.0674 -0.2416
17698TIP3   OH274508   4.952   4.996  12.654 -0.6234 -0.2256 -0.0098
17698TIP3    H174509   4.881   4.935  12.635 -0.4026 -0.8962  1.2023
17698TIP3    H274510   4.985   4.968  12.739  0.5253  0.6139 -0.1576
17699TIP3   OH274511   2.199   1.809  11.492 -0.1126 -0.0782 -0.3281
17699TIP3    H174512   2.138   1.806  11.418 -2.1183 -0.3509  1.2568
17699TIP3    H274513   2.143   1.810  11.569  1.9020 -2.2704  1.2978
17700TIP3   OH274514   0.088   2.857  14.897  0.1558 -0.0765 -0.2850
17700TIP3    H174515   0.020   2.924  14.892  0.1604  0.1421  1.7273
17700TIP3    H274516   0.170   2.906  14.895  0.2452 -0.2302 -1.1229
17701TIP3   OH274517   3.712   2.547  15.213  0.6433 -0.3236  0.3166
17701TIP3    H174518   3.739   2.541  15.121 -1.5446 -0.3403 -0.3792
17701TIP3    H274519   3.640   2.484  15.220 -0.4593  1.0213  1.5504
17702TIP3   OH274520   0.914   2.998   3.687  0.1683  0.5517 -0.4675
17702TIP3    H174521   0.912   2.915   3.734 -0.6818 -0.4076 -2.0898
17702TIP3    H274522   1.001   3.001   3.647  0.8325  1.2937  0.9703
17703TIP3   OH274523   6.736   4.951   1.217 -0.2116 -0.7122 -0.4897
17703TIP3    H174524   6.798   4.883   1.245  3.0063  2.4119  0.8037
17703TIP3    H274525   6.730   5.010   1.292 -1.1585  1.5265 -2.2068
17704TIP3   OH274526   6.197   5.128   6.116  0.1936 -0.4555 -0.3994
17704TIP3    H174527   6.200   5.153   6.208 -1.1457  2.1718 -0.9704
17704TIP3    H274528   6.129   5.060   6.112 -0.0067 -0.3220  0.4893
17705TIP3   OH274529   4.364   3.115  15.958  0.5485 -0.2678 -0.2126
17705TIP3    H174530   4.275   3.080  15.960  0.6447 -0.5059 -0.1461
17705TIP3    H274531   4.353   3.208  15.977  0.2841 -0.2367 -0.5087
17706TIP3   OH274532   6.481   6.173  14.686 -0.8933 -0.3706 -0.2340
17706TIP3    H174533   6.454   6.243  14.746  1.8814  0.3987  0.2485
17706TIP3    H274534   6.539   6.216  14.623 -2.8547 -1.3787 -2.9190
17707TIP3   OH274535   6.064   6.389  12.909  0.1217 -0.1949 -0.2259
17707TIP3    H174536   6.054   6.314  12.849  1.1348  1.4226 -2.6052
17707TIP3    H274537   5.992   6.447  12.886 -1.2669 -0.7725  2.3137
17708TIP3   OH274538   3.824   6.290  14.359 -0.3442 -0.3482 -0.0376
17708TIP3    H174539   3.736   6.325  14.344 -0.3138 -0.1462  0.2695
17708TIP3    H274540   3.814   6.195  14.348  0.0510 -0.1206 -3.4212
17709TIP3   OH274541   1.275   5.728   1.932 -0.2825 -0.6799  0.1720
17709TIP3    H174542   1.248   5.807   1.979 -0.7989  0.1997 -1.5121
17709TIP3    H274543   1.195   5.697   1.888  0.5127 -0.4527 -1.5037
17710TIP3   OH274544   6.532   3.379   0.824 -0.2171  0.1501  0.3795
17710TIP3    H174545   6.567   3.345   0.742  0.9803 -1.2268  1.4101
17710TIP3    H274546   6.572   3.466   0.833 -0.6583  0.4714 -0.6616
17711TIP3   OH274547   4.369   1.327  16.445  0.1063  0.0194  0.4404
17711TIP3    H174548   4.439   1.356  16.387  0.4674 -0.1484  0.7857
17711TIP3    H274549   4.295   1.309  16.387 -0.9186  3.7293  0.3572
17712TIP3   OH274550   5.715   4.043  14.976 -0.2516  0.2174  0.0534
17712TIP3    H174551   5.768   4.070  15.051 -1.3697  1.3957  0.4566
17712TIP3    H274552   5.654   3.978  15.011 -0.8797  0.8830  0.2387
17713TIP3   OH274553   1.136   0.708   6.638 -0.3657  0.4505 -0.3412
17713TIP3    H174554   1.177   0.674   6.717  0.5107  0.1270 -0.9171
17713TIP3    H274555   1.068   0.768   6.670 -0.6914 -0.4118  0.6583
17714TIP3   OH274556   0.848   4.968  16.060 -0.1741 -0.3702 -0.4270
17714TIP3    H174557   0.839   4.953  16.154 -0.7206 -1.1011 -0.5846
17714TIP3    H274558   0.811   4.889  16.019  1.7524 -0.9027 -1.2389
17715TIP3   OH274559   4.139   6.316   5.789 -0.2669 -0.1995 -0.6320
17715TIP3    H174560   4.190   6.350   5.716  0.9831  1.2330  0.8212
17715TIP3    H274561   4.056   6.365   5.786 -0.8507 -1.2172 -1.9225
17716TIP3   OH274562   0.755   3.686   6.646 -0.1505 -0.3227  0.1626
17716TIP3    H174563   0.729   3.648   6.730  1.5470  1.3524  1.5321
17716TIP3    H274564   0.804   3.616   6.602 -0.5847 -1.0455  0.8139
17717TIP3   OH274565   0.335   6.089   5.677  0.5829 -0.3184  0.5165
17717TIP3    H174566   0.295   6.003   5.686 -0.2816  0.1142  0.8691
17717TIP3    H274567   0.349   6.118   5.768  1.0921 -0.1782  0.3985
17718TIP3   OH274568   4.116   1.229  16.965 -0.8447  0.1349 -0.4317
17718TIP3    H174569   4.202   1.186  16.965  0.0366  1.7714  0.8529
17718TIP3    H274570   4.106   1.263  17.054 -2.5399  0.5756 -0.7504
17719TIP3   OH274571   1.693   6.607   2.607 -0.2682 -0.4287  0.0140
17719TIP3    H174572   1.631   6.555   2.556  0.9135 -1.9459  0.0670
17719TIP3    H274573   1.673   6.587   2.698 -1.1537  0.8453  0.1263
17720TIP3   OH274574   3.714   4.633   0.711 -0.5531  0.5604 -0.0882
17720TIP3    H174575   3.803   4.605   0.730 -0.4188 -2.0437 -3.7277
17720TIP3    H274576   3.668   4.624   0.795  2.3992  1.8130  1.8635
17721TIP3   OH274577   3.423   5.769  13.711 -0.4991 -0.5606 -0.0841
17721TIP3    H174578   3.372   5.765  13.792 -1.5323  1.4779 -0.5737
17721TIP3    H274579   3.509   5.802  13.737 -1.2417  1.3617  0.0576
17722TIP3   OH274580   5.312   5.090   4.883  0.1047  0.0409 -0.5684
17722TIP3    H174581   5.356   5.018   4.837  2.0988  0.2581  0.8368
17722TIP3    H274582   5.329   5.166   4.829  1.2963  0.0698 -0.1847
17723TIP3   OH274583   2.493   2.109   5.411 -0.2754 -0.4383 -0.3249
17723TIP3    H174584   2.522   2.025   5.446 -0.4983 -0.3716  0.0271
17723TIP3    H274585   2.569   2.143   5.363  0.3408 -0.1193  0.8447
17724TIP3   OH274586   0.582   5.833  12.879 -0.6142 -0.0476  0.1281
17724TIP3    H174587   0.592   5.912  12.931  0.2265 -0.9720  1.4242
17724TIP3    H274588   0.661   5.828  12.826 -0.3230 -0.3978  0.5909
17725TIP3   OH274589   2.928   4.345   2.725  0.3464  0.0822  0.0891
17725TIP3    H174590   2.872   4.273   2.697  0.3404  0.5763 -1.1976
17725TIP3    H274591   3.014   4.323   2.691  0.3064  0.7716 -0.4594
17726TIP3   OH274592   4.059   2.794   2.212  0.9667 -0.1314 -0.2540
17726TIP3    H174593   4.104   2.869   2.251  1.1651  0.8212 -2.2176
17726TIP3    H274594   4.036   2.822   2.124  1.1134 -2.4142 -1.0901
17727TIP3   OH274595   1.297   4.156  14.950 -0.4883  0.3264  0.0996
17727TIP3    H174596   1.237   4.213  14.997 -0.8934 -0.6336  0.7743
17727TIP3    H274597   1.284   4.070  14.989  1.5045  0.1296  0.4535
17728TIP3   OH274598   1.939   2.561  13.895 -0.5640 -0.3342  0.1580
17728TIP3    H174599   1.961   2.519  13.978 -2.4740 -0.2013  0.7983
17728TIP3    H274600   1.877   2.630  13.919  2.5004  3.0851 -0.8324
17729TIP3   OH274601   3.774   5.762  12.598  0.1604 -0.4096  0.2468
17729TIP3    H174602   3.844   5.708  12.634 -0.5211 -2.4886 -1.3625
17729TIP3    H274603   3.817   5.819  12.534  0.6415 -0.2439  0.7120
17730TIP3   OH274604   4.040   1.649   0.671 -0.5936 -0.0224 -0.3685
17730TIP3    H174605   4.124   1.625   0.710  0.3806  0.8480 -1.7974
17730TIP3    H274606   4.011   1.725   0.721 -0.6687 -0.4908  0.3046
17731TIP3   OH274607   2.803   6.578   1.033 -0.0302 -0.2737  0.0477
17731TIP3    H174608   2.797   6.560   1.127  1.0325  0.7304  0.3238
17731TIP3    H274609   2.717   6.612   1.010  0.4133  1.7379  1.1894
17732TIP3   OH274610   5.976   2.498  16.543 -0.4002  0.1937 -0.3039
17732TIP3    H174611   5.888   2.493  16.505 -0.2823  0.6194 -0.6472
17732TIP3    H274612   5.963   2.480  16.636 -0.5635 -1.8997 -0.6704
17733TIP3   OH274613   1.405   5.749  10.797 -0.1118 -0.2499 -0.0114
17733TIP3    H174614   1.436   5.794  10.719  3.5099  1.9737  2.4174
17733TIP3    H274615   1.453   5.666  10.798 -0.7695 -0.6474 -0.4873
17734TIP3   OH274616   5.443   3.062  11.924 -0.0716 -0.1281 -0.4543
17734TIP3    H174617   5.463   3.112  11.845 -1.5634 -0.1645 -0.8831
17734TIP3    H274618   5.527   3.052  11.968  0.3845  2.1724 -0.6953
17735TIP3   OH274619   2.513   2.912  10.651 -0.3329  0.2434 -0.7302
17735TIP3    H174620   2.503   2.841  10.714  2.5917  0.7253  0.4756
17735TIP3    H274621   2.558   2.872  10.577 -2.8177 -0.0850 -2.1507
17736TIP3   OH274622   2.603   4.933  11.764  0.4478  0.1091 -0.3881
17736TIP3    H174623   2.562   4.911  11.681 -0.7709 -0.4478  0.3351
17736TIP3    H274624   2.598   5.028  11.770 -3.0465 -0.0159  0.7500
17737TIP3   OH274625   3.017   4.163   1.123 -0.2076  0.2301 -0.2412
17737TIP3    H174626   2.978   4.195   1.204 -0.7700  1.4240 -0.9629
17737TIP3    H274627   2.943   4.136   1.069 -0.0121  1.6033 -1.2408
17738TIP3   OH274628   1.985   0.883  12.820 -0.1062  0.3269 -0.3657
17738TIP3    H174629   1.929   0.921  12.888  0.0385  0.8084 -0.5134
17738TIP3    H274630   2.073   0.888  12.856  0.2538  2.5130 -1.4071
17739TIP3   OH274631   5.243   3.604  15.165  0.4409 -0.0936 -0.2147
17739TIP3    H174632   5.283   3.687  15.141  0.1083 -0.2508 -1.3668
17739TIP3    H274633   5.152   3.612  15.137  0.6794 -1.2540 -1.4511
17740TIP3   OH274634   0.706   4.326  11.570 -0.3885  0.3717  1.2393
17740TIP3    H174635   0.718   4.287  11.657  1.4513 -0.1461  0.8051
17740TIP3    H274636   0.792   4.318  11.528 -1.1009  1.0640 -0.4561
17741TIP3   OH274637   0.596   1.223   1.671  0.0799  0.6134  0.0905
17741TIP3    H174638   0.650   1.297   1.642  0.0593  1.0665  1.1594
17741TIP3    H274639   0.520   1.264   1.712 -1.2252 -0.0149 -1.5953
17742TIP3   OH274640   6.315   5.324  14.342  0.6092  0.2801 -0.5286
17742TIP3    H174641   6.366   5.404  14.328  0.0587  0.7080 -0.1287
17742TIP3    H274642   6.251   5.348  14.409  2.6945 -1.4790  2.3679
17743TIP3   OH274643   1.504   5.086  14.259  0.6033  0.2148 -0.5253
17743TIP3    H174644   1.415   5.116  14.241  0.9009  1.1317 -0.4893
17743TIP3    H274645   1.543   5.155  14.313  0.9959 -0.6670  0.3671
17744TIP3   OH274646   1.279   4.943   5.247  0.4511  0.3882 -0.5995
17744TIP3    H174647   1.353   4.993   5.213 -0.2012  0.6355 -1.6873
17744TIP3    H274648   1.260   4.983   5.332  2.0953 -0.2370  0.1209
17745TIP3   OH274649   1.980   1.534  16.190 -0.7621 -0.0186  0.6746
17745TIP3    H174650   2.004   1.445  16.166 -1.6995 -0.0578 -0.1702
17745TIP3    H274651   1.885   1.538  16.177 -0.8142  0.9429  1.2277
17746TIP3   OH274652   2.840   0.255  12.528 -0.5815 -0.1179  0.3266
17746TIP3    H174653   2.872   0.170  12.499 -1.2494 -0.2935  0.0925
17746TIP3    H274654   2.919   0.308  12.540 -0.2727 -0.0206 -1.8494
17747TIP3   OH274655   5.216   2.164  12.901 -0.5621  0.3436 -0.4959
17747TIP3    H174656   5.272   2.144  12.976 -0.1344 -1.1096 -1.1494
17747TIP3    H274657   5.267   2.227  12.850  0.9103 -1.5069 -1.4608
17748TIP3   OH274658   4.060   3.461   5.471  0.0757 -0.8813  0.3946
17748TIP3    H174659   4.055   3.375   5.512  3.7401 -2.0435 -1.2448
17748TIP3    H274660   4.068   3.443   5.377  2.1127  1.1320  0.1074
17749TIP3   OH274661   3.396   1.952  16.460  0.6583  0.1963 -0.2755
17749TIP3    H174662   3.463   1.922  16.398 -1.6278 -0.8426 -2.4364
17749TIP3    H274663   3.318   1.966  16.406 -0.6890  2.1864  1.9690
17750TIP3   OH274664   5.326   2.354  15.335  0.2677 -0.4722 -0.2493
17750TIP3    H174665   5.264   2.311  15.395 -0.4754  0.7926 -0.0778
17750TIP3    H274666   5.376   2.412  15.392 -2.4636  3.0663 -1.1253
17751TIP3   OH274667   2.829   3.855   3.205  0.3088 -0.3304  0.3348
17751TIP3    H174668   2.839   3.877   3.113 -0.6737 -0.6367  0.1388
17751TIP3    H274669   2.876   3.923   3.252 -0.8554  0.9690 -0.3301
17752TIP3   OH274670   2.275   5.086   4.219  0.1502 -0.1148 -0.2627
17752TIP3    H174671   2.209   5.124   4.161 -0.7059 -1.9248 -0.5363
17752TIP3    H274672   2.322   5.023   4.163  2.5365  1.5039 -0.2409
17753TIP3   OH274673   1.418   4.130   2.517 -0.3408  0.5311  0.0065
17753TIP3    H174674   1.375   4.198   2.464 -0.7788  0.4398  0.2440
17753TIP3    H274675   1.370   4.129   2.599 -0.8519 -0.6186 -0.2864
17754TIP3   OH274676   2.397   5.114   0.918 -0.0203  0.3630 -0.3778
17754TIP3    H174677   2.397   5.135   1.012 -1.2354 -2.1092  0.2339
17754TIP3    H274678   2.308   5.134   0.889  0.1740  0.5236 -0.8626
17755TIP3   OH274679   6.119   4.084   2.133  0.2978 -0.2107 -0.0232
17755TIP3    H174680   6.145   4.002   2.091 -1.4440 -0.3474 -0.9333
17755TIP3    H274681   6.041   4.061   2.184  0.4696  0.6479  0.6450
17756TIP3   OH274682   5.773   0.165  13.032  0.4952 -0.1514 -0.4195
17756TIP3    H174683   5.735   0.233  12.976 -2.3529 -1.1395  0.1198
17756TIP3    H274684   5.768   0.201  13.121 -0.3462 -0.7146 -0.2167
17757TIP3   OH274685   1.777   0.408   3.145 -0.2161  0.1855 -0.1273
17757TIP3    H174686   1.868   0.389   3.169  0.3651  2.6384 -0.1896
17757TIP3    H274687   1.759   0.347   3.073  2.0002  0.8058 -1.3367
17758TIP3   OH274688   2.685   0.602   0.607  1.1225 -0.2515 -0.1551
17758TIP3    H174689   2.751   0.539   0.579  0.1146 -1.3888 -0.0879
17758TIP3    H274690   2.605   0.575   0.560  0.6706  1.0008 -0.1466
17759TIP3   OH274691   1.063   1.742  14.524  0.0923  0.3920 -0.1417
17759TIP3    H174692   1.122   1.716  14.453 -0.4190 -2.0020  0.2353
17759TIP3    H274693   1.102   1.704  14.603 -1.9701 -1.4292  0.0899
17760TIP3   OH274694   1.872   1.714   5.870  0.4134 -0.2967 -0.5936
17760TIP3    H174695   1.916   1.640   5.912  0.1117 -0.7701 -1.1061
17760TIP3    H274696   1.851   1.683   5.782 -2.5074 -0.7200  0.1808
17761TIP3   OH274697   4.049   3.784  13.918  0.0299 -0.2476 -0.1736
17761TIP3    H174698   4.078   3.750  13.834  0.1488 -0.0963 -0.1952
17761TIP3    H274699   4.123   3.836  13.950 -0.6395  1.1590 -0.7962
17762TIP3   OH274700   5.278   2.004  14.980  0.3075 -0.5242 -0.5393
17762TIP3    H174701   5.184   1.995  14.966  0.4960  0.2140 -2.7164
17762TIP3    H274702   5.288   2.013  15.075 -1.6056 -2.5166 -0.0661
17763TIP3   OH274703   4.467   1.421  11.750  0.2152  0.3417  0.1423
17763TIP3    H174704   4.533   1.458  11.808  0.4473  0.2325 -0.0526
17763TIP3    H274705   4.516   1.371  11.686  0.1406  2.0992 -1.3850
17764TIP3   OH274706   1.277   6.511   1.416 -0.2491 -0.3979  0.1061
17764TIP3    H174707   1.348   6.457   1.381  0.1081 -0.0939  0.3542
17764TIP3    H274708   1.270   6.585   1.356 -0.4706 -0.5126 -0.0114
17765TIP3   OH274709   0.209   6.504   5.571 -0.0488 -0.4846 -0.1279
17765TIP3    H174710   0.177   6.417   5.547 -3.0026  0.5911 -0.4731
17765TIP3    H274711   0.130   6.554   5.589  1.2104  3.2249 -3.5350
17766TIP3   OH274712   1.163   2.813  11.592 -0.8069  0.0726  0.1283
17766TIP3    H174713   1.173   2.765  11.510  2.6048 -0.6118  0.8148
17766TIP3    H274714   1.189   2.902  11.572  0.9322 -0.2987  0.5965
17767TIP3   OH274715   2.427   4.211  15.678 -0.1250 -1.2047  0.5158
17767TIP3    H174716   2.425   4.204  15.582  0.5626  0.1959  0.3671
17767TIP3    H274717   2.498   4.152  15.704  0.8418 -0.3338 -0.0220
17768TIP3   OH274718   4.964   1.351   5.611 -0.0483 -0.1904 -0.4256
17768TIP3    H174719   4.925   1.434   5.586  1.4791  0.3429 -1.1527
17768TIP3    H274720   5.048   1.349   5.566  0.5934 -1.4768  0.7317
17769TIP3   OH274721   1.231   0.533  14.522  0.1510  0.3958  0.6266
17769TIP3    H174722   1.189   0.556  14.605 -0.1499  0.8887  0.3460
17769TIP3    H274723   1.314   0.580  14.523 -0.5050  1.6149  0.0127
17770TIP3   OH274724   5.600   3.530   0.227 -0.2516 -0.3466  0.4132
17770TIP3    H174725   5.671   3.523   0.163 -0.1974 -2.6650  0.6501
17770TIP3    H274726   5.523   3.497   0.181 -0.6707 -0.0059  0.8740
17771TIP3   OH274727   0.273   3.002   1.127  0.0396 -0.3924  0.4012
17771TIP3    H174728   0.252   3.089   1.160 -1.2345  0.1351 -1.6504
17771TIP3    H274729   0.213   2.988   1.054  2.1934 -1.7576 -1.2521
17772TIP3   OH274730   5.184   6.665   0.192 -0.1930  0.3095  0.0882
17772TIP3    H174731   5.195   6.599   0.260 -3.3904 -1.2968 -0.7295
17772TIP3    H274732   5.163   6.746   0.239  2.7874  0.6228  1.0653
17773TIP3   OH274733   4.757   2.046   5.014 -0.1702  0.2911  0.1974
17773TIP3    H174734   4.833   2.083   5.057  0.9550  0.6547 -1.9675
17773TIP3    H274735   4.740   2.104   4.939 -2.2426 -0.0915  0.2890
17774TIP3   OH274736   2.973   5.281  15.305  0.0805 -0.2502  0.5406
17774TIP3    H174737   2.991   5.191  15.332  0.2831 -0.6531 -0.8493
17774TIP3    H274738   3.048   5.305  15.251 -0.8790  0.0476 -0.7112
17775TIP3   OH274739   3.070   3.158  13.244 -0.0052 -0.1313  0.1174
17775TIP3    H174740   3.145   3.101  13.227  0.9905  0.6313  1.7260
17775TIP3    H274741   2.996   3.113  13.203  1.3207 -0.8121 -1.6958
17776TIP3   OH274742   2.808   1.071   4.848 -0.0816  0.2375  0.4634
17776TIP3    H174743   2.893   1.076   4.893  0.2824 -0.7788 -0.0711
17776TIP3    H274744   2.828   1.027   4.766 -1.1405 -0.0047  0.3314
17777TIP3   OH274745   5.633   3.208  12.218  0.1716 -0.3409  0.5097
17777TIP3    H174746   5.677   3.218  12.303 -0.5231 -0.3972  0.8826
17777TIP3    H274747   5.591   3.292  12.203  0.0484 -0.4295  0.3604
17778TIP3   OH274748   4.553   2.566  15.318 -0.2018 -0.6085 -0.1894
17778TIP3    H174749   4.644   2.566  15.349  0.7335  0.5410 -2.6442
17778TIP3    H274750   4.533   2.474  15.301  1.2968 -0.7068 -1.6240
17779TIP3   OH274751   0.159   4.736  12.640 -0.0229  0.5382  0.4045
17779TIP3    H174752   0.196   4.703  12.558  0.3878 -0.5870  1.0169
17779TIP3    H274753   0.189   4.827  12.644  1.2776  0.1567  0.0457
17780TIP3   OH274754   1.517   4.180  10.346 -0.5504 -0.0099  0.1703
17780TIP3    H174755   1.475   4.263  10.321 -0.1779 -0.3801 -1.7924
17780TIP3    H274756   1.446   4.128  10.384 -1.0906  0.6818  0.1322
17781TIP3   OH274757   4.392   3.776  13.644 -0.0557  0.0455 -0.4001
17781TIP3    H174758   4.460   3.709  13.650  0.8785  0.9980  0.0286
17781TIP3    H274759   4.414   3.825  13.565 -0.0581  0.5491 -0.0927
17782TIP3   OH274760   3.030   5.638  15.395  0.5683 -0.0086  0.1146
17782TIP3    H174761   2.989   5.725  15.392  3.2291  1.5355  2.7212
17782TIP3    H274762   2.973   5.586  15.451 -0.1801  0.5723 -0.0901
17783TIP3   OH274763   4.510   5.276   1.998  0.5351 -0.2851  0.4582
17783TIP3    H174764   4.524   5.298   1.906  0.2202 -1.1475  0.1939
17783TIP3    H274765   4.420   5.243   2.001  0.0680  0.9756  1.3232
17784TIP3   OH274766   4.395   5.557   1.598  0.5878 -0.2256 -0.0776
17784TIP3    H174767   4.396   5.546   1.503  0.6818  0.5824 -0.1716
17784TIP3    H274768   4.302   5.570   1.619  0.7302  1.2108 -0.2571
17785TIP3   OH274769   0.989   4.597  15.884  0.3912  0.5185 -0.1015
17785TIP3    H174770   1.039   4.672  15.917 -0.9810  0.3879  2.5326
17785TIP3    H274771   0.899   4.629  15.878 -0.5335 -1.2180  2.6483
17786TIP3   OH274772   6.436   4.435  16.842 -0.1119  0.2791  0.6194
17786TIP3    H174773   6.351   4.390  16.841 -0.1263  0.2331  1.8527
17786TIP3    H274774   6.439   4.477  16.928  0.7652  0.9723  0.2613
17787TIP3   OH274775   4.806   2.096  13.432  0.0394 -0.0556 -0.1029
17787TIP3    H174776   4.796   2.087  13.527  0.2326  0.3043 -0.0471
17787TIP3    H274777   4.859   2.021  13.406 -1.3696 -1.0802 -0.1667
17788TIP3   OH274778   6.311   2.514  17.062  0.1661 -0.1976  0.0603
17788TIP3    H174779   6.278   2.562  17.138  0.4392  1.2873 -0.7297
17788TIP3    H274780   6.402   2.542  17.054 -0.5350  1.7846 -2.3387
17789TIP3   OH274781   1.390   4.526   3.009  0.4206  0.2520 -0.0142
17789TIP3    H174782   1.384   4.441   3.053  3.1372 -0.0645 -0.0834
17789TIP3    H274783   1.405   4.504   2.918  0.6472  0.8311 -0.1162
17790TIP3   OH274784   2.794   5.371   3.962  0.0737  0.1356 -0.4661
17790TIP3    H174785   2.768   5.338   3.877 -0.9931  0.4181 -0.2577
17790TIP3    H274786   2.742   5.322   4.025  0.1624  0.5899 -0.0283
17791TIP3   OH274787   3.097   4.554   5.938 -0.1516  0.2247 -0.1775
17791TIP3    H174788   3.165   4.572   6.002 -1.8101  0.3321  1.6417
17791TIP3    H274789   3.112   4.463   5.912 -0.8718 -0.6672  2.2700
17792TIP3   OH274790   6.030   5.325   6.394 -0.1529  0.2190 -0.0794
17792TIP3    H174791   6.077   5.243   6.403  0.1894  0.2887 -1.1276
17792TIP3    H274792   6.095   5.387   6.362 -0.6026  0.6898 -0.1062
17793TIP3   OH274793   5.710   2.941   1.543  0.3335 -0.5090 -0.0812
17793TIP3    H174794   5.770   2.881   1.588  1.0615 -0.4618 -0.9556
17793TIP3    H274795   5.657   2.978   1.613 -0.8395 -2.9144  0.4091
17794TIP3   OH274796   5.933   4.014   0.589 -0.0095  0.7186  0.6487
17794TIP3    H174797   5.865   4.026   0.656 -1.5650 -0.8612 -0.5404
17794TIP3    H274798   5.974   3.930   0.611  1.1487  1.3531  0.9789
17795TIP3   OH274799   0.088   5.568  16.713 -0.2004  0.1368  0.0481
17795TIP3    H174800   0.015   5.538  16.659  0.7236 -2.5920  0.1482
17795TIP3    H274801   0.163   5.567  16.654  0.0382  1.6073  0.2823
17796TIP3   OH274802   3.838   3.995  16.175  0.0161  0.5864 -0.3192
17796TIP3    H174803   3.744   3.999  16.193  0.1384 -0.4535  0.7104
17796TIP3    H274804   3.861   4.082  16.144 -0.9658  1.3953  1.1002
17797TIP3   OH274805   1.321   4.975   6.403 -0.0340  0.8944 -0.5859
17797TIP3    H174806   1.359   5.062   6.401  0.4253  0.7021 -0.4296
17797TIP3    H274807   1.313   4.950   6.310 -1.3106  1.5790 -0.6815
17798TIP3   OH274808   0.564   4.173  11.221 -0.1356 -0.1735  0.7319
17798TIP3    H174809   0.582   4.256  11.176 -0.8737  0.6126  1.8098
17798TIP3    H274810   0.468   4.168  11.223 -0.1068 -0.6161  1.4384
17799TIP3   OH274811   5.064   2.359   5.301 -0.2317  0.3463  0.1422
17799TIP3    H174812   5.127   2.376   5.370  0.4416 -0.7999 -0.1769
17799TIP3    H274813   5.065   2.439   5.247  0.5063  0.5566  0.4651
17800TIP3   OH274814   2.427   2.218   5.814 -0.8509  0.2929 -0.0379
17800TIP3    H174815   2.438   2.229   5.908  0.6312 -1.6968  0.0692
17800TIP3    H274816   2.516   2.219   5.779 -1.3454  0.4271 -1.3575
17801TIP3   OH274817   0.572   2.256  15.219 -0.2168  0.0664  0.2839
17801TIP3    H174818   0.525   2.180  15.252  0.4602 -0.3340  0.3461
17801TIP3    H274819   0.591   2.234  15.127 -1.3067  0.7918 -0.1353
17802TIP3   OH274820   1.558   0.592  11.655  0.0265 -0.9738  0.2806
17802TIP3    H174821   1.624   0.528  11.686  1.8198  1.2103  1.2749
17802TIP3    H274822   1.531   0.638  11.735  0.6750  1.1645 -0.6835
17803TIP3   OH274823   3.148   5.011   2.429  0.5915 -0.0199 -0.2571
17803TIP3    H174824   3.216   5.004   2.496  1.8557 -0.2688 -1.5090
17803TIP3    H274825   3.166   4.939   2.369 -0.9484 -0.2381 -0.4890
17804TIP3   OH274826   4.934   1.998  10.529 -0.0152  0.3734  0.4289
17804TIP3    H174827   4.997   1.956  10.471  0.2625  0.0990  0.9179
17804TIP3    H274828   4.983   2.071  10.568  0.1857 -0.1854  1.2432
17805TIP3   OH274829   0.317   5.722   1.024  0.0500 -0.0332  0.5071
17805TIP3    H174830   0.275   5.685   0.947  2.4933  0.0363 -0.9441
17805TIP3    H274831   0.287   5.813   1.026 -0.9855 -0.3562  0.3987
17806TIP3   OH274832   2.232   1.443  11.829 -0.2456  0.1688  0.3902
17806TIP3    H174833   2.281   1.377  11.878 -0.1123 -0.1586 -0.1616
17806TIP3    H274834   2.160   1.393  11.789 -0.5525  0.4938  0.5333
17807TIP3   OH274835   5.293   6.299   3.097  0.5380 -0.1761 -0.4516
17807TIP3    H174836   5.358   6.229   3.086  2.9070  2.3372 -5.1125
17807TIP3    H274837   5.247   6.303   3.013 -1.6351  1.9912  0.7037
17808TIP3   OH274838   2.421   2.797   2.049 -0.6279  0.0895  0.1605
17808TIP3    H174839   2.417   2.888   2.078  0.7836  0.4690 -0.7234
17808TIP3    H274840   2.514   2.776   2.048 -0.8277 -0.8617 -1.1807
17809TIP3   OH274841   3.451   0.106   1.661 -0.3471 -0.2642 -0.1627
17809TIP3    H174842   3.365   0.146   1.672 -0.2618  0.4461 -1.8141
17809TIP3    H274843   3.434   0.022   1.618 -0.2755 -0.5427  0.3445
17810TIP3   OH274844   3.201   5.367  11.705  0.0280  0.4196 -0.0945
17810TIP3    H174845   3.263   5.438  11.689 -0.0839  0.7542  0.8735
17810TIP3    H274846   3.218   5.340  11.796  0.3365 -1.0648 -0.5515
17811TIP3   OH274847   1.987   5.856  13.271 -0.1869  0.2686 -0.1485
17811TIP3    H174848   1.922   5.789  13.251  0.5091 -0.9660  1.4153
17811TIP3    H274849   2.062   5.834  13.216 -0.2451  0.2411 -0.2167
17812TIP3   OH274850   1.147   3.669   4.236 -0.2397 -0.4094  0.0454
17812TIP3    H174851   1.105   3.750   4.209 -1.1220 -0.6868  0.5327
17812TIP3    H274852   1.084   3.628   4.296 -0.1415 -1.8047 -0.7588
17813TIP3   OH274853   5.743   4.691   1.445  0.0433 -0.4032 -0.4066
17813TIP3    H174854   5.792   4.772   1.455  0.9751 -0.9154 -0.6629
17813TIP3    H274855   5.655   4.719   1.422  0.6228  0.5312 -1.6351
17814TIP3   OH274856   3.694   0.894  12.179 -0.7003  0.0916  0.5513
17814TIP3    H174857   3.622   0.872  12.120  0.3218 -2.5743  0.1758
17814TIP3    H274858   3.657   0.888  12.267 -0.8512 -1.8437  0.3906
17815TIP3   OH274859   2.896   3.458   0.052  0.4955  0.1640  0.0715
17815TIP3    H174860   2.827   3.437  -0.011  0.6800  0.3160 -0.1849
17815TIP3    H274861   2.850   3.475   0.134  0.3166 -0.9201  0.2060
17816TIP3   OH274862   2.779   6.332  12.481  0.5715 -0.2788 -0.1786
17816TIP3    H174863   2.764   6.352  12.389  1.3321  0.9080 -0.0601
17816TIP3    H274864   2.760   6.414  12.527  3.1907  0.1080  0.3796
17817TIP3   OH274865   6.398   1.433   5.802  0.8489 -0.3336  0.1170
17817TIP3    H174866   6.371   1.485   5.878  0.3923 -0.8763  0.3290
17817TIP3    H274867   6.380   1.490   5.727 -2.4089 -1.2158  0.1043
17818TIP3   OH274868   4.168   5.749  15.746  0.8627  0.3003  0.0219
17818TIP3    H174869   4.087   5.698  15.741 -0.2177  2.0235 -1.3062
17818TIP3    H274870   4.215   5.711  15.820 -1.9648  0.3359  2.0316
17819TIP3   OH274871   2.917   5.024   2.598  1.2382 -0.3967 -0.3725
17819TIP3    H174872   2.996   5.007   2.548  0.5957  2.3068 -2.5817
17819TIP3    H274873   2.849   5.035   2.531 -0.3979  0.0634  1.3000
17820TIP3   OH274874   3.940   5.841  14.788 -0.0262  0.3912 -0.5137
17820TIP3    H174875   3.974   5.909  14.845  2.7041 -2.5389  1.7140
17820TIP3    H274876   3.928   5.765  14.845 -0.4211 -1.7807 -3.2463
17821TIP3   OH274877   2.358   3.967  16.187 -0.7184 -0.0636 -0.1437
17821TIP3    H174878   2.406   3.991  16.108  1.0602  0.4836  1.0604
17821TIP3    H274879   2.374   4.038  16.248  0.9349 -2.0984  1.9630
17822TIP3   OH274880   0.906   0.356  13.484 -0.4666  0.0531  0.5522
17822TIP3    H174881   0.901   0.300  13.561 -0.5236  0.4740  0.8578
17822TIP3    H274882   0.954   0.304  13.419  0.8091  0.2177  1.3407
17823TIP3   OH274883   3.631   6.691  13.215  0.0340 -0.5961  0.1115
17823TIP3    H174884   3.596   6.625  13.156 -0.3727 -1.0026  0.7996
17823TIP3    H274885   3.591   6.672  13.299  1.4440 -0.7024  0.7851
17824TIP3   OH274886   5.273   3.374  15.310 -0.1668  0.7635  0.3147
17824TIP3    H174887   5.190   3.336  15.280  1.3318 -0.9624 -1.8966
17824TIP3    H274888   5.273   3.463  15.274 -1.2409  0.9568  0.7531
17825TIP3   OH274889   2.131   4.531   4.556  0.0990  0.6735  0.0385
17825TIP3    H174890   2.078   4.499   4.629 -0.2861 -0.1347 -0.5693
17825TIP3    H274891   2.092   4.490   4.478  2.8432 -1.7152 -0.2581
17826TIP3   OH274892   5.081   4.549   3.463  0.4614  0.0966 -0.2685
17826TIP3    H174893   5.012   4.608   3.494 -1.1816 -1.4481 -0.7726
17826TIP3    H274894   5.086   4.481   3.530  0.3083 -0.6808 -1.0237
17827TIP3   OH274895   5.396   4.093   0.030  0.4992  0.8038 -0.0270
17827TIP3    H174896   5.440   4.113  -0.053 -0.1774  1.1792 -0.3028
17827TIP3    H274897   5.419   4.002   0.048  0.3604  0.6041 -0.8139
17828TIP3   OH274898   4.310   0.364   0.974  0.1376  0.6767  0.4934
17828TIP3    H174899   4.261   0.411   0.906 -0.0091 -0.2150 -0.0260
17828TIP3    H274900   4.255   0.369   1.051 -0.8486 -0.4241 -0.1151
17829TIP3   OH274901   4.043   1.725   4.418  0.1459 -0.5583  0.5281
17829TIP3    H174902   4.071   1.675   4.494  0.0588 -0.5594  0.5600
17829TIP3    H274903   4.123   1.738   4.366  0.2191 -0.4871  0.6597
17830TIP3   OH274904   2.455   1.550   5.211  0.3043  0.0091  0.1262
17830TIP3    H174905   2.368   1.518   5.187  0.6547 -0.6323 -0.3115
17830TIP3    H274906   2.499   1.474   5.250  1.4530 -0.3387 -1.7277
17831TIP3   OH274907   5.162   0.143  11.444 -0.3117 -0.3701  0.2800
17831TIP3    H174908   5.111   0.196  11.505 -2.9419 -0.7498 -1.3815
17831TIP3    H274909   5.158   0.192  11.361  0.1331 -1.5120 -0.4443
17832TIP3   OH274910   1.968   1.986   2.128 -0.1126  0.1822 -0.1571
17832TIP3    H174911   1.914   1.960   2.054 -3.4635 -1.8683  2.6827
17832TIP3    H274912   2.008   1.905   2.159  2.0834  1.1618 -0.1950
17833TIP3   OH274913   2.525   3.061  17.313 -0.6524  0.1150  0.2282
17833TIP3    H174914   2.510   3.001  17.239 -1.1631 -1.1656  1.3317
17833TIP3    H274915   2.439   3.100  17.330 -0.5019  0.5272  0.0591
17834TIP3   OH274916   6.015   4.549   2.082 -0.3537  0.0604  0.4632
17834TIP3    H174917   5.947   4.600   2.126 -1.1451  0.3801 -1.0639
17834TIP3    H274918   5.969   4.471   2.050  0.3816 -0.5614  0.8879
17835TIP3   OH274919   0.614   6.388  17.267 -0.0513  0.3206  0.0741
17835TIP3    H174920   0.599   6.482  17.257 -0.6506  0.5723  2.6191
17835TIP3    H274921   0.544   6.347  17.216 -0.5553  1.2896 -0.0429
17836TIP3   OH274922   1.031   6.133   2.103 -0.1796  0.0253  0.0475
17836TIP3    H174923   1.122   6.104   2.109  0.4698  1.7084 -0.7395
17836TIP3    H274924   1.010   6.166   2.190  0.2147  0.2731  0.0525
17837TIP3   OH274925   6.289   4.427   5.064 -0.5566  0.0778 -0.3957
17837TIP3    H174926   6.206   4.389   5.036 -1.0465  2.2091 -2.0507
17837TIP3    H274927   6.349   4.411   4.992 -1.2534  3.7597 -2.0084
17838TIP3   OH274928   6.005   2.257   2.797  0.2317 -0.2706  0.8182
17838TIP3    H174929   5.993   2.167   2.824  0.0781 -0.0981  1.3220
17838TIP3    H274930   5.943   2.269   2.724  1.4777 -1.0801 -0.4326
17839TIP3   OH274931   0.671   5.931  11.645  0.4581 -0.4198 -0.6252
17839TIP3    H174932   0.761   5.926  11.611  0.0042 -1.1627 -1.7639
17839TIP3    H274933   0.622   5.976  11.577 -0.1318 -0.4218 -0.2108
17840TIP3   OH274934   3.619   4.551  10.976  0.3491 -0.2296 -0.1687
17840TIP3    H174935   3.536   4.514  10.947  1.5077 -2.4125 -0.9240
17840TIP3    H274936   3.637   4.621  10.913 -0.1254 -0.8503 -1.0185
17841TIP3   OH274937   3.416   4.983  15.882 -0.3378  0.2509 -0.2122
17841TIP3    H174938   3.491   4.946  15.929 -0.8954 -0.4703  0.1366
17841TIP3    H274939   3.384   4.911  15.828  1.1094  1.4259 -2.8352
17842TIP3   OH274940   2.137   4.591   4.027 -0.3515 -0.2284 -0.1371
17842TIP3    H174941   2.209   4.536   4.058 -0.8850 -0.6060  0.4508
17842TIP3    H274942   2.126   4.566   3.936  1.4430  1.1108 -0.7966
17843TIP3   OH274943   2.593   0.372  14.054  0.1416 -0.2261 -0.2276
17843TIP3    H174944   2.685   0.391  14.041  0.0259  0.0122 -0.7243
17843TIP3    H274945   2.566   0.430  14.126  0.3737 -0.2849 -0.0934
17844TIP3   OH274946   5.333   5.436   5.615  0.3686 -0.1798  0.1286
17844TIP3    H174947   5.325   5.359   5.671 -0.6278  0.4433  0.8951
17844TIP3    H274948   5.348   5.401   5.527  1.4767 -1.1886  0.7031
17845TIP3   OH274949   6.680   1.162  12.727 -0.2418  0.2986 -0.2886
17845TIP3    H174950   6.611   1.118  12.678 -1.6417  1.6263  0.4173
17845TIP3    H274951   6.709   1.233  12.669  1.3130 -0.8595 -1.0115
17846TIP3   OH274952   0.636   3.633  11.600 -0.0142  0.3434  0.2167
17846TIP3    H174953   0.622   3.635  11.695 -1.4001  0.5899  0.0364
17846TIP3    H274954   0.621   3.723  11.572 -1.1606 -0.0252 -0.4077
17847TIP3   OH274955   2.920   6.586  15.012 -0.3255 -0.7158 -0.0331
17847TIP3    H174956   3.006   6.609  15.049 -0.4819  1.0495 -0.6463
17847TIP3    H274957   2.940   6.532  14.936  0.2407 -0.4513 -0.0776
17848TIP3   OH274958   1.763   4.575  15.783  0.5828  0.1674 -0.2686
17848TIP3    H174959   1.812   4.510  15.733 -0.4489  0.0603 -1.1665
17848TIP3    H274960   1.717   4.626  15.717  0.1082  0.7743  0.5180
17849TIP3   OH274961   6.064   6.035  11.869 -0.1838  0.6061  0.6143
17849TIP3    H174962   6.097   5.966  11.811  1.0634  0.0549  1.9300
17849TIP3    H274963   5.969   6.022  11.870 -0.5762  2.0323 -3.0208
17850TIP3   OH274964   3.836   0.817  13.647 -0.2009  0.0891  0.3418
17850TIP3    H174965   3.921   0.826  13.690  0.2114 -1.7389 -0.0125
17850TIP3    H274966   3.828   0.895  13.592  1.1191  0.4134  0.5831
17851TIP3   OH274967   5.041   6.026   5.959 -0.3208  0.3816  0.1855
17851TIP3    H174968   4.958   6.025   5.912 -1.8978 -1.2217  2.7419
17851TIP3    H274969   5.088   5.948   5.929 -0.2266  0.6765 -0.4412
17852TIP3   OH274970   0.043   0.755   5.246  0.6394 -0.2756 -0.4010
17852TIP3    H174971   0.094   0.733   5.323  1.3867 -1.2998 -1.1624
17852TIP3    H274972   0.091   0.827   5.205  0.5260 -0.0838 -0.2012
17853TIP3   OH274973   1.363   5.390   5.681  0.0847 -0.1514 -0.4639
17853TIP3    H174974   1.311   5.310   5.689  0.4470 -0.3082  0.4605
17853TIP3    H274975   1.339   5.442   5.757 -0.6948  0.9631 -1.4428
17854TIP3   OH274976   3.728   4.640   2.990 -0.4496  0.4798 -0.0781
17854TIP3    H174977   3.651   4.680   2.950  0.2688  1.4810 -0.4947
17854TIP3    H274978   3.777   4.713   3.026  0.6106 -0.0859 -0.3387
17855TIP3   OH274979   6.298   5.013   5.631 -0.8584 -0.0856 -0.1562
17855TIP3    H174980   6.300   5.108   5.634 -0.5368 -0.0782 -0.4599
17855TIP3    H274981   6.316   4.985   5.721 -0.5981  0.1373 -0.1402
17856TIP3   OH274982   2.139   1.052   1.342 -0.1618 -0.1923  0.0348
17856TIP3    H174983   2.146   1.129   1.398 -0.3757 -0.7706  0.8833
17856TIP3    H274984   2.046   1.049   1.318 -0.4085 -0.8709  1.0256
17857TIP3   OH274985   1.705   0.022   3.088 -0.0513  0.0888  0.2792
17857TIP3    H174986   1.704  -0.016   3.001  0.1094  0.1743  0.2394
17857TIP3    H274987   1.626   0.077   3.091 -0.6431 -0.7519  0.5698
17858TIP3   OH274988   1.918   4.665  13.766  0.1943  0.4046 -0.0191
17858TIP3    H174989   1.971   4.618  13.831  0.4468 -0.5571 -0.8805
17858TIP3    H274990   1.975   4.669  13.688 -0.6420  0.2173 -0.6514
17859TIP3   OH274991   4.673   4.385  16.188  0.5364 -0.1565 -0.1891
17859TIP3    H174992   4.713   4.470  16.169 -1.5705  0.7393 -0.8783
17859TIP3    H274993   4.707   4.327  16.120  1.1133  0.4135 -0.3975
17860TIP3   OH274994   2.353   5.924   5.986 -0.2684 -0.2997  0.1503
17860TIP3    H174995   2.403   5.894   5.910  1.1372 -0.6948  1.1790
17860TIP3    H274996   2.317   5.844   6.025 -1.1327 -0.0834 -0.1922
17861TIP3   OH274997   1.993   2.781   2.332 -0.2663  0.2333  0.0771
17861TIP3    H174998   1.988   2.782   2.237  0.3783 -3.1443 -0.1059
17861TIP3    H274999   1.968   2.692   2.357 -0.9187  1.1465  3.1337
17862TIP3   OH275000   2.259   0.675  16.448 -0.9942  0.2820 -0.6823
17862TIP3    H175001   2.316   0.731  16.395  0.1687 -0.7546 -0.5545
17862TIP3    H275002   2.301   0.589  16.446 -0.5580  0.3324  2.4511
17863TIP3   OH275003   3.272   5.920   0.841 -0.0393 -0.5126  0.2581
17863TIP3    H175004   3.192   5.970   0.855 -0.2102  0.0643 -2.2416
17863TIP3    H275005   3.266   5.846   0.902 -1.9975  0.0282  0.7790
17864TIP3   OH275006   3.463   4.942  14.235  0.0660 -0.2397  0.6511
17864TIP3    H175007   3.499   4.906  14.316 -1.7410 -0.2552  1.4861
17864TIP3    H275008   3.465   4.869  14.174  2.3434  0.0187  0.3109
17865TIP3   OH275009   0.409   2.835  12.563  0.4171 -0.0097 -0.3689
17865TIP3    H175010   0.335   2.780  12.538  1.2214 -1.7257  0.8323
17865TIP3    H275011   0.469   2.830  12.489 -0.2030  0.5661 -0.9229
17866TIP3   OH275012   4.563   5.516  15.671  0.5080  0.1953  0.5041
17866TIP3    H175013   4.501   5.584  15.643 -1.8295 -2.4275 -1.2841
17866TIP3    H275014   4.628   5.513  15.601 -0.9986 -1.1775 -0.9362
17867TIP3   OH275015   4.512   6.206  11.711 -0.2110 -0.1274  0.1143
17867TIP3    H175016   4.539   6.296  11.692  0.6049  0.3521  3.0489
17867TIP3    H275017   4.564   6.152  11.651  2.4299  1.1719  1.0882
17868TIP3   OH275018   6.574   2.905  12.312  0.6198 -0.1485  0.1528
17868TIP3    H175019   6.668   2.889  12.313  0.4484 -1.3965 -0.8290
17868TIP3    H275020   6.561   2.971  12.244  0.6773 -0.8965 -0.5992
17869TIP3   OH275021   0.587   4.969   5.516  0.4132  0.4250  0.4167
17869TIP3    H175022   0.645   5.041   5.490  1.7345 -0.1935  1.5455
17869TIP3    H275023   0.605   4.900   5.453  1.6453 -0.1042  1.3012
17870TIP3   OH275024   3.893   5.031   5.917 -0.8187 -0.6055 -0.0364
17870TIP3    H175025   3.941   5.077   5.986 -0.3417 -1.4435  0.2057
17870TIP3    H275026   3.961   4.987   5.866 -1.1666  0.0270 -1.0720
17871TIP3   OH275027   2.452   2.966  10.295 -0.1226  0.4597  0.4252
17871TIP3    H175028   2.398   2.924  10.362 -0.8182  2.9584  1.5492
17871TIP3    H275029   2.442   3.060  10.312  0.6464  1.1456 -2.4640
17872TIP3   OH275030   3.161   0.097   3.121 -0.5398  0.4492 -0.7529
17872TIP3    H175031   3.082   0.088   3.068 -1.3802 -1.2971  0.6617
17872TIP3    H275032   3.226   0.041   3.078 -1.4242 -1.5166  0.3082
17873TIP3   OH275033   4.406   0.033  14.653 -0.5400 -0.2847 -0.7067
17873TIP3    H175034   4.445   0.006  14.737  0.9478  0.4764 -1.1180
17873TIP3    H275035   4.365  -0.046  14.619  0.3812 -1.0582 -0.0750
17874TIP3   OH275036   4.713   5.386  14.382  0.1516  0.2643 -0.4566
17874TIP3    H175037   4.783   5.362  14.320 -0.0873 -1.0934 -0.2312
17874TIP3    H275038   4.701   5.307  14.435 -0.7940  0.8656  0.2366
17875TIP3   OH275039   0.278   5.247   1.209 -0.2201  0.4500 -0.1186
17875TIP3    H175040   0.268   5.155   1.183  0.2731  0.1048  0.8495
17875TIP3    H275041   0.346   5.281   1.151 -1.0601  0.4773 -1.1099
17876TIP3   OH275042   5.356   5.258  11.662 -0.6251  0.4797 -0.0180
17876TIP3    H175043   5.336   5.172  11.698  1.6259 -0.1253 -0.0530
17876TIP3    H275044   5.381   5.240  11.571  1.6813  0.8482  0.4811
17877TIP3   OH275045   0.752   0.092   2.744  0.2842 -0.2746 -0.1049
17877TIP3    H175046   0.702   0.076   2.824 -0.0295 -0.6356 -0.3666
17877TIP3    H275047   0.686   0.118   2.680  0.1382 -2.6171 -0.9841
17878TIP3   OH275048   4.469   5.552  16.848  0.2148  0.2856  0.2498
17878TIP3    H175049   4.393   5.597  16.811 -0.1961 -0.1395  0.5668
17878TIP3    H275050   4.473   5.469  16.802  1.9598  1.2587 -1.5438
17879TIP3   OH275051   5.242   0.425   6.343 -0.1522  0.1074  0.1523
17879TIP3    H175052   5.195   0.496   6.387 -0.5358  0.9663 -1.5507
17879TIP3    H275053   5.321   0.466   6.308 -1.0262  0.0764 -2.0138
17880TIP3   OH275054   2.950   6.478   0.155  0.3265  0.5710  0.1333
17880TIP3    H175055   3.010   6.512   0.221  1.0894  2.0781 -1.2391
17880TIP3    H275056   2.883   6.545   0.147  0.6683  0.7941 -1.1182
17881TIP3   OH275057   0.209   4.184  16.449  0.2139 -0.2344 -0.1476
17881TIP3    H175058   0.158   4.172  16.369  1.3537 -2.2178 -0.6300
17881TIP3    H275059   0.240   4.096  16.471  0.3300  0.3312  2.2179
17882TIP3   OH275060   6.687   3.544  15.072 -0.2365 -0.0494  0.1665
17882TIP3    H175061   6.742   3.613  15.036 -0.4962 -1.6083 -3.7233
17882TIP3    H275062   6.625   3.590  15.130  2.3573  2.2601  1.3278
17883TIP3   OH275063   2.777   5.738  13.718 -0.2210  0.1890 -0.0688
17883TIP3    H175064   2.779   5.772  13.807  1.6199 -1.5330  0.6317
17883TIP3    H275065   2.740   5.809  13.665 -0.1662  1.7163  1.8583
17884TIP3   OH275066   1.373   3.749   4.559  0.1178  0.0427 -0.5983
17884TIP3    H175067   1.396   3.775   4.470 -0.7387  0.2366 -0.7664
17884TIP3    H275068   1.286   3.786   4.573  1.0638  1.8538  1.0635
17885TIP3   OH275069   6.636   2.383   3.795 -0.6841  0.0613 -0.2423
17885TIP3    H175070   6.628   2.294   3.762 -0.4745  0.5864 -1.7776
17885TIP3    H275071   6.726   2.388   3.828 -0.5366 -0.1448 -0.6076
17886TIP3   OH275072   5.453   1.367   3.025  0.5888 -0.1370 -0.6394
17886TIP3    H175073   5.406   1.396   3.103 -0.1502 -0.8365 -0.8133
17886TIP3    H275074   5.539   1.340   3.057  1.0420  1.5173 -0.3723
17887TIP3   OH275075   6.408   5.411  13.092 -0.7233 -0.5764  0.3158
17887TIP3    H175076   6.403   5.459  13.009  0.6293 -1.0915 -0.0890
17887TIP3    H275077   6.359   5.466  13.154  0.3078  1.0776 -0.2573
17888TIP3   OH275078   5.126   4.128  16.820  0.0096 -0.1613 -0.5207
17888TIP3    H175079   5.079   4.048  16.843  0.6927 -0.1052  1.2243
17888TIP3    H275080   5.059   4.189  16.790 -1.0613 -0.1221  1.7918
17889TIP3   OH275081   2.575   1.809  10.678 -0.9898  0.0670  0.0755
17889TIP3    H175082   2.559   1.902  10.689  0.0323  0.1996  0.6128
17889TIP3    H275083   2.662   1.805  10.637 -1.0811 -0.6442 -0.0590
17890TIP3   OH275084   3.325   5.654   2.676 -0.2855 -0.2020 -0.0619
17890TIP3    H175085   3.408   5.642   2.723  0.4864  1.9267 -0.7562
17890TIP3    H275086   3.287   5.733   2.715 -1.2065 -0.2640 -0.8181
17891TIP3   OH275087   2.218   6.088  11.409 -0.2107  0.1034 -0.1551
17891TIP3    H175088   2.122   6.086  11.405 -0.2572 -0.9343  0.7656
17891TIP3    H275089   2.247   6.046  11.329 -0.4597  1.9775 -1.2861
17892TIP3   OH275090   0.403   6.418   5.313  0.1937 -0.5259 -0.4993
17892TIP3    H175091   0.438   6.493   5.265 -1.1608  0.3655 -0.1660
17892TIP3    H275092   0.313   6.444   5.335 -0.0200 -1.9050  0.3715
17893TIP3   OH275093   3.466   0.847  12.013 -0.0798 -0.3584  0.4109
17893TIP3    H175094   3.462   0.753  11.997 -0.5173 -0.3682  0.5726
17893TIP3    H275095   3.377   0.871  12.037  0.1217  0.0219  0.7897
17894TIP3   OH275096   6.464   3.936   5.910 -0.3580 -0.8072 -0.2641
17894TIP3    H175097   6.384   3.916   5.860 -0.4061 -3.1208  0.6137
17894TIP3    H275098   6.454   3.886   5.991  1.3381  0.0619  0.5252
17895TIP3   OH275099   6.083   0.965   3.527  0.2998  0.0554  0.2467
17895TIP3    H175100   6.002   0.951   3.478 -0.0140 -0.2069  0.8334
17895TIP3    H275101   6.146   0.992   3.461  1.2624 -4.9721 -1.3067
17896TIP3   OH275102   6.480   1.633   2.547 -0.4537  0.0311  0.5311
17896TIP3    H175103   6.569   1.653   2.575  0.0162 -0.6129 -0.4461
17896TIP3    H275104   6.486   1.625   2.452 -1.6693  0.5119  0.3972
17897TIP3   OH275105   4.900   3.345   4.128 -0.0273 -0.1319 -0.4720
17897TIP3    H175106   4.982   3.316   4.088  0.1873  2.3888 -2.0450
17897TIP3    H275107   4.920   3.351   4.222  1.4126 -0.0462 -0.7631
17898TIP3   OH275108   3.120   5.445   6.467  0.3115  0.3386  0.4682
17898TIP3    H175109   3.100   5.418   6.557 -0.8104 -1.0949 -0.1910
17898TIP3    H275110   3.038   5.483   6.435  0.3946 -0.1046 -0.2827
17899TIP3   OH275111   6.573   5.676   4.732  0.1325  0.5520 -0.5676
17899TIP3    H175112   6.586   5.710   4.820 -0.6399 -0.7589  0.0878
17899TIP3    H275113   6.549   5.752   4.680  2.3101  1.6642 -0.0756
17900TIP3   OH275114   2.264   2.971  12.043 -0.0903  0.0061  0.0904
17900TIP3    H175115   2.352   3.009  12.040  0.7548 -1.7559  1.1368
17900TIP3    H275116   2.237   2.964  11.951  1.7531 -1.3620 -0.3937
17901TIP3   OH275117   1.681   1.892  16.017 -0.1989 -0.1051  0.5390
17901TIP3    H175118   1.645   1.814  15.975  1.4106  0.7528 -2.8080
17901TIP3    H275119   1.723   1.859  16.097 -0.7217 -2.4400 -0.0758
17902TIP3   OH275120   1.987   3.065  16.911 -0.2439  0.5582  0.3181
17902TIP3    H175121   2.005   2.972  16.896 -1.9312  0.2972 -0.3476
17902TIP3    H275122   2.067   3.109  16.883 -0.2546 -0.5510 -1.7139
17903TIP3   OH275123   3.260   4.908   4.779 -0.3233 -0.8130 -0.1514
17903TIP3    H175124   3.276   5.001   4.761 -1.5200 -0.7669 -1.1305
17903TIP3    H275125   3.295   4.863   4.702  1.9032 -1.3734  1.1179
17904TIP3   OH275126   4.113   3.463   4.657  0.0431  0.4624  0.3918
17904TIP3    H175127   4.202   3.474   4.626  0.5594  1.8022  2.1564
17904TIP3    H275128   4.058   3.505   4.590  0.7577  0.0460 -0.4700
17905TIP3   OH275129   4.073   6.618   3.937 -0.0168  0.2473  1.0154
17905TIP3    H175130   3.994   6.664   3.966 -2.0595 -2.5983  0.3566
17905TIP3    H275131   4.040   6.544   3.885  3.1625 -0.2057 -0.5956
17906TIP3   OH275132   1.877   0.119  14.407  0.3291  0.0530  0.4208
17906TIP3    H175133   1.897   0.148  14.496 -0.0403  0.1265  0.4849
17906TIP3    H275134   1.962   0.110  14.364  0.5067  0.0635  0.7662
17907TIP3   OH275135   0.728   2.682   0.385  0.2208 -0.7980  0.3368
17907TIP3    H175136   0.642   2.707   0.420 -0.0327 -1.7318  0.4352
17907TIP3    H275137   0.781   2.663   0.463  0.5313 -0.1833  0.2773
17908TIP3   OH275138   3.933   0.112   5.679 -0.1946 -0.3712 -0.5630
17908TIP3    H175139   3.978   0.160   5.748 -1.9431 -1.4934  1.4712
17908TIP3    H275140   3.905   0.179   5.616 -2.1485  1.3325  1.9222
17909TIP3   OH275141   6.731   2.301   3.066 -0.1941  0.1075 -0.3249
17909TIP3    H175142   6.808   2.287   3.121  1.1520  0.7550 -1.9605
17909TIP3    H275143   6.737   2.392   3.038 -0.2311 -0.4606 -2.3696
17910TIP3   OH275144   1.450   1.761   0.956 -0.2515  0.0848 -0.0573
17910TIP3    H175145   1.532   1.777   1.002 -0.7609  2.5136  0.1359
17910TIP3    H275146   1.435   1.840   0.904 -2.3745 -0.3528 -0.2292
17911TIP3   OH275147   4.207   4.687   5.972  0.0189 -0.3573 -0.6094
17911TIP3    H175148   4.187   4.773   5.936  1.3781 -0.2638 -1.2125
17911TIP3    H275149   4.122   4.651   5.998 -0.6036  1.0219 -0.6399
17912TIP3   OH275150   5.015   0.713   1.191 -0.0329 -0.6001  0.2192
17912TIP3    H175151   5.054   0.638   1.147  0.4813  0.4624 -1.1838
17912TIP3    H275152   4.996   0.776   1.121 -1.6398  0.0807  1.1950
17913TIP3   OH275153   6.049   4.867  12.424 -0.0649 -0.0041 -0.5116
17913TIP3    H175154   6.057   4.936  12.358  2.6251 -1.2912 -1.7051
17913TIP3    H275155   6.008   4.794  12.377 -1.1557  0.1269  0.2124
17914TIP3   OH275156   5.323   5.958  16.794  0.5201  0.5969 -0.2088
17914TIP3    H175157   5.237   5.961  16.752  0.4375  0.7953 -0.0271
17914TIP3    H275158   5.306   5.977  16.886  0.3546 -2.3384  0.4691
17915TIP3   OH275159   3.299   2.992   3.643  0.3234  0.0331  0.0149
17915TIP3    H175160   3.374   2.949   3.684  1.6352  1.8154 -0.3931
17915TIP3    H275161   3.229   2.983   3.707  1.7019  0.8354  1.7246
17916TIP3   OH275162   6.384   6.047   3.756 -0.3360  0.1987 -0.3206
17916TIP3    H175163   6.468   6.079   3.723 -0.4618  1.5533  0.5904
17916TIP3    H275164   6.329   6.038   3.679 -0.3208  2.3393 -0.6228
17917TIP3   OH275165   2.741   0.596  15.588 -0.1089 -0.0216  0.4032
17917TIP3    H175166   2.688   0.639  15.655  0.0059 -1.4899  1.4810
17917TIP3    H275167   2.805   0.663  15.563 -0.8644  0.9325  0.9180
17918TIP3   OH275168   5.147   4.730   4.934 -0.1003  0.2712  0.0068
17918TIP3    H175169   5.133   4.800   4.998  1.4036  2.4654 -1.8834
17918TIP3    H275170   5.076   4.668   4.950 -1.0053  1.7783  2.3543
17919TIP3   OH275171   3.380   3.715   1.583 -0.6095  0.2604 -0.6471
17919TIP3    H175172   3.354   3.626   1.605 -2.9432  0.5074 -2.0960
17919TIP3    H275173   3.377   3.763   1.667  0.2825 -0.8826  0.0675
17920TIP3   OH275174   0.804   5.071  13.063  0.3687 -0.1848  0.1249
17920TIP3    H175175   0.810   4.985  13.020 -2.0583  0.1064 -0.9763
17920TIP3    H275176   0.719   5.070  13.107 -0.2226  2.0229 -0.8393
17921TIP3   OH275177   0.670   0.640  14.931 -0.2359 -0.0451 -0.0364
17921TIP3    H175178   0.732   0.685  14.874 -2.3602  0.7635 -1.8658
17921TIP3    H275179   0.666   0.551  14.897 -0.4685  0.0574 -0.2842
17922TIP3   OH275180   5.564   4.703   5.437 -0.0518 -0.3191 -0.3683
17922TIP3    H175181   5.574   4.710   5.342 -0.9499  0.7944 -0.4143
17922TIP3    H275182   5.611   4.779   5.471  1.3427 -1.4047  0.1869
17923TIP3   OH275183   2.683   4.047  17.130  0.1181 -0.3272 -0.3974
17923TIP3    H175184   2.736   4.085  17.200 -0.8402 -0.7915  0.6135
17923TIP3    H275185   2.596   4.038  17.169 -0.5237 -0.2945 -1.7631
17924TIP3   OH275186   2.633   0.126  13.947 -0.2821  0.7218 -0.5963
17924TIP3    H175187   2.599   0.193  14.006  2.9909  0.0860  2.3668
17924TIP3    H275188   2.695   0.173  13.891  1.4297  0.4250  0.9584
17925TIP3   OH275189   2.582   5.188   4.178 -0.4134  0.2370 -0.0904
17925TIP3    H175190   2.551   5.105   4.143  1.5373 -0.9877  0.8997
17925TIP3    H275191   2.578   5.177   4.273 -1.2096  1.7441  0.0970
17926TIP3   OH275192   2.754   4.861   3.497  0.2244  0.4354  0.6824
17926TIP3    H175193   2.702   4.923   3.549 -0.8832 -0.6501  0.8981
17926TIP3    H275194   2.704   4.850   3.416  2.6885  3.3734 -1.5387
17927TIP3   OH275195   4.219   6.520  13.405 -0.4952  0.0547 -0.3051
17927TIP3    H175196   4.206   6.457  13.476  0.1843 -0.9493 -1.0299
17927TIP3    H275197   4.178   6.478  13.329  0.3245  0.2984 -0.8924
17928TIP3   OH275198   5.745   1.129  11.349 -0.3220  0.6231  0.1115
17928TIP3    H175199   5.713   1.190  11.415  0.5393  0.7620  0.4163
17928TIP3    H275200   5.764   1.048  11.397  0.4209  0.7631  0.0616
17929TIP3   OH275201   3.625   2.733   2.774 -0.0677 -0.1308 -0.1168
17929TIP3    H175202   3.720   2.735   2.786 -0.3540  0.9363  2.7069
17929TIP3    H275203   3.601   2.825   2.759 -0.6837 -0.3771 -0.6812
17930TIP3   OH275204   6.681   0.227   4.287  0.5470  0.4626  0.6206
17930TIP3    H175205   6.660   0.167   4.216  0.2904  1.6383 -0.3318
17930TIP3    H275206   6.624   0.199   4.359 -1.3083  0.9829 -0.5691
17931TIP3   OH275207   2.824   4.488  15.962  0.6041 -0.3256  0.0330
17931TIP3    H175208   2.877   4.428  15.911 -2.0727 -1.2758 -1.8855
17931TIP3    H275209   2.807   4.561  15.903  1.2670  0.8712  1.2648
17932TIP3   OH275210   2.358   0.006  16.269  0.5265  0.2450  0.1321
17932TIP3    H175211   2.445   0.044  16.278  0.2160  0.5648  2.3150
17932TIP3    H275212   2.299   0.071  16.308 -0.5810 -0.3860 -0.4268
17933TIP3   OH275213   4.513   4.649  14.035 -0.0690  0.5540 -0.0744
17933TIP3    H175214   4.592   4.697  14.059 -0.2981 -0.0915  2.2744
17933TIP3    H275215   4.445   4.716  14.026  0.1071  0.8786  0.9260
17934TIP3   OH275216   6.324   2.544   2.233  0.2618 -0.4552  0.5765
17934TIP3    H175217   6.358   2.591   2.309 -1.2581  0.0457  0.9801
17934TIP3    H275218   6.337   2.604   2.160 -1.1187  0.3775  0.9891
17935TIP3   OH275219   1.228   3.192   1.800  0.4892 -0.2250 -0.3504
17935TIP3    H175220   1.258   3.273   1.841  0.2854 -0.1103 -0.4240
17935TIP3    H275221   1.217   3.131   1.872 -2.5523  0.7790  0.2000
17936TIP3   OH275222   4.389   5.832  12.901  0.5002  0.0945 -0.9133
17936TIP3    H175223   4.375   5.898  12.968  1.6806  0.1545 -0.7061
17936TIP3    H275224   4.433   5.879  12.830  0.6935 -0.3069 -1.0641
17937TIP3   OH275225   2.073   4.514  13.963  0.0236 -0.6221 -0.3043
17937TIP3    H175226   2.036   4.447  13.906  0.3715 -1.0025 -0.0822
17937TIP3    H275227   2.085   4.470  14.047  1.1202 -0.5504 -0.4096
17938TIP3   OH275228   2.002   3.376  13.727 -0.0471  0.0134  0.5002
17938TIP3    H175229   2.018   3.361  13.820  1.0018  0.1964  0.3599
17938TIP3    H275230   1.984   3.469  13.720 -1.1937 -0.1780  0.6461
17939TIP3   OH275231   6.180   1.151   2.197  0.3869  0.5826  0.4792
17939TIP3    H175232   6.205   1.225   2.252  0.9438  0.0392  0.9740
17939TIP3    H275233   6.260   1.130   2.148 -0.2389  1.3918 -0.9412
17940TIP3   OH275234   1.165   6.663  14.566 -0.4481  0.8721  0.0459
17940TIP3    H175235   1.224   6.721  14.614 -0.8734  0.4370  1.1318
17940TIP3    H275236   1.223   6.603  14.520  0.1064 -1.6683  3.6494
17941TIP3   OH275237   3.500   6.646  13.434  0.8335 -0.4866 -0.0914
17941TIP3    H175238   3.482   6.554  13.452  2.8011 -0.7202  1.0873
17941TIP3    H275239   3.454   6.694  13.502 -0.4703 -0.5467 -0.9073
17942TIP3   OH275240   5.848   3.403  14.663  0.4124  0.7740 -0.0064
17942TIP3    H175241   5.783   3.367  14.723  1.4319 -1.2930 -0.0781
17942TIP3    H275242   5.803   3.407  14.579  0.1778 -0.0325  0.0738
17943TIP3   OH275243   3.151   6.017   3.531 -0.0942  0.0080 -0.0571
17943TIP3    H175244   3.162   5.958   3.605  1.5137  0.2993 -0.0212
17943TIP3    H275245   3.075   6.070   3.553 -0.4068 -0.7645  0.7847
17944TIP3   OH275246   3.567   3.837   2.307 -0.1850  0.0267 -0.4560
17944TIP3    H175247   3.625   3.899   2.264 -0.1122  1.0765  1.0685
17944TIP3    H275248   3.625   3.783   2.361 -0.4650  0.1823  0.0136
17945TIP3   OH275249   4.984   6.213   3.773 -0.3577  0.5863  0.1028
17945TIP3    H175250   5.028   6.250   3.850 -0.9731  2.9431 -0.5739
17945TIP3    H275251   5.047   6.152   3.736  0.5829  0.6068  1.5857
17946TIP3   OH275252   5.777   0.504   5.447  0.1929  0.1768 -0.0422
17946TIP3    H175253   5.780   0.583   5.393  1.5730 -0.3863 -0.8503
17946TIP3    H275254   5.688   0.469   5.435 -0.2614  1.3176 -0.0753
17947TIP3   OH275255   5.117   4.750   3.912  0.1649  0.0325  0.0534
17947TIP3    H175256   5.183   4.700   3.864  1.5020 -0.2619  2.0549
17947TIP3    H275257   5.142   4.842   3.897  0.4918 -0.0497  0.0812
17948TIP3   OH275258   0.185   4.181  15.945  0.0885  0.3090  0.0289
17948TIP3    H175259   0.248   4.160  15.876 -1.3317 -0.4853 -1.0585
17948TIP3    H275260   0.205   4.272  15.968  1.4533  0.1586 -0.4647
17949TIP3   OH275261   2.680   0.402  15.393  0.3219  0.4695 -0.3691
17949TIP3    H175262   2.724   0.471  15.443 -1.3676  1.1191  0.2819
17949TIP3    H275263   2.751   0.360  15.343  1.9401  0.3499  1.8726
17950TIP3   OH275264   6.000   6.618   5.375 -0.7147 -0.7660  0.0576
17950TIP3    H175265   5.995   6.552   5.306  0.0597  0.1827 -0.9518
17950TIP3    H275266   5.956   6.695   5.338  1.6643  0.5207 -0.3621
17951TIP3   OH275267   3.099   1.054  13.351 -0.4117  0.1977 -0.2864
17951TIP3    H175268   3.051   1.128  13.388 -0.4789 -0.1269  0.3033
17951TIP3    H275269   3.170   1.093  13.300 -1.8619  0.7208 -2.0147
17952TIP3   OH275270   1.258   1.948   2.540 -0.1109 -0.1636 -0.7761
17952TIP3    H175271   1.201   1.940   2.617  1.6645  2.2364  0.9178
17952TIP3    H275272   1.215   2.015   2.486  0.5046  0.9028  0.0109
17953TIP3   OH275273   0.694   3.276   0.857 -0.4564 -0.0557 -0.7602
17953TIP3    H175274   0.625   3.240   0.913 -1.0581  1.3700 -0.5356
17953TIP3    H275275   0.657   3.358   0.824  1.5924  1.4439  0.4517
17954TIP3   OH275276   2.743   5.457   6.805 -0.1755  0.1322 -0.4281
17954TIP3    H175277   2.741   5.362   6.810  0.1605  0.0199 -1.9865
17954TIP3    H275278   2.836   5.479   6.799 -0.2211  0.6024  0.4034
17955TIP3   OH275279   1.107   2.172  13.362 -0.0670 -0.8311  0.1653
17955TIP3    H175280   1.141   2.232  13.295 -0.5528 -3.0780 -2.3037
17955TIP3    H275281   1.012   2.176  13.352 -0.2056 -0.3684  1.5512
17956TIP3   OH275282   0.149   5.183  13.912  0.0307  0.5869 -0.7227
17956TIP3    H175283   0.129   5.239  13.987 -2.3666  1.1126 -1.6679
17956TIP3    H275284   0.197   5.240  13.851  0.5554  0.6196 -0.2862
17957TIP3   OH275285   2.674   0.470  16.402 -0.6481 -0.3351  0.0730
17957TIP3    H175286   2.708   0.463  16.313 -1.2553 -2.1518 -0.0599
17957TIP3    H275287   2.750   0.493  16.455 -0.1489  0.1223 -0.8156
17958TIP3   OH275288   3.127   3.627  14.244 -0.0605  0.0062 -0.2541
17958TIP3    H175289   3.138   3.709  14.291 -0.6828  0.4126 -0.8154
17958TIP3    H275290   3.051   3.586  14.285 -1.6918  1.1570 -1.9963
17959TIP3   OH275291   0.976   3.320   3.786 -0.0903 -0.6138 -0.4060
17959TIP3    H175292   0.940   3.290   3.869  1.0704 -2.2298 -0.4601
17959TIP3    H275293   0.899   3.332   3.730 -0.8179 -0.2668  0.6327
17960TIP3   OH275294   5.844   4.355   0.911  0.2210  0.4530  0.2875
17960TIP3    H175295   5.826   4.398   0.994 -1.3513 -0.1891  0.3074
17960TIP3    H275296   5.889   4.274   0.935 -0.0077  0.3880  0.5002
17961TIP3   OH275297   0.480   5.764   4.755 -0.5391  0.2386  0.4008
17961TIP3    H175298   0.452   5.772   4.664 -1.8335 -4.9231  0.0945
17961TIP3    H275299   0.576   5.758   4.750 -0.4546  1.7058 -0.3301
17962TIP3   OH275300   0.474   1.973   3.106  0.4136 -0.3442  0.1840
17962TIP3    H175301   0.468   1.915   3.182 -0.6156  0.1907  0.5349
17962TIP3    H275302   0.385   1.973   3.069  0.0071  2.0076  0.9692
17963TIP3   OH275303   5.620   3.382   4.988  0.3870 -0.7355  0.3366
17963TIP3    H175304   5.626   3.425   4.902  1.3009 -2.1441 -0.3315
17963TIP3    H275305   5.703   3.336   4.998 -0.2627 -1.7444  1.3507
17964TIP3   OH275306   6.341   5.742   4.935 -0.0949 -0.1196  0.3843
17964TIP3    H175307   6.413   5.727   4.995 -1.4092 -1.2526  1.7576
17964TIP3    H275308   6.313   5.832   4.953 -1.1310 -0.7608  2.2991
17965TIP3   OH275309   5.285   5.698   4.358 -0.2264  0.1549  0.1212
17965TIP3    H175310   5.275   5.609   4.392  1.9601 -0.6137 -1.0418
17965TIP3    H275311   5.348   5.739   4.416 -1.7146  1.2487  1.0528
17966TIP3   OH275312   2.780   1.142   5.682 -0.1800  0.0251  0.2993
17966TIP3    H175313   2.718   1.079   5.718 -2.5901  1.8067 -0.4694
17966TIP3    H275314   2.762   1.223   5.730  2.6618  0.2969  1.1022
17967TIP3   OH275315   0.862   3.066   1.704 -0.0648 -0.6819 -0.4518
17967TIP3    H175316   0.801   3.084   1.776  0.9029 -2.0070  0.7609
17967TIP3    H275317   0.914   3.146   1.697 -0.3985 -0.4079  0.0849
17968TIP3   OH275318   5.617   5.530  12.441 -0.4527 -0.0979 -0.0474
17968TIP3    H175319   5.554   5.596  12.470 -2.7048 -1.3823 -1.7062
17968TIP3    H275320   5.599   5.519  12.348  0.5538 -2.3130 -0.0426
17969TIP3   OH275321   0.190   0.866  17.013 -0.4172  0.1981 -0.2135
17969TIP3    H175322   0.150   0.945  16.976 -0.5368 -0.7691 -2.2996
17969TIP3    H275323   0.118   0.820  17.055 -0.5388  0.6952  0.1432
17970TIP3   OH275324   3.149   5.298   6.689  0.4420 -0.2631 -0.1327
17970TIP3    H175325   3.228   5.318   6.739  0.7212 -1.6250  0.0128
17970TIP3    H275326   3.141   5.203   6.694 -1.6152 -0.1145  0.4801
17971TIP3   OH275327   3.922   5.653  17.157  0.1260 -0.3642  0.2706
17971TIP3    H175328   3.846   5.704  17.127  2.3683  2.0150 -2.0033
17971TIP3    H275329   3.896   5.562  17.146 -2.1099  0.3596 -1.2174
17972TIP3   OH275330   2.252   4.901  13.081  0.5630 -0.1257 -0.9262
17972TIP3    H175331   2.346   4.879  13.081  0.5151 -0.4462  0.5677
17972TIP3    H275332   2.211   4.825  13.039  1.0072  0.3475 -2.2875
17973TIP3   OH275333   3.680   6.184   2.381  0.4021 -0.9459  0.0057
17973TIP3    H175334   3.638   6.214   2.462  1.4283  0.2622  0.1301
17973TIP3    H275335   3.701   6.092   2.397  0.5121 -0.7460  1.0921
17974TIP3   OH275336   4.243   1.165  13.349  0.2792 -0.1312  0.0552
17974TIP3    H175337   4.258   1.077  13.384  0.9637 -0.0095  0.0739
17974TIP3    H275338   4.270   1.224  13.418 -0.7231  0.0994  0.2576
17975TIP3   OH275339   4.284   1.056  16.178 -0.0147 -0.3478 -0.2831
17975TIP3    H175340   4.330   0.972  16.185  0.6460 -0.0238 -0.7110
17975TIP3    H275341   4.251   1.072  16.267 -0.1850 -1.0735 -0.2029
17976TIP3   OH275342   2.838   6.581  12.776 -0.3615  0.0658 -0.1543
17976TIP3    H175343   2.831   6.494  12.815 -2.8083 -0.4905 -1.5997
17976TIP3    H275344   2.772   6.633  12.821  0.0958  0.7795 -0.2885
17977TIP3   OH275345   4.145   6.056   1.777  0.1080 -0.7404  0.2714
17977TIP3    H175346   4.173   6.077   1.688  0.7529 -0.6407  0.4920
17977TIP3    H275347   4.080   5.987   1.767 -1.7054  0.9637 -0.4568
17978TIP3   OH275348   4.238   0.665   0.021  0.3974  0.2033  0.0852
17978TIP3    H175349   4.150   0.631   0.041  0.6136  0.2034  1.0466
17978TIP3    H275350   4.262   0.620  -0.061 -0.1522 -0.4368  0.2633
17979TIP3   OH275351   5.451   1.963  12.844  0.5129 -0.0683 -0.3353
17979TIP3    H175352   5.395   1.887  12.828 -2.3243  1.4609  1.5485
17979TIP3    H275353   5.430   2.023  12.773 -0.3665  0.5478  0.4288
17980TIP3   OH275354   0.346   1.903  17.254 -0.0506  0.1946 -0.0319
17980TIP3    H175355   0.302   1.898  17.339  1.8068 -0.8060  0.9491
17980TIP3    H275356   0.351   1.812  17.225  0.3629  0.4108 -0.6430
17981TIP3   OH275357   1.600   3.903   0.792 -0.0989 -0.2060  0.5892
17981TIP3    H175358   1.694   3.887   0.794 -0.5197 -3.3957  0.0406
17981TIP3    H275359   1.560   3.818   0.811 -2.8516  0.4315 -1.5961
17982TIP3   OH275360   1.632   4.386  14.505  0.4745  0.3041  0.3308
17982TIP3    H175361   1.554   4.345  14.466  0.1233 -0.2843  1.6125
17982TIP3    H275362   1.598   4.455  14.561  0.8471 -0.1345  1.1151
17983TIP3   OH275363   1.180   0.701  12.780 -0.5171 -0.6410  0.5601
17983TIP3    H175364   1.099   0.746  12.802 -1.0335 -1.3631  0.1911
17983TIP3    H275365   1.201   0.731  12.691  1.0562  1.5453  1.5699
17984TIP3   OH275366   3.365   4.420  11.911  0.0440 -0.2317 -0.0501
17984TIP3    H175367   3.390   4.336  11.873  0.4228  0.7288 -2.0926
17984TIP3    H275368   3.278   4.438  11.874 -0.7581 -0.4288  1.6443
17985TIP3   OH275369   4.098   3.823   5.517  0.2583 -0.3890  0.8129
17985TIP3    H175370   4.158   3.758   5.554 -0.3841 -0.4631  1.7621
17985TIP3    H275371   4.063   3.781   5.438  1.6265 -0.2394  0.0843
17986TIP3   OH275372   5.463   0.122   0.230 -0.1783  0.0891  0.0595
17986TIP3    H175373   5.519   0.112   0.308 -2.2532  0.9461  1.7601
17986TIP3    H275374   5.500   0.061   0.166  1.5179 -0.7802  1.7658
17987TIP3   OH275375   5.503   4.941   5.838  1.0190  0.1788  0.4418
17987TIP3    H175376   5.498   4.920   5.931  3.1093 -0.6658  0.4150
17987TIP3    H275377   5.417   4.915   5.803  0.5001 -0.2661  1.9588
17988TIP3   OH275378   1.247   3.122   2.798  0.6572  0.8093  0.1420
17988TIP3    H175379   1.315   3.181   2.766  2.5666 -1.6656 -0.5881
17988TIP3    H275380   1.256   3.126   2.894  0.9540  1.4297  0.0984
17989TIP3   OH275381   6.207   0.229   2.165  0.2439 -0.1036  0.0325
17989TIP3    H175382   6.243   0.284   2.096  0.4246  0.2979  0.4437
17989TIP3    H275383   6.250   0.144   2.153 -0.3280 -0.2872 -0.8482
17990TIP3   OH275384   2.382   4.607  14.137 -0.6344 -0.1154  0.2885
17990TIP3    H175385   2.398   4.552  14.060 -0.7898  0.1606  0.0562
17990TIP3    H275386   2.466   4.610  14.183 -0.6105 -0.4962  0.2676
17991TIP3   OH275387   4.980   5.610  12.638 -0.9062 -0.0791  1.2464
17991TIP3    H175388   5.007   5.576  12.553  0.6274 -1.1512  2.1089
17991TIP3    H275389   4.951   5.700  12.620  1.6080  0.5672 -0.1136
17992TIP3   OH275390   6.494   3.540  14.756  0.1882 -0.4377  0.5467
17992TIP3    H175391   6.414   3.573  14.715  0.0716  0.8625  1.7296
17992TIP3    H275392   6.465   3.507  14.842  0.8278 -0.5664  0.7220
17993TIP3   OH275393   5.666   2.298   3.516  0.1924  0.2053 -0.1957
17993TIP3    H175394   5.714   2.312   3.598 -1.1167  1.0195  0.4677
17993TIP3    H275395   5.695   2.212   3.486  1.5449  0.3750  0.5194
17994TIP3   OH275396   0.071   0.280   2.326  0.6348  0.0433 -0.1739
17994TIP3    H175397   0.039   0.354   2.378 -0.5394  0.4021 -1.3418
17994TIP3    H275398   0.009   0.209   2.345  0.0007  0.2765 -1.3005
17995TIP3   OH275399   0.722   0.683  16.266  0.2972  0.3178 -0.2372
17995TIP3    H175400   0.713   0.770  16.306 -1.5228  0.0439  0.0602
17995TIP3    H275401   0.769   0.631  16.331 -0.0899  0.6468  0.3203
17996TIP3   OH275402   2.142   6.285   2.856  0.4095 -0.9618 -0.0258
17996TIP3    H175403   2.062   6.311   2.811  0.1266 -2.6429 -0.5767
17996TIP3    H275404   2.146   6.341   2.933 -1.6338 -1.2436  0.3395
17997TIP3   OH275405   1.970   4.532   2.935  0.6451 -0.1271 -0.2657
17997TIP3    H175406   2.001   4.538   3.025 -0.4989  0.8191  0.0994
17997TIP3    H275407   1.928   4.446   2.928  0.1421  0.0659  0.3193
17998TIP3   OH275408   0.027   3.801   0.830 -0.5121 -0.1265  0.1609
17998TIP3    H175409   0.020   3.778   0.923  0.0892 -1.1748 -0.0493
17998TIP3    H275410   0.006   3.895   0.828 -1.1967 -0.2280  1.2621
17999TIP3   OH275411   2.578   6.497   0.394 -0.1722  0.2259 -0.4823
17999TIP3    H175412   2.640   6.494   0.468  1.4285  2.0214 -1.6611
17999TIP3    H275413   2.595   6.416   0.346 -0.7625 -0.6435  0.7080
18000TIP3   OH275414   2.171   2.668  11.906 -0.3800 -0.4239  0.5977
18000TIP3    H175415   2.251   2.704  11.945  0.0673  0.2550 -0.8342
18000TIP3    H275416   2.101   2.693  11.966  0.4439 -0.7286  1.7079
18001TIP3   OH275417   5.367   4.803  14.898 -0.0819  0.2360 -0.4052
18001TIP3    H175418   5.293   4.768  14.849 -0.1144  0.9391 -0.8779
18001TIP3    H275419   5.352   4.898  14.899  1.7270  0.5971 -2.0278
18002TIP3   OH275420   1.458   4.435  13.501 -0.0656 -0.2585 -0.5751
18002TIP3    H175421   1.472   4.474  13.587 -1.0512 -1.2470  0.0427
18002TIP3    H275422   1.470   4.508  13.440  1.4331  0.2843  0.3211
18003TIP3   OH275423   5.380   2.687   3.757  0.2273  0.3099 -0.4464
18003TIP3    H175424   5.339   2.617   3.706 -0.0922 -0.5513  0.9398
18003TIP3    H275425   5.308   2.725   3.808 -0.1007  3.2916 -2.8722
18004TIP3   OH275426   1.562   3.510  14.937  0.6082  0.1545  0.2186
18004TIP3    H175427   1.551   3.424  14.897 -0.5014 -0.4741  1.7847
18004TIP3    H275428   1.555   3.571  14.863 -2.6396 -0.8593 -0.4776
18005TIP3   OH275429   3.729   4.627   0.991 -0.0079  0.0379  0.0909
18005TIP3    H175430   3.783   4.548   0.999  0.8010  0.3008 -2.0428
18005TIP3    H275431   3.783   4.697   1.026 -0.6017 -0.2699  1.6917
18006TIP3   OH275432   1.136   5.416   1.724  0.3378  0.2272 -0.0334
18006TIP3    H175433   1.107   5.507   1.739 -0.3093  0.2201 -1.1360
18006TIP3    H275434   1.091   5.366   1.792 -0.7247  0.5044 -0.4981
18007TIP3   OH275435   6.127   3.494   4.250  0.2744 -0.1038 -0.4431
18007TIP3    H175436   6.135   3.401   4.231 -0.6270 -0.2213 -0.2537
18007TIP3    H275437   6.090   3.498   4.338  2.2163  0.4442  0.4031
18008TIP3   OH275438   4.495   5.451   0.496  0.0280 -0.6330  0.0365
18008TIP3    H175439   4.417   5.397   0.510 -0.5075 -0.2189 -1.2014
18008TIP3    H275440   4.559   5.392   0.458  0.1080 -0.8366  0.4853
18009TIP3   OH275441   6.564   6.577   1.345  0.2649 -0.2197  0.2209
18009TIP3    H175442   6.559   6.660   1.298  1.1051  0.8631  1.9316
18009TIP3    H275443   6.646   6.537   1.314  0.3180  0.0204  0.0489
18010TIP3   OH275444   0.640   2.812   5.515  0.4818  0.0036 -0.2967
18010TIP3    H175445   0.579   2.833   5.586  0.2874  1.3975 -0.8328
18010TIP3    H275446   0.583   2.795   5.440  0.7096  1.6999 -0.9028
18011TIP3   OH275447   2.497   5.415   2.680  0.2227 -0.4760  0.0528
18011TIP3    H175448   2.419   5.423   2.625  0.9893  0.8437 -0.8959
18011TIP3    H275449   2.463   5.395   2.767 -1.3046  1.6022  0.0094
18012TIP3   OH275450   1.763   4.356  11.644 -0.0460 -0.7798  0.3708
18012TIP3    H175451   1.802   4.269  11.653  1.0551 -0.2918  0.5428
18012TIP3    H275452   1.769   4.375  11.550 -1.4539 -1.3867  0.1318
18013TIP3   OH275453   5.370   6.744  14.148 -0.1807  0.4700  0.5716
18013TIP3    H175454   5.305   6.684  14.183 -2.8226  0.1222 -4.1578
18013TIP3    H275455   5.327   6.830  14.151 -0.3497  0.4836 -1.2374
18014TIP3   OH275456   4.168   5.446  12.465  0.5831  0.1262 -0.1096
18014TIP3    H175457   4.182   5.460  12.371 -0.4568  1.0368 -0.1530
18014TIP3    H275458   4.079   5.410  12.470  0.5271  0.3536  0.5544
18015TIP3   OH275459   1.484   1.725  11.420  0.1573 -0.1789 -0.4861
18015TIP3    H175460   1.521   1.646  11.459  0.4471  0.4954  0.6246
18015TIP3    H275461   1.556   1.764  11.371  0.3023 -0.0514 -0.1716
18016TIP3   OH275462   5.506   3.782  13.323 -0.0477 -0.3108  0.1596
18016TIP3    H175463   5.562   3.731  13.382  0.1959 -1.7871 -1.2630
18016TIP3    H275464   5.565   3.847  13.283 -0.7030  2.4497  3.2814
18017TIP3   OH275465   1.064   1.830  13.301 -0.0599  0.4139 -0.4528
18017TIP3    H175466   1.072   1.736  13.316  1.1446 -0.0120 -3.0575
18017TIP3    H275467   1.117   1.870  13.369 -2.2652 -0.5876  1.9970
18018TIP3   OH275468   2.661   6.068   0.499  0.1899  0.3727 -0.1903
18018TIP3    H175469   2.715   6.013   0.442  1.2979  1.5829 -0.3640
18018TIP3    H275470   2.600   6.112   0.439 -1.0213 -0.9585  0.0008
18019TIP3   OH275471   1.152   5.598   4.885  0.0748 -0.4685 -0.6169
18019TIP3    H175472   1.127   5.528   4.946 -0.4915  0.8452  0.7151
18019TIP3    H275473   1.116   5.677   4.924  1.2177  0.6662 -1.7913
18020TIP3   OH275474   2.717   2.451  12.351  0.3265  0.1443 -0.5230
18020TIP3    H175475   2.783   2.452  12.281  1.2186 -1.3675  0.2389
18020TIP3    H275476   2.636   2.424  12.308  1.4432 -3.5722 -0.6383
18021TIP3   OH275477   5.723   0.984   3.387 -0.0664  0.1813  0.7920
18021TIP3    H175478   5.654   1.019   3.330  0.4189  1.8368  1.1812
18021TIP3    H275479   5.676   0.939   3.457 -0.7194  0.4893  0.5561
18022TIP3   OH275480   1.142   6.606   3.643  0.3040  0.2014 -0.4810
18022TIP3    H175481   1.190   6.639   3.718 -2.8489  2.4244  0.7871
18022TIP3    H275482   1.087   6.537   3.678 -0.3538  0.4661 -0.9688
18023TIP3   OH275483   1.595   0.716  15.715 -0.2841 -0.8452 -0.3977
18023TIP3    H175484   1.611   0.622  15.704  1.8780 -0.4200 -1.4753
18023TIP3    H275485   1.677   0.750  15.749 -1.3948  0.5369  1.0162
18024TIP3   OH275486   1.171   1.248   1.229 -0.3884  0.5954  0.2016
18024TIP3    H175487   1.184   1.307   1.154  3.4992 -0.4667 -0.2248
18024TIP3    H275488   1.251   1.258   1.281 -2.3018  0.1709  3.5138
18025TIP3   OH275489   1.227   4.603   5.449  0.2788 -0.3837 -0.2441
18025TIP3    H175490   1.232   4.594   5.544  0.1740 -1.6712 -0.3471
18025TIP3    H275491   1.292   4.669   5.427 -0.2939  0.5609  0.8026
18026TIP3   OH275492   3.419   1.107  14.998 -0.4235  0.0430  0.4843
18026TIP3    H175493   3.367   1.175  15.040 -2.2249 -0.2532 -1.1230
18026TIP3    H275494   3.450   1.147  14.916  1.7518  0.1314  1.2828
18027TIP3   OH275495   5.824   2.510  11.546 -0.0110  0.3382  0.4189
18027TIP3    H175496   5.739   2.469  11.526 -1.8137  4.1049 -0.3969
18027TIP3    H275497   5.871   2.509  11.463  0.3412 -0.7038  0.6054
18028TIP3   OH275498   0.601   5.294  15.986  0.4439  0.0082 -0.3316
18028TIP3    H175499   0.658   5.366  15.963 -0.4059  0.1434 -2.2211
18028TIP3    H275500   0.566   5.262  15.902 -0.5301 -1.4800  0.5704
18029TIP3   OH275501   1.336   1.921   4.963 -0.7820  0.2050  0.4140
18029TIP3    H175502   1.287   1.953   5.038 -1.3009 -0.5416  0.4048
18029TIP3    H275503   1.396   1.856   4.999  0.7645  1.6369  0.5399
18030TIP3   OH275504   5.079   3.352  14.162  0.1849  0.0383  0.3437
18030TIP3    H175505   5.165   3.387  14.184  0.2540  0.1399 -0.0841
18030TIP3    H275506   5.071   3.273  14.217  0.4973  0.0958  0.4757
18031TIP3   OH275507   6.590   1.359  13.665  0.2452  0.0992 -0.1335
18031TIP3    H175508   6.594   1.292  13.734 -0.1685 -0.8808 -1.0347
18031TIP3    H275509   6.595   1.442  13.713  1.7501 -0.5595  0.9549
18032TIP3   OH275510   0.263   3.056  13.439  0.2299 -0.0907 -0.1819
18032TIP3    H175511   0.335   3.032  13.496  0.3294  0.2778 -0.1507
18032TIP3    H275512   0.263   3.152  13.438 -0.6996 -0.0685  0.3862
18033TIP3   OH275513   2.930   0.280   4.931  0.2984  0.4357 -0.0842
18033TIP3    H175514   2.872   0.207   4.909  0.0822  0.7261 -0.4824
18033TIP3    H275515   2.982   0.295   4.853  0.2008  0.8406 -0.0738
18034TIP3   OH275516   1.422   3.480  13.904  0.4427  0.4284  0.1324
18034TIP3    H175517   1.331   3.456  13.922  1.2030 -0.9019  2.5024
18034TIP3    H275518   1.468   3.397  13.896  1.7194  1.0925  0.3126
18035TIP3   OH275519   2.218   1.599   4.939 -0.0580  0.2023  0.2371
18035TIP3    H175520   2.224   1.688   4.973 -1.2680  0.6949 -0.7231
18035TIP3    H275521   2.124   1.582   4.933  0.1398 -0.7508 -0.5429
18036TIP3   OH275522   2.525   5.873   1.264  0.3843 -0.5153 -0.1432
18036TIP3    H175523   2.436   5.837   1.266 -0.7319  2.0311 -0.7920
18036TIP3    H275524   2.581   5.796   1.249 -1.8358 -1.9760 -1.5575
18037TIP3   OH275525   5.232   5.292  10.983 -0.2241 -0.4078  0.0407
18037TIP3    H175526   5.226   5.207  11.026 -0.2068 -0.3108  0.2335
18037TIP3    H275527   5.251   5.354  11.053  2.0485 -0.5512 -0.3823
18038TIP3   OH275528   5.124   5.071   0.890  0.5295  0.3458  0.2353
18038TIP3    H175529   5.198   5.030   0.848  2.5732  2.4715  1.5062
18038TIP3    H275530   5.105   5.148   0.837 -1.2189 -0.4850 -0.4132
18039TIP3   OH275531   6.695   5.433   4.736  0.0338 -0.5609  0.0247
18039TIP3    H175532   6.716   5.401   4.824 -1.8434 -1.3274  0.2462
18039TIP3    H275533   6.656   5.520   4.751 -0.9577 -0.9945  0.0482
18040TIP3   OH275534   5.309   6.664  12.612  0.2305  0.3404 -0.3111
18040TIP3    H175535   5.306   6.676  12.707 -0.9345  1.3221 -0.4548
18040TIP3    H275536   5.219   6.644  12.587  0.6536 -0.6298 -1.1417
18041TIP3   OH275537   2.087   2.419  13.098  0.2952 -0.1111 -0.1111
18041TIP3    H175538   2.099   2.364  13.021 -1.6591 -0.4105 -0.2498
18041TIP3    H275539   2.017   2.479  13.074  1.6199  1.7396  0.4397
18042TIP3   OH275540   4.580   2.065   4.146  0.7318 -0.1954  0.4668
18042TIP3    H175541   4.542   2.057   4.234  0.8523 -1.4851  0.4058
18042TIP3    H275542   4.644   1.994   4.140  0.3744 -0.4293 -0.8411
18043TIP3   OH275543   1.214   3.088  11.557  0.0221  0.3843  0.6231
18043TIP3    H175544   1.277   3.073  11.487  0.3640 -2.3368  1.4197
18043TIP3    H275545   1.259   3.150  11.615  1.4581 -0.5111  0.5174
18044TIP3   OH275546   0.639   0.377   0.073 -0.0330 -0.4311  0.3256
18044TIP3    H175547   0.614   0.285   0.089  0.3136 -0.7908 -1.0632
18044TIP3    H275548   0.611   0.394  -0.017 -2.4203  1.6581  1.3305
18045TIP3   OH275549   0.117   3.341   1.526  0.5466  0.2217  0.2468
18045TIP3    H175550   0.193   3.370   1.577 -0.1540  1.2214  0.7441
18045TIP3    H275551   0.129   3.382   1.440 -0.3572  1.9516  0.8973
18046TIP3   OH275552   2.282   2.162  16.554 -0.0903 -0.5819 -0.5650
18046TIP3    H175553   2.359   2.214  16.531  0.2068 -1.3855 -1.4181
18046TIP3    H275554   2.211   2.199  16.501 -0.4760  0.6036  0.7187
18047TIP3   OH275555   6.252   0.201   3.113  0.3081  0.3282 -0.2546
18047TIP3    H175556   6.161   0.230   3.115  0.6246  1.4724 -1.1219
18047TIP3    H275557   6.249   0.108   3.137 -0.9661  0.5913  0.7143
18048TIP3   OH275558   2.976   2.593   3.393  0.2746 -0.0041 -0.4581
18048TIP3    H175559   3.055   2.643   3.414  0.2191  0.9494 -2.3082
18048TIP3    H275560   2.904   2.653   3.412  0.0419 -0.4906  0.2138
18049TIP3   OH275561   6.201   5.243  13.332  0.4278 -0.4253 -0.1913
18049TIP3    H175562   6.237   5.192  13.260  0.3542 -2.0262  0.8384
18049TIP3    H275563   6.106   5.232  13.325  0.3417  0.4918 -0.5887
18050TIP3   OH275564   2.752   4.547   1.397 -0.3275 -0.2800 -0.0231
18050TIP3    H175565   2.839   4.585   1.381 -0.3997 -0.4884 -0.9760
18050TIP3    H275566   2.724   4.585   1.479 -0.6941  2.3167 -1.2546
18051TIP3   OH275567   3.288   5.616  11.418 -0.6692 -0.1256  0.4429
18051TIP3    H175568   3.350   5.618  11.491  0.1459  1.6073 -0.2612
18051TIP3    H275569   3.339   5.581  11.345 -1.2492 -1.0513  0.4639
18052TIP3   OH275570   4.723   5.563  14.075  0.0171  0.7510 -0.2248
18052TIP3    H175571   4.718   5.619  13.997  1.0395  0.7808 -0.2775
18052TIP3    H275572   4.817   5.554  14.092 -0.1313 -0.7167 -0.0410
18053TIP3   OH275573   2.828   1.842  13.221  0.2190 -0.3294  0.7132
18053TIP3    H175574   2.828   1.875  13.132  0.7363 -1.4890  0.2592
18053TIP3    H275575   2.832   1.920  13.276  0.1518  0.3881 -0.2725
18054TIP3   OH275576   1.975   0.548  12.811 -0.7470  0.0592 -0.7361
18054TIP3    H175577   1.951   0.639  12.827 -1.3088 -0.1664 -0.2619
18054TIP3    H275578   1.970   0.539  12.715 -0.7382  0.5069 -0.7818
18055TIP3   OH275579   0.115   5.998   0.365 -0.2867  0.0709 -0.2326
18055TIP3    H175580   0.133   5.993   0.459 -1.0453  0.2694 -0.0707
18055TIP3    H275581   0.072   5.915   0.344 -0.0547 -0.0032 -0.4206
18056TIP3   OH275582   0.035   2.428  12.350  0.1984 -0.1863  0.4728
18056TIP3    H175583   0.102   2.375  12.394  0.2819 -0.4782 -0.0048
18056TIP3    H275584   0.084   2.478  12.285  0.1441  0.6001  1.0233
18057TIP3   OH275585   0.418   0.467   6.104  0.3469 -0.0410 -0.2390
18057TIP3    H175586   0.438   0.375   6.086  2.3379  0.5648 -1.4636
18057TIP3    H275587   0.496   0.514   6.074 -1.1556  2.1656 -0.8877
18058TIP3   OH275588   6.547   4.111   5.395 -0.4911  0.1856 -0.3997
18058TIP3    H175589   6.512   4.052   5.329 -2.8399  0.3675  0.5780
18058TIP3    H275590   6.513   4.197   5.370  1.3441  0.8395 -0.7621
18059TIP3   OH275591   5.224   2.224   1.571 -0.1596  0.0048 -0.0360
18059TIP3    H175592   5.301   2.239   1.626  0.7400  0.1527 -1.2950
18059TIP3    H275593   5.240   2.139   1.531 -0.7711 -0.0659 -0.1273
18060TIP3   OH275594   1.836   2.836  17.313  0.0913 -0.5487 -0.4586
18060TIP3    H175595   1.857   2.842  17.407 -1.0494 -0.9970 -0.1637
18060TIP3    H275596   1.829   2.926  17.284 -2.5623 -0.3167  0.6086
18061TIP3   OH275597   0.556   0.465  16.300  0.2784 -0.3855 -0.6633
18061TIP3    H175598   0.580   0.543  16.250  0.0539 -0.4918 -0.9389
18061TIP3    H275599   0.467   0.445  16.272  0.2776 -0.6471 -0.4749
18062TIP3   OH275600   4.940   2.962  16.462 -0.0342 -0.3251 -0.2002
18062TIP3    H175601   4.871   2.965  16.528  0.5222 -2.6635  0.5921
18062TIP3    H275602   4.966   2.870  16.459  4.4364  0.7002  0.9663
18063TIP3   OH275603   6.591   2.273  12.734 -0.0917 -0.2812  0.5030
18063TIP3    H175604   6.578   2.364  12.709 -2.0374 -0.9526 -1.1049
18063TIP3    H275605   6.537   2.261  12.812  0.4892  0.0019  0.9653
18064TIP3   OH275606   1.875   4.980  12.229 -0.1046 -0.8234 -0.0783
18064TIP3    H175607   1.921   4.902  12.260  1.4790 -0.8054 -2.2028
18064TIP3    H275608   1.842   5.021  12.309 -0.0364 -3.0687  1.1766
18065TIP3   OH275609   2.705   3.233   1.563  0.4464 -0.3287 -0.5987
18065TIP3    H175610   2.767   3.187   1.621 -0.1043  0.0490  0.3182
18065TIP3    H275611   2.619   3.210   1.598  0.0898 -0.2472 -1.4048
18066TIP3   OH275612   4.239   0.307  13.669 -0.3278  0.7206  0.5362
18066TIP3    H175613   4.231   0.276  13.759  0.9050 -2.6088 -0.3567
18066TIP3    H275614   4.153   0.290  13.630 -0.2568  0.2351  0.5835
18067TIP3   OH275615   0.850   0.677   5.075 -0.2256  0.4094 -0.2273
18067TIP3    H175616   0.882   0.589   5.094 -0.9178  0.3536  0.7286
18067TIP3    H275617   0.755   0.669   5.076 -0.3365  1.4371  1.3283
18068TIP3   OH275618   0.116   0.694   1.862 -0.3011  0.3215 -0.3698
18068TIP3    H175619   0.093   0.677   1.954 -0.4015 -1.5652 -0.7204
18068TIP3    H275620   0.212   0.699   1.862 -0.3303  1.0796 -0.0627
18069TIP3   OH275621   3.759   2.241  12.692 -0.6048 -0.0416 -0.0590
18069TIP3    H175622   3.825   2.194  12.642 -1.0238  1.4707 -2.1430
18069TIP3    H275623   3.798   2.251  12.779  1.3639 -0.2808 -0.8711
18070TIP3   OH275624   1.309   5.920   5.703 -0.1556  0.3175 -0.5854
18070TIP3    H175625   1.247   5.993   5.696  0.2085  0.9957  2.1071
18070TIP3    H275626   1.375   5.938   5.637 -0.1829  2.3753 -0.1423
18071TIP3   OH275627   4.264   3.548  12.874  0.1302  0.3334 -0.4164
18071TIP3    H175628   4.320   3.472  12.859 -0.5939  0.0175 -1.6133
18071TIP3    H275629   4.325   3.622  12.880  0.9477 -0.4242  1.9180
18072TIP3   OH275630   4.521   0.573   2.597 -0.1975 -0.5738  0.6565
18072TIP3    H175631   4.453   0.621   2.645  0.5994 -0.2030  1.4534
18072TIP3    H275632   4.567   0.640   2.547 -1.7497 -1.0934 -1.6407
18073TIP3   OH275633   3.183   1.338  16.654  0.1656  0.9600  0.7534
18073TIP3    H175634   3.185   1.268  16.589 -2.9191  0.5266  0.9471
18073TIP3    H275635   3.243   1.404  16.621  0.0065 -0.0091 -1.6471
18074TIP3   OH275636   2.773   5.537   1.794 -0.1975  0.0724  0.2840
18074TIP3    H175637   2.771   5.561   1.887 -2.3610 -0.1385  0.3505
18074TIP3    H275638   2.711   5.464   1.787  0.4749 -0.3859 -1.2163
18075TIP3   OH275639   3.071   4.425  16.084 -0.0596  0.3638  0.1601
18075TIP3    H175640   3.027   4.346  16.114  0.2247  0.3504  0.5473
18075TIP3    H275641   3.005   4.494  16.093  0.7035  0.8529  3.1957
18076TIP3   OH275642   2.943   5.396   5.838  0.2975 -0.0286 -0.3729
18076TIP3    H175643   2.994   5.315   5.839 -0.5911 -0.5955  0.2041
18076TIP3    H275644   2.984   5.451   5.905  1.5379  0.4266 -1.4601
18077TIP3   OH275645   5.446   0.126  16.127 -0.3227  0.5528  0.3530
18077TIP3    H175646   5.371   0.103  16.182 -1.8393  2.4194 -0.8286
18077TIP3    H275647   5.476   0.210  16.161  0.4125  0.4617 -0.0424
18078TIP3   OH275648   0.321   0.847   0.701 -0.1516 -0.6303 -0.5672
18078TIP3    H175649   0.300   0.923   0.647  1.4820 -0.5982 -1.2060
18078TIP3    H275650   0.382   0.795   0.648  1.2022 -0.8048  1.0719
18079TIP3   OH275651   5.401   1.755   2.609 -0.3353  0.0864 -0.3782
18079TIP3    H175652   5.423   1.845   2.583  0.2790 -0.1068 -0.5538
18079TIP3    H275653   5.309   1.759   2.635 -0.2382  0.8238 -0.1198
18080TIP3   OH275654   2.705   5.663   5.361  0.1728  0.1452 -0.6750
18080TIP3    H175655   2.623   5.620   5.384  1.1820 -1.4658  0.1058
18080TIP3    H275656   2.697   5.751   5.397 -0.2730 -0.7580  1.6383
18081TIP3   OH275657   2.968   1.371  15.339  0.6901 -0.7637 -0.2106
18081TIP3    H175658   2.957   1.382  15.433 -3.9647 -0.8104 -0.4943
18081TIP3    H275659   2.934   1.283  15.320  0.1957 -0.2326 -2.0519
18082TIP3   OH275660   0.417   1.907   4.788  0.0251 -0.7770  0.4744
18082TIP3    H175661   0.326   1.892   4.760  0.1447  1.8104 -1.8474
18082TIP3    H275662   0.415   1.995   4.827  1.1897 -1.5966  2.5147
18083TIP3   OH275663   5.358   1.800  15.622  0.6218 -0.5919  0.0321
18083TIP3    H175664   5.410   1.758  15.553 -1.3739 -1.8154 -0.8171
18083TIP3    H275665   5.396   1.767  15.703  1.1324 -1.5038 -0.5560
18084TIP3   OH275666   3.630   2.898   1.645 -0.1028  0.0947  0.3237
18084TIP3    H175667   3.543   2.933   1.629  0.7949  2.2741 -0.1584
18084TIP3    H275668   3.667   2.955   1.712  0.4667 -1.6924  1.6094
18085TIP3   OH275669   3.475   1.873   5.325 -0.6409 -0.0549 -0.0230
18085TIP3    H175670   3.407   1.902   5.385 -1.4023  0.2808 -1.0252
18085TIP3    H275671   3.430   1.860   5.241  0.2997 -0.9815 -0.4127
18086TIP3   OH275672   5.174   2.301   2.121  0.1857 -0.4324  0.3658
18086TIP3    H175673   5.185   2.233   2.055 -0.8158 -0.6897  0.4415
18086TIP3    H275674   5.127   2.257   2.192  0.2098  0.1444  0.7398
18087TIP3   OH275675   6.005   6.448   1.323  0.1643  0.1212  0.3297
18087TIP3    H175676   5.978   6.495   1.402  2.7274  1.0020  0.7812
18087TIP3    H275677   5.989   6.356   1.344 -0.2820  0.4207  1.4019
18088TIP3   OH275678   0.562   4.981   6.420 -0.5121  0.0727 -0.0510
18088TIP3    H175679   0.642   4.972   6.471  0.1733  0.1628 -1.0745
18088TIP3    H275680   0.503   5.032   6.476 -0.0757 -0.4860  0.9432
18089TIP3   OH275681   5.261   1.723  13.816 -0.0741 -0.2565  0.0508
18089TIP3    H175682   5.268   1.666  13.739 -0.8344  0.1713 -0.3429
18089TIP3    H275683   5.345   1.712  13.861  0.4411 -0.4058 -0.9186
18090TIP3   OH275684   4.448   0.980  14.296  0.3217 -0.4069  0.1622
18090TIP3    H175685   4.380   0.958  14.360 -0.5067  0.0818 -0.5212
18090TIP3    H275686   4.430   0.922  14.222  1.2151 -0.9074  0.3199
18091TIP3   OH275687   5.299   5.116   2.268  0.3732 -0.4323  0.1518
18091TIP3    H175688   5.320   5.026   2.242  1.1054 -0.1507 -0.2540
18091TIP3    H275689   5.377   5.146   2.315  1.2065  0.8341 -1.9051
18092TIP3   OH275690   3.187   5.248   1.632  0.0569 -0.2005  0.0132
18092TIP3    H175691   3.148   5.279   1.551  3.1165  2.2507 -0.7059
18092TIP3    H275692   3.153   5.307   1.699  1.0675  0.8282 -0.3365
18093TIP3   OH275693   0.536   3.798   3.536 -0.4743  0.3130 -0.2365
18093TIP3    H175694   0.463   3.743   3.508  0.1172 -0.6481  0.0612
18093TIP3    H275695   0.565   3.759   3.618  0.8823  0.1895 -0.7562
18094TIP3   OH275696   2.378   1.574  12.929  0.1634  0.7478  0.4887
18094TIP3    H175697   2.469   1.543  12.922 -0.0106  0.2599  0.3049
18094TIP3    H275698   2.348   1.578  12.839  0.3152  1.8946  0.4790
18095TIP3   OH275699   6.241   5.626   2.450  0.2355  0.1381  0.5156
18095TIP3    H175700   6.188   5.574   2.389 -0.1380 -0.3950  1.2795
18095TIP3    H275701   6.285   5.561   2.505  2.6570  0.4997 -0.8495
18096TIP3   OH275702   5.426   6.643   2.520  0.6808 -0.4066 -0.1697
18096TIP3    H175703   5.443   6.674   2.431  1.9214 -2.2304 -0.6115
18096TIP3    H275704   5.511   6.611   2.551 -0.2211 -1.9899  0.7831
18097TIP3   OH275705   1.566   4.762   4.019 -0.3894 -0.0100  0.5235
18097TIP3    H175706   1.519   4.747   4.101 -2.6086  1.5061 -0.3666
18097TIP3    H275707   1.569   4.857   4.011 -0.8178 -0.1292 -1.4611
18098TIP3   OH275708   0.287   4.831   6.042  0.3197  0.3551  0.0151
18098TIP3    H175709   0.204   4.786   6.027 -0.8823  3.0664 -2.3756
18098TIP3    H275710   0.285   4.856   6.134 -1.1524 -0.2501  0.1711
18099TIP3   OH275711   6.591   3.904  12.415  0.3343 -1.1191 -0.3962
18099TIP3    H175712   6.583   3.816  12.378 -0.8497 -0.9537 -0.5857
18099TIP3    H275713   6.683   3.911  12.440  0.4934 -2.3462 -0.5378
18100TIP3   OH275714   5.494   0.549   0.806  0.0285 -0.1322  0.3346
18100TIP3    H175715   5.558   0.573   0.873 -0.4091 -1.1046  1.1255
18100TIP3    H275716   5.480   0.630   0.756  1.7969  0.1186  0.1777
18101TIP3   OH275717   2.772   4.744  13.735  0.0980 -0.3847  0.0834
18101TIP3    H175718   2.862   4.752  13.769 -0.2016  0.7411  0.6535
18101TIP3    H275719   2.718   4.730  13.813 -0.5791  2.0657  0.1366
18102TIP3   OH275720   3.459   2.574  13.106 -0.4998 -0.4048 -0.3844
18102TIP3    H175721   3.399   2.573  13.031  1.0581 -0.4405 -1.6914
18102TIP3    H275722   3.535   2.524  13.077  1.8932  2.8600 -0.3373
18103TIP3   OH275723   1.632   4.181   5.720  0.3380 -0.0072 -0.3425
18103TIP3    H175724   1.725   4.180   5.745  0.6766  2.2910 -1.2681
18103TIP3    H275725   1.590   4.232   5.788 -0.4029 -1.5694  0.4096
18104TIP3   OH275726   1.820   6.149   5.798 -0.3429  0.1258 -0.0469
18104TIP3    H175727   1.849   6.173   5.710 -2.3752  3.8927  0.1041
18104TIP3    H275728   1.726   6.168   5.798 -0.7527 -1.4611  2.4781
18105TIP3   OH275729   2.144   5.923  13.492  0.1210 -0.4208 -0.1867
18105TIP3    H175730   2.085   5.915  13.417  0.3477 -2.7196 -0.1780
18105TIP3    H275731   2.223   5.876  13.466  0.0372 -1.6492  1.6171
18106TIP3   OH275732   5.449   3.603  11.949  0.0901 -0.0835 -0.3065
18106TIP3    H175733   5.416   3.568  11.866  3.5972 -1.1221 -1.4134
18106TIP3    H275734   5.506   3.675  11.924 -0.5150  1.0575  1.4313
18107TIP3   OH275735   2.610   6.556  13.725 -0.3292 -0.0186  0.1832
18107TIP3    H175736   2.640   6.579  13.813 -2.9030  1.1397  0.8699
18107TIP3    H275737   2.619   6.637  13.675  1.0014 -0.6392 -0.6320
18108TIP3   OH275738   3.623   0.655  13.633 -0.1499  0.2497 -0.4752
18108TIP3    H175739   3.703   0.707  13.644  0.4098 -0.1124 -2.4060
18108TIP3    H275740   3.604   0.660  13.540 -1.8279 -0.5130 -0.2089
18109TIP3   OH275741   6.731   3.225  11.370  0.3611 -0.2593  0.0391
18109TIP3    H175742   6.645   3.245  11.333  0.9637  0.9140 -0.7876
18109TIP3    H275743   6.786   3.203  11.295  0.9361 -0.4036  0.4894
18110TIP3   OH275744   1.631   5.698  15.866 -0.4558  0.4047  0.3418
18110TIP3    H175745   1.607   5.638  15.936  0.7733 -0.4843  0.0197
18110TIP3    H275746   1.684   5.765  15.909  0.5920 -0.3297  0.2307
18111TIP3   OH275747   3.935   5.523   6.419  0.1188  0.1000 -0.1058
18111TIP3    H175748   3.916   5.616   6.424  1.5047  0.3565  1.1691
18111TIP3    H275749   3.852   5.480   6.441 -0.1965  1.0556  0.6192
18112TIP3   OH275750   3.932   4.604  16.288  0.4281 -0.2424 -0.2659
18112TIP3    H175751   3.938   4.653  16.370  0.2390  0.7851 -0.8548
18112TIP3    H275752   3.849   4.631  16.250 -0.2320 -1.8920 -0.0760
18113TIP3   OH275753   4.966   4.405   3.932 -0.1247 -0.5771 -0.1631
18113TIP3    H175754   5.031   4.452   3.985 -0.4417 -0.3091 -0.0077
18113TIP3    H275755   4.886   4.407   3.985 -0.4075 -0.4248 -0.5872
18114TIP3   OH275756   0.309   5.328  16.824 -0.1716 -0.2337 -0.6416
18114TIP3    H175757   0.357   5.337  16.742  1.0718 -1.6609 -0.1302
18114TIP3    H275758   0.354   5.386  16.885 -1.9838  1.9621 -1.2450
18115TIP3   OH275759   4.752   0.169   4.853  0.2379  0.6222  0.4667
18115TIP3    H175760   4.765   0.177   4.947 -0.2905 -0.5609  0.6602
18115TIP3    H275761   4.787   0.083   4.831  0.3232  0.8722 -0.4116
18116TIP3   OH275762   4.619   0.869   4.732  0.1070  0.0162 -0.3250
18116TIP3    H175763   4.621   0.858   4.827 -2.8588 -2.0755 -0.3294
18116TIP3    H275764   4.546   0.929   4.717  0.9227  0.7791 -1.2635
18117TIP3   OH275765   0.525   3.681  12.321 -0.1040  0.9641  0.2234
18117TIP3    H175766   0.551   3.769  12.351  0.0778  0.6318  1.0720
18117TIP3    H275767   0.454   3.656  12.381 -0.5268  0.7413 -0.3580
18118TIP3   OH275768   3.750   1.990   0.229  0.7716  0.0745 -0.1712
18118TIP3    H175769   3.750   2.063   0.290 -1.4311 -0.6694  0.8133
18118TIP3    H275770   3.689   2.016   0.160 -0.3129 -0.9321  0.3725
18119TIP3   OH275771   2.916   1.087  16.910 -0.6589  0.6713 -0.0561
18119TIP3    H175772   2.925   1.180  16.929  1.3245  0.1367  2.0511
18119TIP3    H275773   2.992   1.066  16.856 -0.8581  0.1879 -0.1560
18120TIP3   OH275774   5.051   2.147  14.783 -0.1381  0.1542  0.4533
18120TIP3    H175775   4.990   2.180  14.717 -0.5980 -1.2778  0.1131
18120TIP3    H275776   5.123   2.110  14.733 -0.2130 -0.4192  0.7572
18121TIP3   OH275777   0.676   2.726  15.356  0.2737  0.0608 -0.8869
18121TIP3    H175778   0.676   2.687  15.443 -1.9968  0.4129 -0.6720
18121TIP3    H275779   0.720   2.662  15.301  1.5742 -0.2579  0.4623
18122TIP3   OH275780   6.691   1.713   4.613 -0.4419  0.1774 -0.1331
18122TIP3    H175781   6.781   1.738   4.595 -0.1003 -1.3871 -0.7621
18122TIP3    H275782   6.689   1.694   4.707 -0.1056  0.1678 -0.1293
18123TIP3   OH275783   0.311   2.620  15.700 -0.2748 -0.0407 -0.2488
18123TIP3    H175784   0.290   2.529  15.678  0.7753 -0.0577 -1.3149
18123TIP3    H275785   0.228   2.667  15.690 -0.4873 -0.5983 -1.3772
18124TIP3   OH275786   5.647   2.039  13.020 -0.1485 -0.2612  0.1364
18124TIP3    H175787   5.564   2.029  12.974 -0.3561  0.6093  0.2942
18124TIP3    H275788   5.643   2.128  13.057 -0.0494 -0.9666  1.9263
18125TIP3   OH275789   3.894   0.263   1.872  0.1483 -0.2557 -0.1166
18125TIP3    H175790   3.918   0.355   1.881  2.9951 -0.8355 -0.9664
18125TIP3    H275791   3.833   0.262   1.798  0.8529  0.8302 -0.7384
18126TIP3   OH275792   1.288   3.867   2.675 -0.0013  0.1994  0.4407
18126TIP3    H175793   1.258   3.958   2.674  1.7704  0.8215 -1.4564
18126TIP3    H275794   1.253   3.829   2.595  0.2647 -0.4763  0.6385
18127TIP3   OH275795   5.682   3.459  14.027 -0.0222  0.3274 -0.0622
18127TIP3    H175796   5.772   3.491  14.025 -0.0587  0.4271 -0.1552
18127TIP3    H275797   5.649   3.485  14.113  0.6011 -1.2949  0.6984
18128TIP3   OH275798   2.864   6.460   4.001  0.2733 -0.3880  0.3180
18128TIP3    H175799   2.858   6.553   4.025 -2.0243 -0.7052  1.2495
18128TIP3    H275800   2.893   6.417   4.081  4.0616 -0.3028 -0.8125
18129TIP3   OH275801   3.270   3.830   1.867 -0.2036 -0.0990  0.4491
18129TIP3    H175802   3.191   3.851   1.918  0.8627  0.9551  1.7386
18129TIP3    H275803   3.314   3.914   1.855  1.0473 -0.7534  0.2779
18130TIP3   OH275804   3.552   3.947  12.991  0.8078  0.4688  0.0828
18130TIP3    H175805   3.555   3.902  12.906  0.2173  2.1434 -0.8594
18130TIP3    H275806   3.502   4.027  12.974  0.8709  0.9451  1.9707
18131TIP3   OH275807   4.946   0.953   0.487 -0.1729 -0.2500 -0.1065
18131TIP3    H175808   5.014   0.910   0.540 -0.0773 -1.1276 -0.9216
18131TIP3    H275809   4.953   1.046   0.510  1.0073 -0.3873  0.1543
18132TIP3   OH275810   1.607   3.045  14.488  0.5073  0.3861 -0.1443
18132TIP3    H175811   1.561   3.042  14.572  0.1115  1.1350 -0.3218
18132TIP3    H275812   1.614   2.953  14.461  2.0113 -0.0134  1.4167
18133TIP3   OH275813   4.788   5.640   5.213  0.2867 -0.4999  0.6330
18133TIP3    H175814   4.801   5.735   5.211 -1.5579 -0.1932  1.1062
18133TIP3    H275815   4.849   5.608   5.279 -1.1405  0.7906  2.6946
18134TIP3   OH275816   3.445   5.549   4.269 -0.4061 -0.5200  0.7390
18134TIP3    H175817   3.411   5.463   4.294 -1.0657 -0.2848  0.6756
18134TIP3    H275818   3.459   5.593   4.353  1.1584 -1.1283  0.8332
18135TIP3   OH275819   4.900   0.122   1.012 -0.5740  0.2135  0.1790
18135TIP3    H175820   4.887   0.112   0.918  1.2503 -0.1434 -0.0615
18135TIP3    H275821   4.892   0.216   1.027 -0.1016  0.3601 -0.4603
18136TIP3   OH275822   3.809   0.413   1.214 -0.1465  0.3181 -0.6475
18136TIP3    H175823   3.765   0.352   1.274  1.0678 -0.6832 -0.7322
18136TIP3    H275824   3.871   0.461   1.270  0.3749 -0.0123 -0.9283
18137TIP3   OH275825   4.728   1.740   0.185  0.2940  0.3636  0.0029
18137TIP3    H175826   4.794   1.758   0.118 -1.2312 -0.5253 -1.8344
18137TIP3    H275827   4.778   1.730   0.266  2.4106 -0.3672 -1.3263
18138TIP3   OH275828   5.187   5.329   0.609  0.2586 -0.1965 -0.0259
18138TIP3    H175829   5.281   5.331   0.595  0.0540  0.6105 -1.4437
18138TIP3    H275830   5.175   5.368   0.696  1.1431  0.7988 -0.3410
18139TIP3   OH275831   1.426   2.904  12.454 -0.1256  0.2817 -0.0834
18139TIP3    H175832   1.371   2.825  12.453  0.5514 -0.2079 -1.2150
18139TIP3    H275833   1.476   2.898  12.535 -1.5864  0.6400  0.8675
18140TIP3   OH275834   2.641   0.793   1.982  0.0634  0.2943 -0.7934
18140TIP3    H175835   2.721   0.741   1.975 -1.0629 -1.3370 -2.3203
18140TIP3    H275836   2.669   0.883   1.969  2.0048  0.1131  1.4202
18141TIP3   OH275837   6.627   4.767  15.630  0.6185 -0.2149 -0.0338
18141TIP3    H175838   6.692   4.815  15.580 -1.4055 -0.6897 -3.4475
18141TIP3    H275839   6.605   4.692  15.575 -1.6116 -0.9435  1.6992
18142TIP3   OH275840   2.348   5.737  13.707  0.0334  0.5519 -0.3750
18142TIP3    H175841   2.300   5.694  13.779  1.1275  0.9991  0.6508
18142TIP3    H275842   2.358   5.668  13.641  1.6595 -0.8282  1.2000
18143TIP3   OH275843   0.286   4.177  12.248 -0.4528  0.3799 -0.3934
18143TIP3    H175844   0.281   4.261  12.201 -0.0346  1.2160  0.9915
18143TIP3    H275845   0.195   4.157  12.269 -0.6786 -0.1375 -1.7198
18144TIP3   OH275846   3.319   2.735  15.980 -0.0896  0.6306 -0.7204
18144TIP3    H175847   3.226   2.741  15.962 -0.3926  0.6702  0.7283
18144TIP3    H275848   3.328   2.657  16.035  0.6544  0.8980 -0.4442
18145TIP3   OH275849   4.316   2.413  16.919 -0.3562  0.2039 -0.0846
18145TIP3    H175850   4.361   2.444  16.997 -1.6685  1.6843  0.1379
18145TIP3    H275851   4.236   2.373  16.951 -0.7038  0.4417 -0.6320
18146TIP3   OH275852   1.334   6.261   0.341 -0.3533 -0.2285 -0.1733
18146TIP3    H175853   1.376   6.185   0.301  1.0353  1.3576 -1.9255
18146TIP3    H275854   1.391   6.283   0.414 -1.0146 -1.1023  0.6318
18147TIP3   OH275855   2.532   1.656  15.346  0.2108  0.2063  0.3484
18147TIP3    H175856   2.557   1.592  15.280  0.4484  0.7218 -0.0602
18147TIP3    H275857   2.467   1.712  15.303  0.7777  0.8895  0.3574
18148TIP3   OH275858   3.089   0.339  15.744 -0.1566  0.8579 -0.1488
18148TIP3    H175859   3.181   0.355  15.766  0.3714  0.3100 -1.8130
18148TIP3    H275860   3.092   0.284  15.666 -1.9028  1.3832 -0.6352
18149TIP3   OH275861   4.672   0.849  14.124  0.4908  0.1652 -0.0757
18149TIP3    H175862   4.627   0.925  14.161  2.6409  1.2693  0.4510
18149TIP3    H275863   4.704   0.801  14.200  2.2058  0.7252 -0.3990
18150TIP3   OH275864   5.850   0.518   0.065 -0.9793 -0.6513  0.0238
18150TIP3    H175865   5.936   0.538   0.027 -1.0921  2.7104  1.2074
18150TIP3    H275866   5.788   0.529  -0.007 -0.8189  1.8307  0.1919
18151TIP3   OH275867   2.680   6.453  11.256  0.1623 -0.0436  1.0318
18151TIP3    H175868   2.601   6.505  11.269 -0.3766 -0.7250  0.5962
18151TIP3    H275869   2.664   6.372  11.306  1.6867  0.8516  3.0958
18152TIP3   OH275870   4.507   5.919   5.145  0.1119  0.6061  0.4606
18152TIP3    H175871   4.507   5.825   5.161  0.8927  0.4133 -0.5502
18152TIP3    H275872   4.422   5.937   5.104  0.0151  0.3179  0.5346
18153TIP3   OH275873   4.607   3.513   2.688 -0.1469  0.2093 -0.4799
18153TIP3    H175874   4.540   3.467   2.739  1.9776 -1.7050  0.7518
18153TIP3    H275875   4.690   3.477   2.719  1.4160  1.2812 -3.1154
18154TIP3   OH275876   2.605   5.755   4.333 -0.2642  0.0398  0.6319
18154TIP3    H175877   2.635   5.702   4.259  0.7042  0.3871  0.7573
18154TIP3    H275878   2.510   5.740   4.336 -0.2735 -0.2408 -0.4598
18155TIP3   OH275879   3.167   4.665  13.810 -0.4303  0.5813  0.1710
18155TIP3    H175880   3.078   4.629  13.807 -1.2691  2.6067 -1.0372
18155TIP3    H275881   3.154   4.758  13.829  1.5386  0.6835  1.2828
18156TIP3   OH275882   3.817   0.923   0.524  0.1513 -0.1653  0.3704
18156TIP3    H175883   3.886   0.924   0.458  0.4406 -0.1003  0.6696
18156TIP3    H275884   3.806   1.015   0.549  2.4677 -0.4395  2.8822
18157TIP3   OH275885   6.646   5.559   0.061 -0.4772 -0.2828  0.2270
18157TIP3    H175886   6.635   5.561   0.156 -1.1696  1.2653  0.1508
18157TIP3    H275887   6.559   5.538   0.027 -0.3273 -0.4131 -0.0829
18158TIP3   OH275888   4.327   0.976   4.733  0.3231  0.4013 -0.6426
18158TIP3    H175889   4.243   0.935   4.751  0.9837 -1.2642 -1.1381
18158TIP3    H275890   4.330   0.985   4.638  0.2171  1.5867 -0.5473
18159TIP3   OH275891   6.221   4.554   6.205 -0.3467  0.6607  0.3992
18159TIP3    H175892   6.212   4.461   6.222 -0.8413  0.5288 -0.5380
18159TIP3    H275893   6.144   4.594   6.245 -0.2092  0.6597  0.6709
18160TIP3   OH275894   1.616   4.750  15.099 -0.0731 -0.4700 -0.7177
18160TIP3    H175895   1.535   4.800  15.093 -1.0615 -2.0177 -0.8576
18160TIP3    H275896   1.588   4.660  15.114  1.6134 -1.1002 -1.0685
18161TIP3   OH275897   4.122   2.719   0.247  0.2498 -0.0940  0.2955
18161TIP3    H175898   4.062   2.793   0.251  0.4224  0.0636  0.0267
18161TIP3    H275899   4.070   2.644   0.276 -0.2168 -0.0447 -0.3891
18162TIP3   OH275900   5.199   2.329  11.100  0.0446  0.2681  0.0556
18162TIP3    H175901   5.156   2.267  11.040 -1.8526  2.4986 -1.0551
18162TIP3    H275902   5.134   2.397  11.115  2.2533  2.3946  0.6455
18163TIP3   OH275903   0.007   4.426  13.951 -0.4744  0.2023  0.0836
18163TIP3    H175904  -0.052   4.447  13.878 -1.2009  0.0256  0.6148
18163TIP3    H275905  -0.018   4.487  14.021  1.2656  1.4670 -0.3116
18164TIP3   OH275906   1.842   4.574  16.646 -0.1299  0.3903 -0.9803
18164TIP3    H175907   1.767   4.562  16.704  1.5399 -2.4614  0.8561
18164TIP3    H275908   1.825   4.516  16.572  0.3545 -0.5174 -0.3992
18165TIP3   OH275909   4.657   5.709   1.665  0.4673 -0.3490 -0.4307
18165TIP3    H175910   4.589   5.642   1.675  0.1836  0.1949  1.9120
18165TIP3    H275911   4.609   5.790   1.650  0.5676  0.0067  1.0513
18166TIP3   OH275912   4.730   3.583  14.520 -0.6923  0.2545  0.0333
18166TIP3    H175913   4.644   3.564  14.482 -0.1244  0.7974 -1.5916
18166TIP3    H275914   4.773   3.641  14.456  1.2126 -0.6795  0.3982
18167TIP3   OH275915   3.720   4.910  16.469 -0.5081  0.2383  0.0344
18167TIP3    H175916   3.752   4.857  16.397  1.3431  1.4139 -0.0728
18167TIP3    H275917   3.690   4.847  16.534  0.9452 -0.9456 -0.3860
18168TIP3   OH275918   0.501   2.013   2.742  0.4681  0.0286  0.6172
18168TIP3    H175919   0.490   2.091   2.687 -0.5915 -0.1803  0.5141
18168TIP3    H275920   0.452   2.033   2.822  2.0751  0.3704  1.5681
18169TIP3   OH275921   5.277   4.129   3.789 -0.3376 -0.4937 -0.2113
18169TIP3    H175922   5.334   4.114   3.865  0.6401  1.3913 -0.5214
18169TIP3    H275923   5.332   4.178   3.728 -1.8218 -0.0002 -1.1878
18170TIP3   OH275924   4.633   2.079  16.014  0.3532  0.4806 -0.1870
18170TIP3    H175925   4.631   2.132  16.093 -1.6300 -1.4987  1.1775
18170TIP3    H275926   4.544   2.083  15.980  0.3091 -1.4534 -0.3797
18171TIP3   OH275927   2.405   2.022   2.786 -0.3660  0.2778 -0.2142
18171TIP3    H175928   2.321   1.985   2.757 -0.1517 -0.9083  0.6554
18171TIP3    H275929   2.385   2.067   2.868 -0.1504  0.0144 -0.0178
18172TIP3   OH275930   5.862   4.919   1.459 -0.6770 -0.2253  0.2004
18172TIP3    H175931   5.849   5.007   1.424 -2.4439 -0.4013  0.2968
18172TIP3    H275932   5.882   4.932   1.552 -0.8590  0.0850  0.1967
18173TIP3   OH275933   3.495   6.655   3.492 -0.3096 -0.6417 -0.3015
18173TIP3    H175934   3.498   6.740   3.535 -1.7102 -2.0269  2.7996
18173TIP3    H275935   3.573   6.609   3.524  0.3399 -0.6575 -1.8108
18174TIP3   OH275936   3.476   0.285  15.275  0.4401  0.1271  0.0636
18174TIP3    H175937   3.485   0.203  15.324 -1.0097 -0.5681 -0.7575
18174TIP3    H275938   3.467   0.257  15.184 -3.6804  0.8502  0.0630
18175TIP3   OH275939   1.207   2.466   0.652  0.1699 -0.2235  0.0498
18175TIP3    H175940   1.229   2.374   0.636 -0.0752 -0.0372 -1.5563
18175TIP3    H275941   1.270   2.494   0.718  0.4957 -1.4503  0.2872
18176TIP3   OH275942   3.897   1.562  11.778 -0.5502  0.1219  0.1075
18176TIP3    H175943   3.954   1.626  11.820  1.2591 -1.1711 -0.2690
18176TIP3    H275944   3.844   1.613  11.716  0.5845  1.2805  0.0573
18177TIP3   OH275945   5.732   2.746   4.430  0.2365  0.3893 -0.3999
18177TIP3    H175946   5.661   2.750   4.495  0.2484 -1.3653 -0.2426
18177TIP3    H275947   5.686   2.746   4.346  0.2165  2.5316 -0.4455
18178TIP3   OH275948   0.801   2.901  10.523  0.1357  0.0294  0.4286
18178TIP3    H175949   0.784   2.809  10.540 -1.6291  0.5812  1.9931
18178TIP3    H275950   0.853   2.931  10.597 -1.7836  0.9034  1.4958
18179TIP3   OH275951   4.583   2.552   5.342 -0.2113  0.2896  0.2196
18179TIP3    H175952   4.582   2.503   5.424 -1.4619  1.8592  1.1848
18179TIP3    H275953   4.668   2.531   5.303 -0.8723 -3.0038  0.3052
18180TIP3   OH275954   6.297   5.800  12.732  0.0220 -0.2593  0.3298
18180TIP3    H175955   6.355   5.785  12.806  0.2961  0.8586  0.3583
18180TIP3    H275956   6.257   5.885  12.749  2.2830  1.4971 -2.1356
18181TIP3   OH275957   6.472   3.374  15.002  0.8164 -1.2604 -0.2966
18181TIP3    H175958   6.548   3.428  15.021  0.0648 -0.2144 -0.1862
18181TIP3    H275959   6.412   3.390  15.075  0.3302 -1.7704 -0.5785
18182TIP3   OH275960   0.461   2.971   4.531  0.3695 -0.1386  0.7593
18182TIP3    H175961   0.431   3.031   4.463 -0.2627 -1.0453  0.2188
18182TIP3    H275962   0.384   2.957   4.586 -0.2891 -2.4394 -0.6060
18183TIP3   OH275963   5.498   2.430   1.705  0.1515  0.2638  0.1645
18183TIP3    H175964   5.480   2.337   1.721  1.1428 -0.0327 -0.3962
18183TIP3    H275965   5.412   2.472   1.711 -0.7510 -1.0596 -2.1478
18184TIP3   OH275966   3.583   6.320  16.038  0.1009 -0.2546  0.6081
18184TIP3    H175967   3.643   6.247  16.050 -0.2150 -0.3424  1.7272
18184TIP3    H275968   3.546   6.336  16.125 -2.2153 -0.8227 -0.1943
18185TIP3   OH275969   1.460   5.467  12.145  0.1866  0.5962  0.2759
18185TIP3    H175970   1.383   5.464  12.202 -0.4779  1.9003 -0.5081
18185TIP3    H275971   1.442   5.539  12.084  1.4314  0.0503 -0.7811
18186TIP3   OH275972   5.518   6.395   4.482 -0.0519 -0.0906  0.3717
18186TIP3    H175973   5.485   6.394   4.571  1.1326 -1.9966  0.8297
18186TIP3    H275974   5.451   6.349   4.431 -1.0603  1.5888  0.0869
18187TIP3   OH275975   2.190   6.691  13.097 -0.4442  0.0385 -0.7916
18187TIP3    H175976   2.256   6.674  13.030  0.4550  0.7626 -0.1339
18187TIP3    H275977   2.238   6.683  13.180 -1.4660 -0.6020 -0.2368
18188TIP3   OH275978   2.253   3.557  11.045  0.1094 -0.0855  0.5497
18188TIP3    H175979   2.226   3.568  11.136  0.1609  0.8898  0.4519
18188TIP3    H275980   2.297   3.639  11.022  1.2083 -0.7997  0.0203
18189TIP3   OH275981   1.594   0.989   0.279  0.5234 -0.2653  0.2143
18189TIP3    H175982   1.596   1.039   0.361  1.2246  0.6673 -0.3530
18189TIP3    H275983   1.501   0.978   0.259  0.3298  1.9142 -0.2802
18190TIP3   OH275984   0.898   0.380   4.390  0.5482  0.2612  0.2373
18190TIP3    H175985   0.944   0.400   4.308 -0.5770 -1.2233 -0.8002
18190TIP3    H275986   0.923   0.290   4.410 -0.3514  0.1100  0.7184
18191TIP3   OH275987   2.034   2.777  12.623 -0.6525 -0.4337 -0.1416
18191TIP3    H175988   2.002   2.713  12.687  0.0290  0.2186  0.8720
18191TIP3    H275989   2.128   2.781  12.637 -0.1547 -1.6922 -2.5192
18192TIP3   OH275990   6.325   6.021   4.023 -0.4205 -0.7665 -0.0572
18192TIP3    H175991   6.415   6.013   4.056  0.1074  1.2088 -0.8824
18192TIP3    H275992   6.334   6.020   3.928 -1.0391  1.2551 -0.1693
18193TIP3   OH275993   4.231   1.159  13.775  0.2514  0.3322 -0.1347
18193TIP3    H175994   4.159   1.133  13.716 -0.0807 -0.8172  0.7397
18193TIP3    H275995   4.239   1.086  13.836  1.4722  0.9249  0.4439
18194TIP3   OH275996   2.181   4.511   2.238 -0.4571  0.0383 -0.2834
18194TIP3    H175997   2.266   4.549   2.216 -1.1108  2.0842  0.5454
18194TIP3    H275998   2.119   4.553   2.179 -1.3913  1.3699  1.5386
18195TIP3   OH275999   2.119   1.471   4.500 -0.1423  0.0447  0.4781
18195TIP3    H176000   2.209   1.474   4.470  0.0873  1.0903  1.2041
18195TIP3    H276001   2.107   1.552   4.549 -0.9291 -0.8822  1.9162
18196TIP3   OH276002   2.213   4.243   4.335 -0.2872 -0.2168 -0.6216
18196TIP3    H176003   2.214   4.218   4.428  2.3096 -2.0574 -1.0347
18196TIP3    H276004   2.299   4.216   4.302  0.9470  4.8181 -2.4533
18197TIP3   OH276005   6.180   4.039  11.029 -0.2001  0.6280  0.4462
18197TIP3    H176006   6.274   4.053  11.028 -0.2402  1.0552 -1.5600
18197TIP3    H276007   6.169   3.945  11.018  0.0269  0.7988 -1.6260
18198TIP3   OH276008   3.565   1.752  11.248  0.1808 -0.0106  0.7047
18198TIP3    H176009   3.470   1.753  11.258 -0.2170 -1.2868 -2.0130
18198TIP3    H276010   3.595   1.684  11.307 -0.8669 -0.9941  0.1443
18199TIP3   OH276011   1.754   4.529   4.805 -0.4804 -0.2043 -0.7934
18199TIP3    H176012   1.739   4.613   4.848  0.5591 -0.5894  0.3911
18199TIP3    H276013   1.773   4.552   4.714 -1.2519  0.7473 -0.7309
18200TIP3   OH276014   1.358   0.567  14.230  0.0009 -0.4114 -0.1406
18200TIP3    H176015   1.394   0.546  14.144  0.4557 -2.2655  0.4507
18200TIP3    H276016   1.434   0.592  14.282 -0.1767  0.0060 -0.0821
18201TIP3   OH276017   4.903   4.930   1.312  0.1931  0.1342 -0.3306
18201TIP3    H176018   4.860   4.850   1.342 -0.6799 -0.0396 -1.9365
18201TIP3    H276019   4.834   4.996   1.312  0.1842  0.1527 -1.7828
18202TIP3   OH276020   0.237   1.465  11.052 -0.1721  0.1487 -0.1134
18202TIP3    H176021   0.142   1.470  11.049 -0.1611  0.7529  0.3487
18202TIP3    H276022   0.264   1.462  10.960 -0.5844  1.2682 -0.2867
18203TIP3   OH276023   2.112   4.904  14.500 -0.8040 -0.3704  0.4046
18203TIP3    H176024   2.085   4.965  14.568 -0.6802  1.6436 -1.2320
18203TIP3    H276025   2.030   4.876  14.459 -0.8547 -1.2352  1.0866
18204TIP3   OH276026   2.958   3.468  16.541 -0.0724  0.2728 -0.1983
18204TIP3    H176027   3.018   3.452  16.614  1.1652  1.9095 -0.7824
18204TIP3    H276028   2.942   3.562  16.545  0.6802  0.5389 -2.5058
18205TIP3   OH276029   4.314   6.538  15.754  0.2802 -0.1914  0.2052
18205TIP3    H176030   4.238   6.537  15.696 -2.8461  0.8229  3.8175
18205TIP3    H276031   4.361   6.619  15.732 -0.6653  0.0313 -1.0385
18206TIP3   OH276032   6.449   4.635   2.915  0.0262 -0.8516 -0.2735
18206TIP3    H176033   6.506   4.710   2.900  0.2546 -0.2187  2.9475
18206TIP3    H276034   6.361   4.668   2.901  0.1992 -0.3374 -0.1513
18207TIP3   OH276035   4.756   1.056  12.003  0.0036  0.1315  0.1138
18207TIP3    H176036   4.809   1.006  11.941  0.7398  0.8817  0.1264
18207TIP3    H276037   4.819   1.101  12.058 -0.6467 -0.1911  1.1452
18208TIP3   OH276038   3.556   3.095  15.844 -0.0422  0.4147 -0.0286
18208TIP3    H176039   3.476   3.068  15.891 -0.9109 -0.4677 -1.9216
18208TIP3    H276040   3.525   3.160  15.780  1.4342  3.1814  1.8506
18209TIP3   OH276041   5.555   4.256   4.764 -0.8098  0.3684  0.2089
18209TIP3    H176042   5.577   4.298   4.847  0.8680 -1.0342  0.5325
18209TIP3    H276043   5.487   4.193   4.786  2.0489 -2.5877  1.3907
18210TIP3   OH276044   0.898   5.929  15.750  0.0525 -0.2010 -0.4601
18210TIP3    H176045   0.947   6.004  15.784  0.0938 -0.7358  0.6785
18210TIP3    H276046   0.894   5.868  15.823 -0.6920 -0.9657 -1.1305
18211TIP3   OH276047   2.576   3.651   1.593  0.3228  0.2314  0.7749
18211TIP3    H176048   2.612   3.725   1.544  2.0911 -0.2430  1.3148
18211TIP3    H276049   2.575   3.579   1.529 -0.2842  0.4040  0.5840
18212TIP3   OH276050   3.741   2.177  16.306  0.1369  0.1441  0.6811
18212TIP3    H176051   3.774   2.115  16.372 -0.5366  1.0520  1.9232
18212TIP3    H276052   3.664   2.217  16.348 -1.0648 -0.1189 -1.1398
18213TIP3   OH276053   5.546   2.600  11.194 -0.1865  0.5437  0.2977
18213TIP3    H176054   5.522   2.690  11.173  1.0418  0.3880 -2.1750
18213TIP3    H276055   5.604   2.607  11.270  0.7845  2.0120 -0.5245
18214TIP3   OH276056   2.744   6.058  15.339  0.4755  0.1280  0.0259
18214TIP3    H176057   2.786   6.128  15.389  0.8415  0.4457 -0.7088
18214TIP3    H276058   2.688   6.104  15.277  1.2158 -0.2027 -0.9031
18215TIP3   OH276059   6.633   0.649  12.335 -0.2296 -0.5011  0.0279
18215TIP3    H176060   6.625   0.573  12.278 -1.7252 -2.5361  2.7021
18215TIP3    H276061   6.721   0.641  12.372  0.6967  0.7547 -1.7769
18216TIP3   OH276062   5.114   3.386   0.285  1.0224 -0.1474  0.2073
18216TIP3    H176063   5.083   3.423   0.368 -1.6478 -2.8305  0.5884
18216TIP3    H276064   5.041   3.399   0.225  2.0543 -0.2332 -1.0909
18217TIP3   OH276065   5.701   6.011  15.184 -0.3552 -0.1799  0.5678
18217TIP3    H176066   5.789   6.010  15.222 -0.0868  1.1316  0.0461
18217TIP3    H276067   5.642   6.001  15.259  0.2144 -0.4461  0.9903
18218TIP3   OH276068   0.876   6.680  16.424  0.1936  0.1547 -0.0302
18218TIP3    H176069   0.914   6.763  16.452 -1.5230  0.9348  0.0961
18218TIP3    H276070   0.852   6.693  16.332  0.4766 -0.4177 -0.1933
18219TIP3   OH276071   2.542   5.951   2.734  0.1781 -0.3898  0.1049
18219TIP3    H176072   2.607   6.016   2.705  0.1233 -0.5962 -0.5028
18219TIP3    H276073   2.458   5.995   2.720  0.1697 -0.2686  0.5223
18220TIP3   OH276074   4.556   3.459   2.004 -0.2928  0.0260  0.7699
18220TIP3    H176075   4.569   3.394   1.935  2.6016  0.0733  1.1165
18220TIP3    H276076   4.645   3.488   2.025 -1.3015  2.0630  2.5767
18221TIP3   OH276077   4.402   2.697   3.085 -0.3133 -0.6381 -0.4201
18221TIP3    H176078   4.451   2.733   3.159 -1.9808 -1.7005  1.3080
18221TIP3    H276079   4.454   2.621   3.057  0.2744 -0.3078 -0.2379
18222TIP3   OH276080   4.620   2.953   5.505  0.0866  0.3018  0.1504
18222TIP3    H176081   4.605   2.872   5.552  3.4101 -0.8114 -0.4520
18222TIP3    H276082   4.555   3.014   5.540 -1.5343 -2.1556  1.6896
18223TIP3   OH276083   1.763   6.527   4.343  0.1589  0.2514  0.1311
18223TIP3    H176084   1.751   6.503   4.435 -2.3852 -0.3738 -0.2969
18223TIP3    H276085   1.792   6.446   4.301 -0.2179  0.1087  0.1367
18224TIP3   OH276086   6.106   4.364  11.985  0.5575  0.1716 -0.0559
18224TIP3    H176087   6.050   4.441  11.991 -0.2689 -0.4860  0.9168
18224TIP3    H276088   6.112   4.331  12.075  1.4993 -0.4807 -0.3382
18225TIP3   OH276089   5.571   1.067  15.234  0.0954  0.1085 -0.4500
18225TIP3    H176090   5.554   0.983  15.192 -1.6637 -0.5614  1.4035
18225TIP3    H276091   5.655   1.056  15.277  0.3532 -0.3369 -1.0599
18226TIP3   OH276092   3.051   5.360  14.983  0.2475  0.1254 -0.1307
18226TIP3    H176093   3.102   5.294  15.031  0.0611 -0.7003 -1.0411
18226TIP3    H276094   3.117   5.422  14.951  0.5605 -0.2643 -0.2554
18227TIP3   OH276095   5.470   1.011  16.084 -0.1267 -0.4836  0.4286
18227TIP3    H176096   5.414   1.072  16.037  0.2389  0.1343  0.7918
18227TIP3    H276097   5.469   0.932  16.030 -0.3801 -0.0696 -0.1821
18228TIP3   OH276098   3.600   3.113   3.082  0.1804  0.0121  0.0845
18228TIP3    H176099   3.680   3.120   3.031 -0.1889  0.8642 -0.4095
18228TIP3    H276100   3.531   3.142   3.023 -0.2619  1.0282  1.0542
18229TIP3   OH276101   0.940   3.778  13.654 -0.0081 -0.2115 -0.2259
18229TIP3    H176102   1.018   3.829  13.631  0.0913 -0.2291  0.0670
18229TIP3    H276103   0.939   3.706  13.591 -0.0553  0.0566 -0.5361
18230TIP3   OH276104   5.382   2.776   2.631  0.5040  0.8568  0.1752
18230TIP3    H176105   5.411   2.699   2.580  2.1784  0.6857  1.2826
18230TIP3    H276106   5.388   2.747   2.722  2.3276  2.6102  0.6923
18231TIP3   OH276107   0.346   4.890   4.419 -0.0710  0.8947 -0.0466
18231TIP3    H176108   0.420   4.874   4.360  0.4282  2.0634  0.2404
18231TIP3    H276109   0.295   4.958   4.375  0.6204  2.2146  1.1031
18232TIP3   OH276110   5.421   0.176  17.207  0.0205  0.5760  0.0466
18232TIP3    H176111   5.440   0.084  17.227  0.0870  0.6391  0.2874
18232TIP3    H276112   5.384   0.211  17.289 -1.0051  0.4940 -0.3725
18233TIP3   OH276113   0.984   0.252  17.214 -0.0663 -0.5453  0.0791
18233TIP3    H176114   1.037   0.270  17.292 -1.3693  0.7212  0.7064
18233TIP3    H276115   1.038   0.284  17.141  1.5597 -2.5512  0.2922
18234TIP3   OH276116   4.233   2.110  12.148 -0.0256  0.0228 -0.4934
18234TIP3    H176117   4.148   2.155  12.147 -0.4450 -0.6675  0.9651
18234TIP3    H276118   4.214   2.025  12.186  1.0030 -0.9010 -1.9316
18235TIP3   OH276119   5.687   6.547   2.533  0.4638  0.4066 -0.4322
18235TIP3    H176120   5.736   6.465   2.542 -0.6797 -0.2747 -0.1576
18235TIP3    H276121   5.741   6.612   2.577 -0.0288 -0.8066  2.1358
18236TIP3   OH276122   3.046   2.842  12.291 -0.1744  0.2528 -0.0608
18236TIP3    H176123   3.112   2.780  12.322 -0.8800  0.0017  0.9924
18236TIP3    H276124   2.983   2.849  12.363 -0.2811  1.9715 -0.2581
18237TIP3   OH276125   5.287   0.233   2.741  0.3900 -0.1373 -0.5742
18237TIP3    H176126   5.263   0.225   2.834  0.1113  0.7722 -0.5682
18237TIP3    H276127   5.240   0.161   2.699 -1.5680  1.0011 -0.4078
18238TIP3   OH276128   3.093   3.036  14.992  0.3365 -0.1491 -0.2696
18238TIP3    H176129   3.162   3.095  14.961 -0.7236  0.4960 -1.4758
18238TIP3    H276130   3.138   2.951  15.002  1.6945  0.6353  0.7390
18239TIP3   OH276131   1.668   4.192   0.587 -0.4276  0.1390  0.5762
18239TIP3    H176132   1.647   4.188   0.494  0.5826 -0.6275  0.3688
18239TIP3    H276133   1.583   4.184   0.631 -1.0003  1.2387 -0.2673
18240TIP3   OH276134   3.541   6.418  16.983 -0.2261 -0.1761 -0.7354
18240TIP3    H176135   3.627   6.395  16.946 -0.0504 -0.3016 -0.2525
18240TIP3    H276136   3.493   6.335  16.983  0.2321 -0.4721  0.5334
18241TIP3   OH276137   4.290   1.862  11.983 -0.1980  0.0556 -0.1428
18241TIP3    H176138   4.296   1.951  12.018 -0.2125  0.1502 -0.3785
18241TIP3    H276139   4.329   1.806  12.050 -0.1613  0.2442 -0.0089
18242TIP3   OH276140   5.633   0.690   5.266  0.2548 -0.3395 -0.0225
18242TIP3    H176141   5.623   0.633   5.189 -0.7004 -1.9118  1.2002
18242TIP3    H276142   5.645   0.778   5.229 -2.2659 -0.7004 -1.9637
18243TIP3   OH276143   6.228   1.525  15.583 -0.2629 -0.4554 -0.2582
18243TIP3    H176144   6.273   1.600  15.544  0.2788  0.2388  1.5934
18243TIP3    H276145   6.197   1.557  15.668 -3.7499 -1.0881 -1.1302
18244TIP3   OH276146   3.675   2.516  12.865 -0.6646  0.6586  0.4381
18244TIP3    H176147   3.764   2.520  12.901 -1.1174 -1.9945  2.0700
18244TIP3    H276148   3.689   2.517  12.770  1.1789 -0.3041  0.6422
18245TIP3   OH276149   6.349   2.253  12.124  0.1139 -0.4655  0.9568
18245TIP3    H176150   6.396   2.183  12.079 -1.0921 -0.9863  0.4569
18245TIP3    H276151   6.410   2.282  12.192  1.7838 -0.0066 -0.6443
18246TIP3   OH276152   4.689   0.923   5.016  0.0386  0.0576  0.1153
18246TIP3    H176153   4.750   0.997   5.017 -1.4650  1.3567 -0.5752
18246TIP3    H276154   4.607   0.959   5.048 -0.0046 -2.0815  2.7129
18247TIP3   OH276155   2.877   4.204  16.229 -0.3704  0.1456 -0.0610
18247TIP3    H176156   2.945   4.147  16.264 -1.6434 -0.4582  1.5269
18247TIP3    H276157   2.853   4.261  16.302  0.3381  2.2726 -1.3884
18248TIP3   OH276158   0.720   4.018  16.788  0.0641  0.2794 -0.1480
18248TIP3    H176159   0.812   4.037  16.805  0.0740 -1.0287  1.5549
18248TIP3    H276160   0.722   3.943  16.729  0.1317 -0.3885  0.6793
18249TIP3   OH276161   4.493   3.876   6.919  0.4976  0.0536  0.2139
18249TIP3    H176162   4.560   3.890   6.853  0.3898  0.0643  0.1059
18249TIP3    H276163   4.473   3.963   6.953 -1.0987  0.3692 -1.3661
18250TIP3   OH276164   2.871   3.967  12.060  1.3637  0.5061  0.7797
18250TIP3    H176165   2.838   4.038  12.115  3.5543  1.4390  0.9827
18250TIP3    H276166   2.944   4.005  12.012  2.1224 -1.4085  0.3083
18251TIP3   OH276167   2.055   2.047  15.412  0.5887 -0.2345  0.3239
18251TIP3    H176168   2.086   2.085  15.494 -0.6644 -1.4567  1.4185
18251TIP3    H276169   2.039   2.122  15.354 -2.2002  1.0388  2.5226
18252TIP3   OH276170   5.225   3.158  12.319 -0.3670  0.2505 -0.0219
18252TIP3    H176171   5.304   3.113  12.350 -0.9413 -0.9573 -0.2462
18252TIP3    H276172   5.241   3.173  12.226 -0.4645 -0.1442 -0.1042
18253TIP3   OH276173   0.018   5.344   5.364 -0.6125  0.2050  0.1188
18253TIP3    H176174  -0.062   5.326   5.314 -0.0317  0.4401 -0.9161
18253TIP3    H276175   0.074   5.391   5.303  1.0951 -1.6353  0.1946
18254TIP3   OH276176   3.139   6.524   3.695  0.2459 -0.4080 -0.3160
18254TIP3    H176177   3.207   6.456   3.686  1.3850  0.4487  1.2610
18254TIP3    H276178   3.147   6.553   3.786 -0.7674  1.2681 -0.7243
18255TIP3   OH276179   5.709   0.360  15.697 -0.5491  0.6625 -0.8345
18255TIP3    H176180   5.742   0.287  15.750  1.5236  0.5704 -2.1471
18255TIP3    H276181   5.637   0.322  15.647 -0.1370 -0.2336 -0.7752
18256TIP3   OH276182   3.402   1.024   1.960  0.2022  0.1084 -0.5806
18256TIP3    H176183   3.441   1.111   1.961 -0.5147  0.4771  1.6825
18256TIP3    H276184   3.450   0.977   1.891  3.9834  0.8197  1.2794
18257TIP3   OH276185   5.809   0.174  11.257  0.0483 -0.2710 -0.3204
18257TIP3    H176186   5.773   0.086  11.245  1.6148 -0.8448 -1.0342
18257TIP3    H276187   5.778   0.200  11.344 -2.4187 -0.5097 -1.0418
18258TIP3   OH276188   1.111   6.719  16.149 -0.2845 -0.6139  0.2190
18258TIP3    H176189   1.097   6.801  16.102 -0.4579  0.5918  2.2923
18258TIP3    H276190   1.024   6.682  16.158 -0.4725  0.0070  1.0492
18259TIP3   OH276191   2.091   0.006  15.365  0.0660  0.1949 -0.1976
18259TIP3    H176192   2.006   0.047  15.380  0.3584  0.5567  0.4791
18259TIP3    H276193   2.107   0.017  15.271  0.4175  2.1893  0.0624
18260TIP3   OH276194   4.507   3.621  11.502 -0.3376  0.0454  0.0104
18260TIP3    H176195   4.575   3.591  11.442  0.7963  0.6347  0.9562
18260TIP3    H276196   4.474   3.542  11.543  0.1240 -0.2088 -0.1029
18261TIP3   OH276197   5.894   1.627   1.189 -0.1115 -0.1811 -0.1976
18261TIP3    H176198   5.842   1.605   1.266  0.2070 -0.5960 -0.0991
18261TIP3    H276199   5.970   1.569   1.193  0.8770  1.0915  0.1904
18262TIP3   OH276200   2.915   5.478   5.362  0.5189 -0.1292  0.1246
18262TIP3    H176201   2.840   5.536   5.363 -0.7692 -1.4474  4.6398
18262TIP3    H276202   2.982   5.524   5.413  0.8018 -1.0686  0.6312
18263TIP3   OH276203   3.792   3.337   6.237 -0.1666 -0.1218 -0.3162
18263TIP3    H176204   3.833   3.279   6.301 -1.4862 -0.3099  0.3965
18263TIP3    H276205   3.814   3.425   6.267  0.1579 -0.2223 -0.2520
18264TIP3   OH276206   1.611   3.121   1.917  0.3106  0.2627 -0.8432
18264TIP3    H176207   1.665   3.196   1.941  0.8180  0.0126 -1.2031
18264TIP3    H276208   1.528   3.136   1.964  0.8539  0.3969  0.1111
18265TIP3   OH276209   3.838   3.377  15.951  0.1008 -0.5741 -0.3567
18265TIP3    H176210   3.773   3.377  15.881 -0.3712  0.5985  0.0535
18265TIP3    H276211   3.921   3.397  15.907 -0.1134 -0.3278 -0.6519
18266TIP3   OH276212   4.140   4.954   2.968 -0.0152 -0.7164 -0.1688
18266TIP3    H176213   4.103   5.034   2.931  2.6969  1.2101  0.9061
18266TIP3    H276214   4.134   4.966   3.062  2.7129 -0.4863  0.0605
18267TIP3   OH276215   5.845   5.638   0.142  0.2877 -0.4771  0.2132
18267TIP3    H176216   5.772   5.632   0.080  1.0283  0.4823 -0.7944
18267TIP3    H276217   5.875   5.548   0.153  0.3394 -0.6291 -1.0744
18268TIP3   OH276218   5.258   4.895  11.363  0.2311  0.0465  0.2076
18268TIP3    H176219   5.314   4.849  11.301  1.0985  1.4172 -0.0579
18268TIP3    H276220   5.257   4.838  11.441  0.0556 -1.1212 -0.6185
18269TIP3   OH276221   3.877   2.558   2.526 -0.0099 -0.0807  0.3083
18269TIP3    H176222   3.846   2.513   2.605 -0.6671 -0.1296  0.0257
18269TIP3    H276223   3.907   2.643   2.557  0.1383 -0.2644  0.6733
18270TIP3   OH276224   3.073   2.495  16.023  0.1766  0.2259  0.7653
18270TIP3    H176225   3.039   2.520  16.109 -1.1317 -0.9148  0.6217
18270TIP3    H276226   2.994   2.485  15.969  0.8165 -1.1842  0.0363
18271TIP3   OH276227   6.432   6.672   5.918 -0.1147  0.0593  1.1496
18271TIP3    H176228   6.368   6.719   5.865  0.8130  0.4567  0.3365
18271TIP3    H276229   6.381   6.629   5.987 -1.0159  2.1884  1.8824
18272TIP3   OH276230   3.377   2.960   2.707  0.2139  0.6126 -0.0384
18272TIP3    H176231   3.379   2.997   2.619 -1.0262 -1.2373 -0.9074
18272TIP3    H276232   3.291   2.984   2.741 -0.4073 -0.9343 -0.4253
18273TIP3   OH276233   4.567   2.495   2.479 -0.3021  0.5748 -0.1770
18273TIP3    H176234   4.632   2.514   2.547  1.7964 -1.0401 -1.5880
18273TIP3    H276235   4.608   2.526   2.398 -1.5091 -0.0522 -1.0520
18274TIP3   OH276236   3.542   1.958  12.012  0.5611  0.5770  0.0377
18274TIP3    H176237   3.505   2.033  12.058 -0.8636  0.3782 -0.7314
18274TIP3    H276238   3.634   1.956  12.040  1.0518  3.4501 -0.9377
18275TIP3   OH276239   0.054   0.083   2.062  0.6001  0.2379  0.0917
18275TIP3    H176240   0.016   0.170   2.046  0.9545  0.4186  0.2252
18275TIP3    H276241   0.003   0.047   2.135  0.4199  0.3136  0.0029
18276TIP3   OH276242   2.812   5.070  16.690  0.4206 -0.1227  0.4261
18276TIP3    H176243   2.765   5.144  16.729 -0.1900 -0.5993  0.6129
18276TIP3    H276244   2.903   5.098  16.687  0.1436  0.7776  0.1596
18277TIP3   OH276245   3.601   1.212  12.233 -0.1700 -0.2259 -0.1582
18277TIP3    H176246   3.695   1.206  12.216 -0.0213  0.7239  0.2058
18277TIP3    H276247   3.594   1.278  12.303 -1.1163 -0.1216 -0.3331
18278TIP3   OH276248   3.055   2.460   2.027  0.2634 -0.2993  0.8165
18278TIP3    H176249   3.083   2.539   1.982 -1.0715  0.9453  2.0516
18278TIP3    H276250   2.992   2.419   1.968  1.4942 -0.8644 -0.1419
18279TIP3   OH276251   2.444   1.452   1.053  0.3165  0.0008  0.0710
18279TIP3    H176252   2.348   1.462   1.052  0.4447  1.6780 -1.7957
18279TIP3    H276253   2.473   1.513   1.120  0.0656 -1.0741  1.1887
18280TIP3   OH276254   3.559   3.108  14.579  0.1430  0.7511  0.2992
18280TIP3    H176255   3.620   3.038  14.603 -0.9709 -0.3834 -0.1099
18280TIP3    H276256   3.562   3.168  14.654  0.6050 -0.0713  0.9663
18281TIP3   OH276257   1.992   2.959   1.176  0.2449 -0.2651  0.0440
18281TIP3    H176258   2.081   2.937   1.202 -0.4564 -0.6108  2.3507
18281TIP3    H276259   1.937   2.902   1.230 -1.4167  1.5489  0.3505
18282TIP3   OH276260   2.208   1.173   6.143  0.3323 -0.5084  0.0884
18282TIP3    H176261   2.189   1.094   6.193  1.1011 -0.0846  1.0761
18282TIP3    H276262   2.226   1.240   6.209 -0.4504  0.5427 -0.7222
18283TIP3   OH276263   2.687   4.741   2.831  0.1424  0.3866 -0.6187
18283TIP3    H176264   2.617   4.806   2.817  0.6306  0.9723 -0.4065
18283TIP3    H276265   2.714   4.716   2.743  0.1074  0.6539 -0.7082
18284TIP3   OH276266   2.422   0.261  14.483  0.2836 -0.0339  0.1235
18284TIP3    H176267   2.432   0.199  14.410 -2.1448  1.8244 -1.9567
18284TIP3    H276268   2.481   0.333  14.461  0.0742  0.2197  0.3888
18285TIP3   OH276269   6.375   0.300   4.739 -0.3144  0.6642  0.2065
18285TIP3    H176270   6.353   0.207   4.728  1.8544  0.2409 -1.3156
18285TIP3    H276271   6.311   0.332   4.802  0.2167 -2.4069  2.5760
18286TIP3   OH276272   6.344   1.880  15.960 -0.1490  0.1562 -0.0548
18286TIP3    H176273   6.390   1.866  15.877 -0.9276 -0.5133 -0.3929
18286TIP3    H276274   6.361   1.801  16.011 -0.5103  0.1147  0.0079
18287TIP3   OH276275   1.785   3.513   4.502  0.7022  0.1320 -0.0997
18287TIP3    H176276   1.721   3.458   4.458  0.2398  0.9393 -0.4586
18287TIP3    H276277   1.740   3.596   4.516  1.9341  1.0296 -1.1679
18288TIP3   OH276278   1.769   0.058   0.142 -0.2275 -0.1532 -0.0204
18288TIP3    H176279   1.744   0.149   0.161  0.3707 -0.3484  1.7983
18288TIP3    H276280   1.825   0.032   0.215 -0.0362 -1.8640 -0.7317
18289TIP3   OH276281   0.633   4.401   3.951  0.6290 -0.2792  0.5460
18289TIP3    H176282   0.707   4.340   3.955  0.5805 -0.3168  0.9680
18289TIP3    H276283   0.672   4.485   3.927  1.0059  0.0030  2.0542
18290TIP3   OH276284   1.091   4.049  13.876 -0.4799 -0.3761  0.1333
18290TIP3    H176285   1.161   4.083  13.931  0.9799  0.1050 -1.9077
18290TIP3    H276286   1.118   3.959  13.855 -2.2193 -1.4401  2.0481
18291TIP3   OH276287   4.390   2.878   3.550 -0.2302  0.0527 -0.1804
18291TIP3    H176288   4.470   2.889   3.601 -0.7470  1.1373  0.4306
18291TIP3    H276289   4.397   2.943   3.480  0.2192 -1.0486 -1.1921
18292TIP3   OH276290   0.702   6.225   3.158  0.5550 -0.3469  0.2532
18292TIP3    H176291   0.790   6.206   3.126  0.8156 -0.2219  0.8999
18292TIP3    H276292   0.710   6.226   3.253  0.2978  1.7784  0.2921
18293TIP3   OH276293   1.204   6.505  13.322  0.1813  0.2227 -0.5812
18293TIP3    H176294   1.117   6.501  13.362  1.4270 -1.2032  2.2832
18293TIP3    H276295   1.236   6.592  13.344  0.5328 -0.2566  0.8657
18294TIP3   OH276296   5.824   4.218  12.069  0.0339 -0.3976  0.0683
18294TIP3    H176297   5.907   4.197  12.026  1.4240  1.7564  1.4478
18294TIP3    H276298   5.762   4.229  11.997  1.3707 -0.4029 -1.1419
18295TIP3   OH276299   2.384   4.897  14.707  0.1938  0.0939  0.5151
18295TIP3    H176300   2.471   4.863  14.730  0.5824  1.9800  2.1477
18295TIP3    H276301   2.324   4.846  14.760  0.4105 -0.3839  0.3107
18296TIP3   OH276302   0.743   5.083  17.119  0.3530 -0.1131 -0.6241
18296TIP3    H176303   0.759   5.177  17.113 -0.1670  0.1159  1.0746
18296TIP3    H276304   0.825   5.043  17.091  1.7657  0.9195  1.7632
18297TIP3   OH276305   4.968   5.327   1.516 -0.3476 -0.5174  0.5714
18297TIP3    H176306   5.063   5.328   1.524 -0.2395  0.7168 -0.5968
18297TIP3    H276307   4.937   5.306   1.605  0.9933 -0.7080  1.0139
18298TIP3   OH276308   3.946   6.221  11.884  0.5190  0.7143  0.1888
18298TIP3    H176309   3.996   6.144  11.858 -0.8219  0.4311 -1.7207
18298TIP3    H276310   3.955   6.282  11.811 -0.8665  1.1629  0.3657
18299TIP3   OH276311   5.646   5.761  16.700 -0.3779  0.0790  0.3076
18299TIP3    H176312   5.726   5.709  16.691 -0.4762  0.1612 -1.4902
18299TIP3    H276313   5.586   5.706  16.751  0.0191 -0.9918 -0.3565
18300TIP3   OH276314   6.052   5.808   1.374  0.1819  0.0299 -1.1097
18300TIP3    H176315   5.958   5.796   1.357  0.3919 -0.3456 -2.0834
18300TIP3    H276316   6.076   5.885   1.321 -0.0848  1.7389  1.1102
18301TIP3   OH276317   5.054   0.232   0.064  0.5868  0.0335  0.2355
18301TIP3    H176318   5.133   0.228   0.118  0.4923 -0.0476  0.3687
18301TIP3    H276319   4.982   0.237   0.128  0.5279  0.8571  0.1124
18302TIP3   OH276320   3.030   6.043   0.610 -0.0587  0.8554 -0.0120
18302TIP3    H176321   3.124   6.062   0.615  0.5280 -1.6550  0.0357
18302TIP3    H276322   3.026   5.947   0.603 -2.5979  0.9808 -1.0661
18303TIP3   OH276323   1.273   3.718  14.991 -0.0817  0.0789  0.8021
18303TIP3    H176324   1.335   3.753  14.927 -0.2281  0.9411  1.1254
18303TIP3    H276325   1.252   3.630  14.958 -0.5321  0.6893 -0.5891
18304TIP3   OH276326   3.132   3.032   4.643 -0.3770 -0.2493  0.0988
18304TIP3    H176327   3.212   3.015   4.593  0.9643 -1.1486  2.3658
18304TIP3    H276328   3.118   3.126   4.637 -0.3462 -0.3378 -1.9760
18305TIP3   OH276329   0.370   5.601  12.985  0.2341  0.6570  0.2913
18305TIP3    H176330   0.290   5.630  12.942  0.5445 -0.9136 -1.4616
18305TIP3    H276331   0.438   5.661  12.953  0.1015  0.7963  0.2707
18306TIP3   OH276332   0.589   4.850   2.149  0.5052  0.4366 -0.4460
18306TIP3    H176333   0.610   4.762   2.118 -1.0753  0.3195 -1.3229
18306TIP3    H276334   0.522   4.836   2.216 -0.7016  0.9951 -1.4924
18307TIP3   OH276335   1.213   3.173   2.441 -0.4584  0.0954  0.1071
18307TIP3    H176336   1.171   3.130   2.515 -2.1161  2.0584  0.3810
18307TIP3    H276337   1.159   3.150   2.366  0.4636 -0.8041 -0.3098
18308TIP3   OH276338   1.276   1.788   2.321 -0.4873  0.3657 -0.7173
18308TIP3    H176339   1.337   1.862   2.322 -0.1594  0.0929  0.5469
18308TIP3    H276340   1.209   1.811   2.385 -2.6334  1.3639 -3.1333
18309TIP3   OH276341   1.281   2.166  12.922  0.3100 -0.0685  0.3180
18309TIP3    H176342   1.347   2.195  12.984  0.2951 -0.3844  0.4870
18309TIP3    H276343   1.218   2.116  12.975 -0.4946  0.9011  0.2964
18310TIP3   OH276344   5.383   4.885   3.188 -0.0376 -0.6429 -0.0447
18310TIP3    H176345   5.475   4.863   3.176  0.0734  0.2722 -1.0561
18310TIP3    H276346   5.362   4.941   3.113 -0.5290  1.9120  1.8830
18311TIP3   OH276347   2.299   4.360   5.734 -0.4561  0.3868  0.1443
18311TIP3    H176348   2.230   4.323   5.679  1.3285 -0.6457 -1.5464
18311TIP3    H276349   2.379   4.348   5.683  0.6726  4.2394  0.6537
18312TIP3   OH276350   6.643   0.024  14.623 -0.4043  0.5068 -0.3942
18312TIP3    H176351   6.556  -0.007  14.649 -0.6669  0.5504 -1.1871
18312TIP3    H276352   6.693   0.026  14.704 -0.8772 -0.4033 -0.0645
18313TIP3   OH276353   2.722   3.840   2.704  0.3295 -0.0593  0.2573
18313TIP3    H176354   2.673   3.796   2.774 -0.3270  1.4432  0.7801
18313TIP3    H276355   2.668   3.829   2.626 -0.6345  1.1170  0.7173
18314TIP3   OH276356   1.925   5.419   0.252  0.5115  0.0874 -0.4114
18314TIP3    H176357   1.929   5.335   0.206  3.3490 -0.4133  0.5562
18314TIP3    H276358   1.853   5.410   0.313  0.7087 -1.6363 -0.3915
18315TIP3   OH276359   1.675   0.712  13.312  0.1232 -0.4819  0.2624
18315TIP3    H176360   1.715   0.651  13.374 -1.3683 -1.7241  0.0581
18315TIP3    H276361   1.699   0.677  13.226 -0.9896 -0.9907  0.1418
18316TIP3   OH276362   3.327   6.195  14.651  0.0561 -0.0380  0.8653
18316TIP3    H176363   3.275   6.204  14.572  0.9360 -1.7252  0.0569
18316TIP3    H276364   3.379   6.276  14.654 -0.3648  0.2741  0.0176
18317TIP3   OH276365   3.481   6.406  12.259 -0.6440 -0.5231  0.2519
18317TIP3    H176366   3.411   6.432  12.198  1.1333 -0.5628 -1.9480
18317TIP3    H276367   3.495   6.314  12.239  0.8227 -0.2172 -0.2343
18318TIP3   OH276368   4.983   2.692   1.593  0.3013 -0.3796 -0.1286
18318TIP3    H176369   4.961   2.599   1.601  1.7022 -0.6104  1.6850
18318TIP3    H276370   4.998   2.721   1.683  1.5153  1.1876 -0.7913
18319TIP3   OH276371   2.627   6.546   1.588 -0.2945  0.1373  0.4049
18319TIP3    H176372   2.697   6.480   1.585 -0.5565 -0.1120 -1.1833
18319TIP3    H276373   2.667   6.621   1.631  0.0928 -0.9456  2.0068
18320TIP3   OH276374   1.072   2.838  12.670  0.4568 -0.4863  0.6156
18320TIP3    H176375   1.120   2.919  12.656 -0.2436 -0.1933 -0.1529
18320TIP3    H276376   0.990   2.850  12.623 -1.0677 -0.3593  3.1582
18321TIP3   OH276377   0.242   0.778  13.359 -0.6519  0.4761  0.6146
18321TIP3    H176378   0.322   0.830  13.364 -0.7702  0.6851  0.3737
18321TIP3    H276379   0.218   0.762  13.451 -1.1554  1.7000  0.7244
18322TIP3   OH276380   5.887   3.509  13.243  0.8040 -0.2035  0.1767
18322TIP3    H176381   5.886   3.594  13.286  0.6701 -0.5764  0.9134
18322TIP3    H276382   5.894   3.446  13.314  0.4966 -0.8302 -0.3399
18323TIP3   OH276383   4.155   0.017   5.252 -0.4785  0.5695 -0.0247
18323TIP3    H176384   4.215   0.001   5.178  1.0024 -1.6618  1.5284
18323TIP3    H276385   4.198   0.087   5.302 -0.0495  0.1964  0.1413
18324TIP3   OH276386   2.408   2.073  15.981  0.4139  0.0570  0.7486
18324TIP3    H176387   2.352   2.079  15.903  0.7351 -0.8596  0.4347
18324TIP3    H276388   2.468   2.146  15.974 -2.1924  2.5596  2.2993
18325TIP3   OH276389   3.124   0.689  16.250 -0.1549  0.7711  0.2490
18325TIP3    H176390   3.079   0.709  16.168 -0.1014 -1.0348 -0.2564
18325TIP3    H276391   3.082   0.608  16.281  2.4858 -0.8521 -0.0938
18326TIP3   OH276392   1.823   2.710   4.489  0.4544 -0.5604 -0.0852
18326TIP3    H176393   1.866   2.748   4.412 -0.1311 -0.6874 -0.4813
18326TIP3    H276394   1.806   2.620   4.465 -0.3535 -0.4168 -0.0717
18327TIP3   OH276395   3.470   4.021  16.458  0.4329 -0.0665 -0.3929
18327TIP3    H176396   3.548   4.024  16.513  0.7552  2.4737 -0.8535
18327TIP3    H276397   3.504   4.024  16.369 -0.1269  2.1451 -0.5909
18328TIP3   OH276398   0.061   1.610   5.714  0.2074 -0.0457 -0.6921
18328TIP3    H176399   0.014   1.526   5.717 -0.3995  0.3111  0.2768
18328TIP3    H276400  -0.008   1.676   5.718  0.7412  0.4958 -0.2281
18329TIP3   OH276401   5.438   5.369   5.124 -0.0111 -0.8329 -0.0420
18329TIP3    H176402   5.443   5.373   5.220 -1.1778 -0.5498  0.0243
18329TIP3    H276403   5.358   5.319   5.107 -0.2421 -0.1929 -0.8705
18330TIP3   OH276404   6.710   4.203  14.314 -0.0982  0.4804 -0.6066
18330TIP3    H176405   6.638   4.180  14.255 -0.9509  1.7203 -0.1116
18330TIP3    H276406   6.700   4.298  14.327  0.3504  0.3137  1.1402
18331TIP3   OH276407   6.168   5.851   2.285  0.0977  0.4036  0.2971
18331TIP3    H176408   6.191   5.942   2.269  2.1765 -0.4545 -2.2069
18331TIP3    H276409   6.098   5.855   2.351  1.6975  3.6292  1.9950
18332TIP3   OH276410   3.996   5.360   0.686 -0.5255 -0.2203 -0.7746
18332TIP3    H176411   3.975   5.325   0.773 -0.0693 -0.1647 -0.6339
18332TIP3    H276412   3.913   5.393   0.652 -1.1033 -1.9807 -1.1795
18333TIP3   OH276413   2.376   1.447   0.096  0.6403  0.4126  0.1943
18333TIP3    H176414   2.429   1.376   0.060  0.0213  0.2725 -0.4576
18333TIP3    H276415   2.295   1.445   0.045 -0.3034  0.1671  1.6381
18334TIP3   OH276416   6.119   1.116   1.270 -0.2384  0.1011  0.2168
18334TIP3    H176417   6.101   1.194   1.323  0.1532  0.4971 -0.2239
18334TIP3    H276418   6.033   1.077   1.255 -0.8401  2.0749 -2.0388
18335TIP3   OH276419   5.441   3.416   3.400 -0.3743 -0.0645  0.0418
18335TIP3    H176420   5.347   3.406   3.387 -0.1883 -0.8146 -0.8067
18335TIP3    H276421   5.470   3.331   3.434 -0.1195  0.4171  1.0695
18336TIP3   OH276422   0.200   3.005   2.579 -0.0388 -0.1077  0.0464
18336TIP3    H176423   0.256   3.083   2.586 -1.4858  1.0101 -0.4786
18336TIP3    H276424   0.262   2.934   2.561  1.7092  0.2916  3.6035
18337TIP3   OH276425   5.012   5.797   1.719 -0.1796 -0.5155  0.1764
18337TIP3    H176426   4.946   5.835   1.660 -0.2681 -0.0504  0.5746
18337TIP3    H276427   4.975   5.713   1.745 -0.3550 -0.5129 -0.0581
18338TIP3   OH276428   3.273   4.990  13.941  0.2636 -0.9813 -0.5447
18338TIP3    H176429   3.257   5.007  14.034  0.1799  0.8575 -0.8648
18338TIP3    H276430   3.187   4.965  13.906  0.1856 -1.1417 -0.2407
18339TIP3   OH276431   2.592   0.113  16.662  0.4919 -0.4298 -0.2382
18339TIP3    H176432   2.668   0.086  16.713 -0.1854  0.0099  1.0582
18339TIP3    H276433   2.521   0.056  16.693  0.0794 -0.1931 -0.7315
18340TIP3   OH276434   5.246   4.675   4.526 -0.3490  0.7938  0.5283
18340TIP3    H176435   5.173   4.636   4.478 -0.8135  1.2017  0.8921
18340TIP3    H276436   5.304   4.602   4.545 -0.7812  0.4271  0.4469
18341TIP3   OH276437   1.082   4.372  13.970  0.4307  0.4869  0.2530
18341TIP3    H176438   1.121   4.304  14.025  0.0517 -0.4047 -0.5619
18341TIP3    H276439   1.116   4.454  14.006  1.5134 -0.1687  0.7574
18342TIP3   OH276440   5.001   2.459   3.142 -0.4142 -0.5843  0.2041
18342TIP3    H176441   5.093   2.481   3.150 -0.5755  1.0588 -1.6837
18342TIP3    H276442   4.997   2.392   3.074 -0.7729  1.4553 -1.9006
18343TIP3   OH276443   3.985   2.149   1.598  0.4704  0.2837 -0.2897
18343TIP3    H176444   3.915   2.174   1.658  1.2587  3.2874 -0.4518
18343TIP3    H276445   3.941   2.098   1.529 -0.9885 -0.4615  1.1232
18344TIP3   OH276446   5.806   0.597  10.503 -0.6280 -0.5186  0.6439
18344TIP3    H176447   5.842   0.553  10.580  0.4947 -0.2822  0.2700
18344TIP3    H276448   5.874   0.588  10.436 -1.6219 -0.8123 -0.3612
18345TIP3   OH276449   3.632   0.843  16.410  0.3230 -0.2774  0.3948
18345TIP3    H176450   3.566   0.903  16.376  2.0769  0.4511 -1.9904
18345TIP3    H276451   3.635   0.772  16.346  1.5590 -0.4965  0.6725
18346TIP3   OH276452   4.609   3.058   3.333  0.3990 -0.9369  1.2408
18346TIP3    H176453   4.697   3.075   3.298 -0.4257  0.6114 -0.2216
18346TIP3    H276454   4.604   2.963   3.341  1.7043 -1.1439 -0.0397
18347TIP3   OH276455   0.234   5.054   0.133 -0.3218  0.1489  0.1584
18347TIP3    H176456   0.215   5.047   0.039 -2.0115 -1.5856  0.5669
18347TIP3    H276457   0.152   5.084   0.171  0.3735  0.9107  1.0971
18348TIP3   OH276458   4.428   1.425  11.341 -0.1073  0.3131  0.0095
18348TIP3    H176459   4.453   1.336  11.365 -1.9602  0.0892  1.3420
18348TIP3    H276460   4.391   1.462  11.422 -1.1211  1.6162 -1.0040
18349TIP3   OH276461   4.843   3.488  15.481  0.1942  0.0546 -0.1475
18349TIP3    H176462   4.853   3.438  15.562  2.0168  1.8761  0.8395
18349TIP3    H276463   4.750   3.479  15.459 -0.2058 -1.0284  1.7719
18350TIP3   OH276464   3.840   4.577   0.452  0.2520 -0.1943 -0.4302
18350TIP3    H176465   3.793   4.587   0.534  0.2511 -0.0304 -0.4519
18350TIP3    H276466   3.810   4.650   0.398  1.3964  0.5915 -0.0374
18351TIP3   OH276467   0.456   1.997   0.510  0.6218  0.6718 -0.0405
18351TIP3    H176468   0.393   2.069   0.498  1.0574  1.3310  1.3718
18351TIP3    H276469   0.479   2.001   0.603 -0.0227 -1.8761  0.3033
18352TIP3   OH276470   3.621   5.381   2.290 -0.0289  0.1456  0.0834
18352TIP3    H176471   3.698   5.405   2.238  0.9484 -2.7060  0.0501
18352TIP3    H276472   3.546   5.403   2.234  0.8775  0.3177 -1.0888
18353TIP3   OH276473   3.419   2.036  13.404 -0.3039  0.2234  0.5699
18353TIP3    H176474   3.420   2.132  13.409 -1.9222  0.2759  0.5029
18353TIP3    H276475   3.409   2.007  13.494  1.1187  0.0658  0.6933
18354TIP3   OH276476   1.968   1.621   3.822  0.2726 -0.0203 -0.3544
18354TIP3    H176477   1.950   1.714   3.832 -1.4857 -0.0201 -2.7737
18354TIP3    H276478   1.912   1.578   3.887 -0.1764  0.5182 -0.3850
18355TIP3   OH276479   6.647   6.096  11.091  0.0971  0.8259 -0.0566
18355TIP3    H176480   6.598   6.103  11.173 -0.9235 -0.8117 -0.4913
18355TIP3    H276481   6.691   6.011  11.097 -0.0432  0.6635 -1.2399
18356TIP3   OH276482   2.358   1.462  12.662 -0.4066 -0.6627 -0.2823
18356TIP3    H176483   2.434   1.407  12.682  0.4096  1.0645  1.8856
18356TIP3    H276484   2.382   1.509  12.582 -0.3239 -1.9958 -1.0669
18357TIP3   OH276485   5.080   3.254  14.564 -0.3264 -0.1926 -0.5473
18357TIP3    H176486   5.008   3.308  14.597 -1.8348 -1.5986 -1.3498
18357TIP3    H276487   5.098   3.193  14.635 -1.8652 -1.6081 -1.3059
18358TIP3   OH276488   0.458   4.077   5.549 -0.4483  0.5724  0.6161
18358TIP3    H176489   0.527   4.142   5.539  0.7601 -0.4937  1.5474
18358TIP3    H276490   0.378   4.122   5.524  0.7602  1.3785 -2.1625
18359TIP3   OH276491   0.834   4.296  17.004 -0.5602 -0.5180 -0.3053
18359TIP3    H176492   0.920   4.314  17.043 -0.0160 -2.6463 -0.3744
18359TIP3    H276493   0.847   4.309  16.910 -0.7530  0.6158 -0.1911
18360TIP3   OH276494   6.499   4.966  12.890  0.1776  0.2847  0.1405
18360TIP3    H176495   6.462   4.987  12.804 -1.6422 -0.1856  0.7598
18360TIP3    H276496   6.511   4.871  12.888 -0.8331  0.1366  0.7474
18361TIP3   OH276497   5.071   4.156  14.380  0.1239 -0.0773  0.2489
18361TIP3    H176498   5.003   4.153  14.447 -0.7201 -1.1024 -0.6143
18361TIP3    H276499   5.075   4.067  14.346  1.1171  0.2342 -0.5000
18362TIP3   OH276500   3.787   1.834   2.341 -0.0990  0.1332 -0.6708
18362TIP3    H176501   3.811   1.868   2.255  0.2776 -0.4704 -0.8100
18362TIP3    H276502   3.785   1.911   2.398  0.7808  0.3836 -0.9662
18363TIP3   OH276503   4.382   6.683   6.232 -0.0130 -0.8248 -0.3822
18363TIP3    H176504   4.330   6.667   6.311 -0.6884  0.7169 -0.4712
18363TIP3    H276505   4.427   6.766   6.250  1.0830 -1.2579 -1.0049
18364TIP3   OH276506   5.304   3.055   1.976 -0.7723  0.1803 -0.4624
18364TIP3    H176507   5.293   3.150   1.989 -0.9359  0.0344  0.5662
18364TIP3    H276508   5.319   3.046   1.882  1.2253  1.4148 -0.3170
18365TIP3   OH276509   0.614   3.978   0.006  0.2189  0.2667 -0.2692
18365TIP3    H176510   0.648   3.960   0.093 -0.6723 -0.3067 -0.0170
18365TIP3    H276511   0.691   3.999  -0.047  0.6765  1.5626  0.8654
18366TIP3   OH276512   4.706   1.668   4.372 -0.8972 -0.1223  0.3234
18366TIP3    H176513   4.663   1.725   4.437 -0.2265 -0.2333  0.8743
18366TIP3    H276514   4.720   1.725   4.296  2.0244  1.2670  1.7225
18367TIP3   OH276515   2.760   3.532  11.641  0.4235  0.2189  0.1172
18367TIP3    H176516   2.737   3.622  11.664  1.1439  0.8381 -1.3957
18367TIP3    H276517   2.782   3.491  11.724 -0.1770  1.3634  0.8717
18368TIP3   OH276518   4.347   2.641  14.418 -0.0147 -0.7149 -0.1271
18368TIP3    H176519   4.385   2.603  14.497 -1.0715  1.2350  1.4051
18368TIP3    H276520   4.275   2.695  14.450  0.1562  0.9407 -2.3447
18369TIP3   OH276521   2.799   5.647  15.096  0.4400  0.1010 -0.0166
18369TIP3    H176522   2.792   5.576  15.031 -1.5415 -0.8976  1.2041
18369TIP3    H276523   2.795   5.602  15.180 -0.3419  1.6387  0.7876
18370TIP3   OH276524   6.723   2.389  13.490  0.1707 -0.2032  0.1842
18370TIP3    H176525   6.710   2.296  13.473 -1.0464 -0.3427  1.6417
18370TIP3    H276526   6.780   2.419  13.419 -0.5470 -1.7478 -1.1160
18371TIP3   OH276527   3.074   3.427  11.242 -0.3580  0.0030  0.2290
18371TIP3    H176528   3.057   3.509  11.289  1.7789 -0.0098  1.1333
18371TIP3    H276529   3.123   3.452  11.165 -0.6741 -0.3378 -0.0912
18372TIP3   OH276530   1.797   1.038  15.459 -0.1852 -0.1963 -0.3540
18372TIP3    H176531   1.875   1.062  15.508  0.3224 -0.8430 -0.8233
18372TIP3    H276532   1.805   1.084  15.376  0.4037 -1.3340 -0.9476
18373TIP3   OH276533   4.405   1.070   5.729  0.2456  0.4133  0.4290
18373TIP3    H176534   4.438   0.990   5.770  0.2458 -0.0357 -0.4280
18373TIP3    H276535   4.323   1.088   5.775  1.0131  0.7990  1.6809
18374TIP3   OH276536   2.427   3.307   2.545  0.1609 -0.2842  0.0092
18374TIP3    H176537   2.430   3.289   2.639 -1.0898  0.4710  0.2259
18374TIP3    H276538   2.338   3.283   2.520  0.0274  0.8575 -0.6739
18375TIP3   OH276539   0.413   3.270  13.418  0.7855 -0.1291  0.5776
18375TIP3    H176540   0.495   3.240  13.456  1.9105  0.7870 -0.9849
18375TIP3    H276541   0.432   3.278  13.324 -0.4284  2.1578  0.4592
18376TIP3   OH276542   0.042   0.367  15.575 -0.7921 -0.5861  0.2041
18376TIP3    H176543   0.002   0.453  15.564 -2.0647 -1.2426 -0.5839
18376TIP3    H276544   0.017   0.341  15.664  1.4819  0.7399  1.3246
18377TIP3   OH276545   5.533   3.368   2.573  0.0218  0.1486  0.3600
18377TIP3    H176546   5.571   3.330   2.494 -1.1294  1.4796 -0.8998
18377TIP3    H276547   5.607   3.405   2.620  0.8363 -1.4411  0.3911
18378TIP3   OH276548   5.067   4.272  11.625  0.1304 -0.3664 -0.5628
18378TIP3    H176549   5.146   4.323  11.609 -0.7613  1.7778  1.4321
18378TIP3    H276550   5.085   4.225  11.707 -1.0733  1.2115  0.6720
18379TIP3   OH276551   6.653   1.061  11.410  0.0910 -0.6143 -0.5004
18379TIP3    H176552   6.705   1.070  11.330  1.2068 -1.5385  0.1036
18379TIP3    H276553   6.650   0.967  11.426  2.1847 -0.3708  1.9875
18380TIP3   OH276554   4.825   4.883  13.483  0.7011  0.7433  0.4396
18380TIP3    H176555   4.810   4.977  13.497  1.2537  1.1558 -1.4325
18380TIP3    H276556   4.831   4.874  13.388  0.5155 -1.2301  0.5810
18381TIP3   OH276557   0.556   4.276   4.484 -0.1437  0.1293 -0.3271
18381TIP3    H176558   0.516   4.245   4.403 -0.6291 -0.6211  0.1896
18381TIP3    H276559   0.588   4.196   4.527 -0.6769  0.4176  0.6296
18382TIP3   OH276560   1.702   1.803  14.257 -0.4922  0.2578  0.4521
18382TIP3    H176561   1.670   1.792  14.347  1.0369  2.1798  1.3148
18382TIP3    H276562   1.652   1.740  14.206 -1.8072 -0.5208  2.5573
18383TIP3   OH276563   4.517   4.242  13.157 -0.3693 -0.3209  0.5100
18383TIP3    H176564   4.471   4.158  13.156  1.0104 -1.1195 -1.2261
18383TIP3    H276565   4.610   4.220  13.156  0.0660  1.0976 -2.2768
18384TIP3   OH276566   6.586   0.738  11.658 -0.3975  0.0799 -0.1593
18384TIP3    H176567   6.595   0.690  11.740 -0.0092 -0.9829 -0.8062
18384TIP3    H276568   6.492   0.734  11.638 -0.7670  1.7312  1.0178
18385TIP3   OH276569   0.421   2.989   4.869  0.0515  0.7048 -0.4622
18385TIP3    H176570   0.363   3.030   4.932 -1.0894 -2.3007  0.5841
18385TIP3    H276571   0.364   2.963   4.797  0.7775  1.0376 -1.1761
18386TIP3   OH276572   3.104   3.004   0.742 -0.1737 -0.2311 -0.8604
18386TIP3    H176573   3.194   3.009   0.774 -1.0216 -0.1452  1.7199
18386TIP3    H276574   3.108   3.042   0.654  2.2607 -0.1061 -0.7650
18387TIP3   OH276575   6.316   3.525   2.048 -0.2136 -0.6794  0.3603
18387TIP3    H176576   6.394   3.472   2.068  1.1768  2.0467  2.9321
18387TIP3    H276577   6.326   3.550   1.956  1.8794 -0.5438  0.5905
18388TIP3   OH276578   4.790   5.349  12.332  0.1413 -0.2923  0.4389
18388TIP3    H176579   4.835   5.332  12.249  1.2358  0.7296  0.7950
18388TIP3    H276580   4.714   5.401  12.307  1.0843  1.0102  0.1489
18389TIP3   OH276581   6.019   1.712   2.804  0.0539  0.3961 -0.2468
18389TIP3    H176582   5.964   1.635   2.819  0.4608  0.0905 -0.3163
18389TIP3    H276583   6.096   1.698   2.859 -0.7093  1.6470  1.2103
18390TIP3   OH276584   5.887   1.552  13.712  0.2774 -0.8438  0.2889
18390TIP3    H176585   5.977   1.544  13.742  0.4246  1.0146  0.4470
18390TIP3    H276586   5.835   1.544  13.792  0.4482  0.3590  0.5293
18391TIP3   OH276587   3.707   0.616   6.599  0.0999 -0.3713 -0.0770
18391TIP3    H176588   3.624   0.622   6.552 -0.3549 -4.2073 -0.0799
18391TIP3    H276589   3.686   0.642   6.689 -1.0024 -0.8444 -0.1895
18392TIP3   OH276590   3.728   5.072  13.655  0.0530  0.1885 -0.1711
18392TIP3    H176591   3.812   5.070  13.611 -0.6011  1.4404 -1.5631
18392TIP3    H276592   3.712   5.164  13.674 -0.6725 -0.1052  0.7689
18393TIP3   OH276593   2.494   4.138  13.913 -0.5734 -0.4395 -0.1090
18393TIP3    H176594   2.410   4.185  13.911 -0.6006 -0.4805  0.0301
18393TIP3    H276595   2.532   4.162  13.997 -1.0082 -1.3944  0.3732
18394TIP3   OH276596   1.042   3.921   4.128 -0.6111 -0.0490 -0.9744
18394TIP3    H176597   1.019   3.902   4.037 -1.5124 -0.9900 -0.5671
18394TIP3    H276598   0.995   4.002   4.148 -1.1839 -0.3508 -1.0661
18395TIP3   OH276599   1.049   1.477   3.778  0.1419  0.7411  0.3431
18395TIP3    H176600   1.092   1.420   3.841 -1.4090 -0.3713  0.4524
18395TIP3    H276601   1.121   1.514   3.726  1.2637 -0.3934  1.0281
18396TIP3   OH276602   5.906   3.069   4.521  0.3424 -0.3459  0.3360
18396TIP3    H176603   5.817   3.087   4.491  0.4849  0.4101  0.3369
18396TIP3    H276604   5.931   2.988   4.477  0.0171 -0.0304 -0.4487
18397TIP3   OH276605   3.914   0.280   2.480 -1.0990  0.3586  0.6698
18397TIP3    H176606   3.976   0.330   2.427 -1.8794 -0.2011 -0.8080
18397TIP3    H276607   3.889   0.206   2.425  0.3298 -1.9874  2.9322
18398TIP3   OH276608   0.834   0.190  13.696 -0.2508 -0.4927 -0.1927
18398TIP3    H176609   0.927   0.177  13.715  0.0086 -0.7335 -1.5138
18398TIP3    H276610   0.796   0.102  13.703 -0.2937 -0.4686 -0.1163
18399TIP3   OH276611   0.832   2.158  13.347 -0.3019  0.0769 -0.0651
18399TIP3    H176612   0.797   2.239  13.383  0.1367  0.7964 -1.2162
18399TIP3    H276613   0.755   2.113  13.311 -0.4667  0.2506  0.0661
18400TIP3   OH276614   1.481   3.257  14.410 -0.0191  0.3209 -0.0210
18400TIP3    H176615   1.524   3.336  14.443  1.5574 -0.1599 -0.8288
18400TIP3    H276616   1.527   3.185  14.452 -1.2969 -0.2122  0.5383
18401TIP3   OH276617   2.701   6.054   0.945  0.7608 -0.3509  0.5993
18401TIP3    H176618   2.713   6.064   0.850 -0.4147 -1.5328  0.2968
18401TIP3    H276619   2.725   6.139   0.981  2.0416 -0.1421 -0.6767
18402TIP3   OH276620   1.709   1.972   4.113  0.3636 -0.0274  0.5361
18402TIP3    H176621   1.629   1.976   4.165  0.6862 -1.2378  1.1536
18402TIP3    H276622   1.776   1.941   4.173  1.2170  0.5790 -0.0776
18403TIP3   OH276623   1.460   2.029   3.700 -0.1138 -0.5471  0.1713
18403TIP3    H176624   1.419   1.972   3.636 -0.6401  0.5228 -0.4854
18403TIP3    H276625   1.400   2.104   3.707  2.1661  1.6469 -1.6805
18404TIP3   OH276626   3.468   2.852  12.196 -0.4017  0.0472 -0.2547
18404TIP3    H176627   3.478   2.929  12.140 -0.0953 -1.1125 -1.8682
18404TIP3    H276628   3.530   2.788  12.161  0.3818 -0.4931  1.9260
18405TIP3   OH276629   1.277   0.878  17.227  0.1626 -0.2099  0.2713
18405TIP3    H176630   1.261   0.784  17.217 -0.1869 -0.3746  2.0994
18405TIP3    H276631   1.211   0.907  17.291  1.0718  1.0298  0.6784
18406TIP3   OH276632   4.087   3.408   5.203 -0.2468 -0.0478  0.0831
18406TIP3    H176633   4.095   3.316   5.179  0.3267 -0.1257  0.5557
18406TIP3    H276634   4.159   3.451   5.157 -1.1577  0.3617 -1.0262
18407TIP3   OH276635   0.167   6.672  16.691  0.4359  0.3362 -0.0020
18407TIP3    H176636   0.073   6.679  16.704  0.3790  0.4208 -0.4517
18407TIP3    H276637   0.193   6.596  16.743  0.0760  0.1364 -0.1101
18408TIP3   OH276638   2.757   5.626  13.272  0.7477 -0.2731  0.3038
18408TIP3    H176639   2.667   5.618  13.303  1.0196 -1.9269  0.7734
18408TIP3    H276640   2.804   5.667  13.345  0.3524  0.8047 -0.0298
18409TIP3   OH276641   3.318   2.549  10.991 -0.1592  0.1664  0.1816
18409TIP3    H176642   3.406   2.534  10.955 -0.1782 -1.3921  0.7322
18409TIP3    H276643   3.259   2.531  10.917 -0.1417 -1.9553  0.6190
18410TIP3   OH276644   0.889   2.476   1.559  0.2419 -0.1492  0.1231
18410TIP3    H176645   0.898   2.559   1.606 -1.3905  0.2571 -0.2326
18410TIP3    H276646   0.971   2.431   1.576  1.5083  1.8502 -0.3111
18411TIP3   OH276647   1.001   3.987   0.719 -0.4197  0.3903  0.2866
18411TIP3    H176648   1.035   3.975   0.631  0.1173 -0.7922  0.6338
18411TIP3    H276649   0.960   3.903   0.741  0.9246  0.0571  1.7489
18412TIP3   OH276650   0.335   6.244   1.874 -0.6877 -0.0948 -0.3214
18412TIP3    H176651   0.361   6.308   1.808 -0.0170  0.4268  0.4314
18412TIP3    H276652   0.417   6.214   1.912 -1.0933  0.3911  0.9950
18413TIP3   OH276653   6.438   1.502   3.150 -0.1217  0.0954  0.0097
18413TIP3    H176654   6.452   1.582   3.201 -0.7667 -0.8896  1.8283
18413TIP3    H276655   6.460   1.526   3.061  0.2845  2.1366  0.6143
18414TIP3   OH276656   6.299   3.258  16.721  0.0280 -0.6295  0.0418
18414TIP3    H176657   6.355   3.198  16.671 -0.5761 -0.6009 -0.6806
18414TIP3    H276658   6.350   3.339  16.727  0.5237 -0.9609  0.3537
18415TIP3   OH276659   0.772   1.533   4.254 -0.1789  0.2298  0.1927
18415TIP3    H176660   0.772   1.463   4.320 -0.2724  1.1419  1.1728
18415TIP3    H276661   0.833   1.598   4.288  2.3476 -0.6940 -2.1915
18416TIP3   OH276662   4.458   2.164   2.053  0.3314 -0.5154  0.5127
18416TIP3    H176663   4.404   2.216   2.112 -0.3366 -1.7075  0.9831
18416TIP3    H276664   4.518   2.117   2.111 -0.3810 -1.7563  0.2674
18417TIP3   OH276665   5.177   3.033  10.839  0.2604  0.1275  0.3999
18417TIP3    H176666   5.245   2.985  10.886 -0.2380 -0.4197  0.5614
18417TIP3    H276667   5.162   2.983  10.759 -1.7278 -1.2064  1.5025
18418TIP3   OH276668   3.049   4.170   6.037  0.3257  0.4358 -0.2190
18418TIP3    H176669   3.090   4.219   5.965  0.8237 -0.6730 -0.7126
18418TIP3    H276670   3.079   4.080   6.024 -3.2182 -0.7248 -1.3163
18419TIP3   OH276671   2.202   2.862  16.302 -0.0494 -0.1344 -0.3472
18419TIP3    H176672   2.173   2.773  16.324 -1.2111  0.4973  0.7610
18419TIP3    H276673   2.201   2.864  16.206 -0.0747 -1.2842 -0.3910
18420TIP3   OH276674   0.324   6.720  10.777 -0.4265 -0.2781  0.4129
18420TIP3    H176675   0.384   6.752  10.710 -2.2004  0.1090 -1.0700
18420TIP3    H276676   0.244   6.771  10.764 -1.3144 -1.2135  1.8948
18421TIP3   OH276677   4.488   2.158  12.536  0.9476  0.2422 -0.1151
18421TIP3    H176678   4.513   2.069  12.510  2.4265  0.4439  0.5338
18421TIP3    H276679   4.570   2.207  12.533  0.0389  1.7528 -1.0832
18422TIP3   OH276680   3.165   2.986   5.899  0.0500  0.3595 -0.0030
18422TIP3    H176681   3.203   2.906   5.936  0.1492 -0.0295 -0.9143
18422TIP3    H276682   3.228   3.015   5.833 -1.8931 -1.2447 -2.7752
18423TIP3   OH276683   5.854   0.337   5.123 -0.2047  0.1781  0.1079
18423TIP3    H176684   5.875   0.429   5.109 -1.3499  0.6212  1.0890
18423TIP3    H276685   5.779   0.321   5.067 -1.3915  0.4792  1.5404
18424TIP3   OH276686   3.780   2.485  14.268 -0.2153 -0.4110  0.0159
18424TIP3    H176687   3.811   2.565  14.310 -0.0869 -0.9834  1.0390
18424TIP3    H276688   3.692   2.471  14.305 -1.4956  0.8330 -2.3468
18425TIP3   OH276689   5.367   0.264   6.008  0.5097 -0.1681  0.5918
18425TIP3    H176690   5.367   0.197   6.076 -1.4142 -0.2886  0.5458
18425TIP3    H276691   5.390   0.345   6.054 -1.2754 -0.1507  1.5548
18426TIP3   OH276692   0.632   0.888  16.986 -0.4783 -0.2662 -0.1628
18426TIP3    H176693   0.726   0.870  16.992 -0.3680  0.3754  0.0967
18426TIP3    H276694   0.594   0.841  17.061 -0.0481  1.4663  1.2095
18427TIP3   OH276695   0.571   3.851   0.961  0.2634  0.0115 -0.0148
18427TIP3    H176696   0.552   3.786   1.028 -0.4437 -0.4307 -0.6399
18427TIP3    H276697   0.529   3.931   0.993 -0.2355 -0.2451 -0.0299
18428TIP3   OH276698   4.029   1.959   5.392 -0.5031  0.1087  0.1121
18428TIP3    H176699   3.970   1.884   5.393 -1.0106  0.4230 -1.8310
18428TIP3    H276700   4.115   1.921   5.376 -0.6412 -0.1409 -0.0622
18429TIP3   OH276701   6.447   2.513   4.345  0.2819  0.8408 -0.2576
18429TIP3    H176702   6.415   2.584   4.290 -0.3218  0.2180 -0.7456
18429TIP3    H276703   6.403   2.435   4.310  0.9396  0.2298  0.2490
18430TIP3   OH276704   2.764   4.222   2.970 -0.7670  0.0903 -0.9999
18430TIP3    H176705   2.740   4.198   2.881  0.3089  0.4016 -1.3845
18430TIP3    H276706   2.749   4.317   2.975 -1.5589 -0.0507 -0.6078
18431TIP3   OH276707   5.953   1.169   4.972  0.2489 -0.1162  0.6423
18431TIP3    H176708   5.949   1.251   4.923 -0.0114 -1.7762 -2.4442
18431TIP3    H276709   5.915   1.188   5.057  0.5107  2.9996  0.1507
18432TIP3   OH276710   0.156   3.592   4.687 -0.6306  0.1868  0.3996
18432TIP3    H176711   0.132   3.520   4.628 -1.2036 -0.0640  0.9297
18432TIP3    H276712   0.224   3.556   4.744 -1.9601 -0.4344  1.6566
18433TIP3   OH276713   0.375   2.465  12.441 -0.5617 -0.7381  0.0352
18433TIP3    H176714   0.378   2.482  12.347  0.4096 -1.0379 -0.0023
18433TIP3    H276715   0.462   2.432  12.462 -0.4572  0.2381  1.2159
18434TIP3   OH276716   1.552   5.462   4.353 -0.6198 -0.0167  0.1128
18434TIP3    H176717   1.502   5.422   4.282 -1.4646  0.6007  0.3460
18434TIP3    H276718   1.538   5.556   4.343  1.7750  0.3359 -0.7561
18435TIP3   OH276719   2.915   1.973   4.763  0.3941  0.3396  0.1672
18435TIP3    H176720   2.922   2.040   4.832 -0.1089  0.5057  0.0609
18435TIP3    H276721   2.996   1.922   4.771  0.4924  0.5649  0.6633
18436TIP3   OH276722   3.233   2.587   1.321 -0.1614  0.4395 -0.1043
18436TIP3    H176723   3.284   2.594   1.241  0.9233  2.4545  0.6614
18436TIP3    H276724   3.155   2.538   1.297  1.0817 -0.7715 -1.8687
18437TIP3   OH276725   3.563   1.228   1.889  0.2556  0.2286 -0.1829
18437TIP3    H176726   3.512   1.291   1.839 -1.6424 -0.3622  0.9018
18437TIP3    H276727   3.576   1.270   1.974 -1.5688 -1.0016  0.7709
18438TIP3   OH276728   0.742   4.188   3.328 -0.0390  0.2885 -0.1838
18438TIP3    H176729   0.814   4.251   3.336  0.5566 -0.5036  1.2816
18438TIP3    H276730   0.783   4.110   3.291 -0.4370  0.2645 -0.5733
18439TIP3   OH276731   3.783   3.746  13.983 -0.6045  0.6561 -0.4008
18439TIP3    H176732   3.740   3.831  13.997 -0.7377  0.2962  1.7685
18439TIP3    H276733   3.866   3.768  13.941 -0.5956  1.8695  0.2057
18440TIP3   OH276734   4.140   0.594   3.929  0.3298  0.4586 -0.1696
18440TIP3    H176735   4.072   0.527   3.930  0.2965  0.4269 -1.6162
18440TIP3    H276736   4.223   0.545   3.929  0.3084  0.4051 -0.8337
18441TIP3   OH276737   4.414   5.182  11.525 -0.3999 -0.0374  0.2612
18441TIP3    H176738   4.392   5.257  11.470 -1.0242 -0.6830 -0.3964
18441TIP3    H276739   4.470   5.218  11.594  0.9962  0.6680 -1.1868
18442TIP3   OH276740   0.154   4.181  13.982  0.4018 -0.3980  0.6113
18442TIP3    H176741   0.124   4.271  13.994  1.3871  0.0459 -0.0824
18442TIP3    H276742   0.172   4.150  14.070  0.4770  0.2484  0.8313
18443TIP3   OH276743   0.246   0.920   4.772 -0.1711 -0.0646  0.0984
18443TIP3    H176744   0.326   0.943   4.819 -0.5362  0.2102  0.5922
18443TIP3    H276745   0.219   1.001   4.730 -0.4007 -0.0647  0.2465
18444TIP3   OH276746   3.510   0.341  16.775  0.4311 -0.0395  0.4881
18444TIP3    H176747   3.447   0.403  16.812 -0.3509 -0.5470  0.0289
18444TIP3    H276748   3.468   0.309  16.695  1.1897 -0.5364  0.2766
18445TIP3   OH276749   3.668   4.326   4.471  0.1149  0.1818  0.2961
18445TIP3    H176750   3.661   4.251   4.531 -0.2730  0.8673  1.1371
18445TIP3    H276751   3.656   4.288   4.384  2.1061 -1.0583  0.5095
18446TIP3   OH276752   1.605   2.020  14.663 -0.2432  0.2881 -0.3583
18446TIP3    H176753   1.606   2.116  14.662 -2.4823  0.3929  0.8549
18446TIP3    H276754   1.631   1.997  14.752  0.6467 -0.2777 -0.7518
18447TIP3   OH276755   2.537   2.185  17.337 -0.0294  0.3737  0.5048
18447TIP3    H176756   2.589   2.172  17.258  1.1445  0.6287  1.2125
18447TIP3    H276757   2.527   2.280  17.345  2.3821  0.5791  2.1886
18448TIP3   OH276758   0.783   0.217  17.029  0.3238  0.0466 -0.4741
18448TIP3    H176759   0.868   0.213  17.072  0.2891 -0.2810 -0.4342
18448TIP3    H276760   0.772   0.309  17.006 -1.0015  0.8815  2.9120
18449TIP3   OH276761   6.288   5.531   5.848  0.7833 -0.3272 -0.5683
18449TIP3    H176762   6.206   5.570   5.818  0.2127 -0.1414  1.1645
18449TIP3    H276763   6.275   5.437   5.835 -0.5568 -0.4985  1.5730
18450TIP3   OH276764   4.384   2.818   2.215 -0.4255 -0.0900  0.1896
18450TIP3    H176765   4.309   2.758   2.222 -0.6142  0.2160  0.8559
18450TIP3    H276766   4.397   2.850   2.304  0.7333 -0.4074  0.1459
18451TIP3   OH276767   2.346   5.949  13.005 -0.4451  0.0869  0.2125
18451TIP3    H176768   2.339   5.870  13.058 -1.6453 -1.8093 -2.4993
18451TIP3    H276769   2.411   6.003  13.049 -1.3913 -1.2483  3.5419
18452TIP3   OH276770   3.100   3.369   3.577 -0.1473  0.2558  0.0982
18452TIP3    H176771   3.008   3.358   3.551  0.3176 -0.5676 -1.2612
18452TIP3    H276772   3.102   3.455   3.620 -1.5391  0.3026  0.1187
18453TIP3   OH276773   5.808   3.332   3.048  0.3024  0.2079 -0.0228
18453TIP3    H176774   5.716   3.310   3.034  0.0968  0.0594  1.4215
18453TIP3    H276775   5.856   3.257   3.012 -0.1828 -0.1837  0.1368
18454TIP3   OH276776   6.299   6.491  12.825 -0.1135 -0.2019  0.0597
18454TIP3    H176777   6.344   6.437  12.760  0.3916  0.9563 -0.5731
18454TIP3    H276778   6.225   6.437  12.854  2.5262 -2.9271  2.4104
18455TIP3   OH276779   0.789   2.897   6.399  0.1172 -0.3264  0.3343
18455TIP3    H176780   0.840   2.817   6.413  0.1634 -0.3766 -0.1264
18455TIP3    H276781   0.699   2.871   6.417  0.1580 -0.4244  0.4023
18456TIP3   OH276782   3.379   4.629  11.265  0.3675 -0.5015 -0.3163
18456TIP3    H176783   3.307   4.627  11.201 -0.0556 -1.7074  0.1695
18456TIP3    H276784   3.391   4.537  11.290  0.1295  0.0002  1.7824
18457TIP3   OH276785   4.977   2.858  17.046 -0.2730  0.2929 -0.4586
18457TIP3    H176786   4.886   2.841  17.073  0.7189 -2.1007  1.8190
18457TIP3    H276787   5.012   2.914  17.115  0.6582 -0.9846  0.1536
18458TIP3   OH276788   5.321   0.171   0.966  0.0824 -0.2291 -0.3803
18458TIP3    H176789   5.257   0.134   1.026 -0.2782  0.0454 -0.5947
18458TIP3    H276790   5.356   0.248   1.013 -0.0285 -0.1509 -0.4267
18459TIP3   OH276791   5.029   3.347   5.056 -0.0316  0.4378 -0.1281
18459TIP3    H176792   5.006   3.259   5.086  1.6732 -0.1720 -0.5079
18459TIP3    H276793   5.087   3.382   5.124 -0.7349  1.3084  0.0470
18460TIP3   OH276794   2.018   5.503  15.452  0.1891 -0.0682  0.6729
18460TIP3    H176795   1.994   5.435  15.515 -1.9546 -0.7431 -0.7630
18460TIP3    H276796   2.056   5.456  15.378 -1.0036  0.2869 -0.1945
18461TIP3   OH276797   4.038   1.883   1.145  0.6015 -0.5615  0.2262
18461TIP3    H176798   4.109   1.933   1.186  0.9196  0.4588 -1.4700
18461TIP3    H276799   4.049   1.794   1.179  1.6209 -0.0495  1.3312
18462TIP3   OH276800   6.374   6.333  11.065  0.0659 -0.2355 -0.9406
18462TIP3    H176801   6.301   6.388  11.092 -0.1522  0.7854 -3.4152
18462TIP3    H276802   6.334   6.261  11.017  0.5645 -0.7748 -0.5559
18463TIP3   OH276803   5.013   4.528   4.689  0.5007  0.7829 -0.0608
18463TIP3    H176804   5.019   4.557   4.780 -1.2840  3.5920 -0.7247
18463TIP3    H276805   5.075   4.583   4.642 -0.7878  1.5332 -0.9464
18464TIP3   OH276806   4.218   2.242   1.644  0.4158 -0.5136  0.0401
18464TIP3    H176807   4.130   2.218   1.614  0.5288 -1.0005  0.0740
18464TIP3    H276808   4.274   2.222   1.570  0.4987 -0.2268  0.0279
18465TIP3   OH276809   2.402   0.483   5.593  0.2152  0.2361 -0.0993
18465TIP3    H176810   2.386   0.459   5.684  0.0140  0.1768 -0.1491
18465TIP3    H276811   2.483   0.438   5.570 -0.0339 -0.2104 -0.1211
18466TIP3   OH276812   3.406   6.231  13.934  0.4440  0.1931  0.2160
18466TIP3    H176813   3.381   6.209  14.025  1.5895  0.5802  0.6381
18466TIP3    H276814   3.394   6.149  13.886  1.1307 -0.3964  1.0141
18467TIP3   OH276815   6.170   1.353   3.839 -0.4919 -0.9119  0.2399
18467TIP3    H176816   6.133   1.418   3.899  0.5812  0.5833 -0.6596
18467TIP3    H276817   6.174   1.272   3.890 -2.3661 -0.4515  1.2243
18468TIP3   OH276818   5.724   5.295  12.938 -0.3343 -0.0369  0.3514
18468TIP3    H176819   5.750   5.347  12.862 -0.9640 -0.4850 -0.1877
18468TIP3    H276820   5.774   5.331  13.011 -0.6015  1.1854 -0.0473
18469TIP3   OH276821   5.853   1.805   4.134 -0.2600  0.0195 -0.4279
18469TIP3    H176822   5.878   1.865   4.063 -0.5553  0.1903 -0.3866
18469TIP3    H276823   5.835   1.722   4.089  0.3283 -0.0922 -0.4648
18470TIP3   OH276824   1.637   3.780   3.696  0.7030 -0.2812  0.5837
18470TIP3    H176825   1.642   3.745   3.785 -1.0736  1.1212  1.2921
18470TIP3    H276826   1.657   3.705   3.640  2.2344 -1.1102  2.1266
18471TIP3   OH276827   0.147   0.210  17.180  0.0392  0.3711  0.7266
18471TIP3    H176828   0.134   0.150  17.107  2.0154  1.2510 -0.4413
18471TIP3    H276829   0.096   0.172  17.252 -1.8066 -0.6438 -1.0037
18472TIP3   OH276830   2.572   3.916   3.402 -0.0716  0.0633  0.8404
18472TIP3    H176831   2.496   3.865   3.432  0.0958  0.0833  1.3109
18472TIP3    H276832   2.594   3.879   3.318 -1.1778  0.6532  0.2591
18473TIP3   OH276833   6.556   4.767  16.345  0.2094 -0.5595 -0.6614
18473TIP3    H176834   6.599   4.704  16.403 -1.2812 -0.9747  0.0343
18473TIP3    H276835   6.600   4.755  16.261  1.7403 -0.6410  0.0949
18474TIP3   OH276836   4.147   1.481   1.751 -0.0987  0.7530  0.0379
18474TIP3    H176837   4.216   1.524   1.699  2.7550 -1.4287  1.7370
18474TIP3    H276838   4.149   1.528   1.835 -0.7891  0.7363  0.0639
18475TIP3   OH276839   3.613   1.824  14.189  0.4348  0.4566  0.2872
18475TIP3    H176840   3.703   1.809  14.219  0.6155  1.3888  0.2593
18475TIP3    H276841   3.593   1.913  14.220  0.3578  1.1834 -1.7126
18476TIP3   OH276842   4.273   4.182   0.925 -0.1157  0.3873 -0.5223
18476TIP3    H176843   4.198   4.231   0.890 -1.2403  1.0686  2.5028
18476TIP3    H276844   4.318   4.244   0.982  0.9679 -0.8919  0.0712
18477TIP3   OH276845   0.352   2.836  12.154  0.7028  0.0606 -0.3418
18477TIP3    H176846   0.328   2.774  12.085  0.6988  0.2061 -0.4722
18477TIP3    H276847   0.352   2.922  12.110  1.7220  0.0358 -0.4104
18478TIP3   OH276848   4.218   0.048  14.246  0.0410  0.1499  0.8642
18478TIP3    H176849   4.162   0.124  14.229 -0.7699 -0.4758  0.6411
18478TIP3    H276850   4.246   0.019  14.159  0.2406  0.1121  0.9408
18479TIP3   OH276851   0.474   3.670  17.085  0.1033 -0.1315 -0.2035
18479TIP3    H176852   0.516   3.730  17.024 -1.8650 -0.2448 -1.7986
18479TIP3    H276853   0.454   3.592  17.033 -3.5589  0.5722 -0.1797
18480TIP3   OH276854   3.934   4.105   3.048 -0.1304 -0.4493  0.8915
18480TIP3    H176855   3.930   4.200   3.038  0.1784 -0.3487  1.6275
18480TIP3    H276856   3.851   4.082   3.091 -0.3249 -0.5474  0.4635
18481TIP3   OH276857   5.167   5.024   3.865 -0.6761 -0.3519  0.3233
18481TIP3    H176858   5.181   5.050   3.956 -1.3254  0.6022  0.1624
18481TIP3    H276859   5.217   5.088   3.814 -0.0375 -1.0836  0.0096
18482TIP3   OH276860   4.224   1.048   2.703 -0.2696  0.3979 -0.3577
18482TIP3    H176861   4.279   1.092   2.768  1.3965 -1.0488 -0.6867
18482TIP3    H276862   4.179   1.119   2.657  0.7995  1.6196  0.4158
18483TIP3   OH276863   1.625   6.469  16.493  0.0191 -0.5841 -0.2979
18483TIP3    H176864   1.653   6.384  16.524 -1.3077 -1.1284 -0.5198
18483TIP3    H276865   1.636   6.527  16.568 -1.1569 -1.4296  0.5559
18484TIP3   OH276866   4.084   4.349   1.181 -0.0393 -0.2053  0.3695
18484TIP3    H176867   4.012   4.339   1.119  0.3352 -0.5113 -0.0210
18484TIP3    H276868   4.084   4.442   1.203  0.0268 -0.0358 -0.3400
18485TIP3   OH276869   3.190   5.452  11.109  0.1850 -0.1613  0.4979
18485TIP3    H176870   3.098   5.447  11.083  0.2692  1.4246 -0.2157
18485TIP3    H276871   3.238   5.414  11.034  0.2260  1.2341 -0.2118
18486TIP3   OH276872   0.566   0.233  11.636  0.2624  0.4016 -0.0209
18486TIP3    H176873   0.658   0.216  11.615 -0.0742 -2.4083  0.2710
18486TIP3    H276874   0.520   0.222  11.553 -0.0714 -1.1797  0.3433
18487TIP3   OH276875   5.990   2.552   2.713  0.6675 -0.3360 -0.0744
18487TIP3    H176876   5.929   2.549   2.639 -0.7465  1.8750  0.8892
18487TIP3    H276877   5.943   2.508   2.784  1.2673 -0.8433  0.0193
18488TIP3   OH276878   2.589   2.585   6.660  0.8182  0.0990 -0.2251
18488TIP3    H176879   2.608   2.516   6.724 -0.1342 -0.2038 -0.2486
18488TIP3    H276880   2.663   2.582   6.599  0.5062 -1.3293 -0.5729
18489TIP3   OH276881   4.770   1.626   0.850 -0.0299  0.0139  0.4638
18489TIP3    H176882   4.835   1.692   0.829  0.2709 -0.0975  1.0421
18489TIP3    H276883   4.692   1.676   0.875 -0.4323  0.1547 -0.9578
18490TIP3   OH276884   6.345   1.327  14.517  0.0646  0.3797  0.1877
18490TIP3    H176885   6.416   1.272  14.549  1.2783  1.6782 -0.1787
18490TIP3    H276886   6.266   1.272  14.526  1.3402 -1.8231 -1.2449
18491TIP3   OH276887   2.908   2.567   1.206  0.3608 -0.2129 -0.2072
18491TIP3    H176888   2.965   2.613   1.145 -1.3467  1.3595 -0.7030
18491TIP3    H276889   2.839   2.530   1.151 -0.3164 -0.1696  0.5879
18492TIP3   OH276890   0.072   3.833  16.450  0.5646 -0.5091  0.3054
18492TIP3    H176891   0.030   3.888  16.516  1.5316 -0.8422  1.2340
18492TIP3    H276892   0.017   3.842  16.373 -0.5533 -0.0353  1.1262
18493TIP3   OH276893   4.215   1.548   3.340  0.6088 -0.6170 -1.0428
18493TIP3    H176894   4.217   1.497   3.259 -0.6688 -2.9486  0.2719
18493TIP3    H276895   4.253   1.490   3.406  2.3013  1.4871 -0.0520
18494TIP3   OH276896   5.157   6.069   5.563 -0.0926  0.3541 -0.3323
18494TIP3    H176897   5.181   5.977   5.576 -3.0343 -0.6202 -1.1295
18494TIP3    H276898   5.186   6.112   5.643  0.5697 -1.4237  0.4543
18495TIP3   OH276899   0.418   1.723   0.496 -0.0982  0.3213  0.1674
18495TIP3    H176900   0.449   1.691   0.411 -0.2302 -0.9082  0.5535
18495TIP3    H276901   0.432   1.817   0.493 -0.3961  0.3556 -1.3480
18496TIP3   OH276902   2.835   0.783  17.305 -0.5468 -0.6266  0.5654
18496TIP3    H176903   2.870   0.805  17.218 -3.0605 -3.5898 -1.4431
18496TIP3    H276904   2.912   0.756  17.355  1.1962  2.5986 -0.0886
18497TIP3   OH276905   3.740   0.723   4.601  0.1827 -0.0927  0.0671
18497TIP3    H176906   3.814   0.782   4.588 -0.4350  0.2902 -2.0783
18497TIP3    H276907   3.718   0.732   4.694  2.7163 -0.1284  0.7376
18498TIP3   OH276908   2.324   2.371  13.904  0.2489  0.0635  0.0412
18498TIP3    H176909   2.384   2.309  13.863  1.1847  1.0572 -0.1663
18498TIP3    H276910   2.354   2.457  13.873 -2.1828  0.5422 -1.2324
18499TIP3   OH276911   3.183   4.389  16.514 -0.7358  0.5840 -0.4316
18499TIP3    H176912   3.251   4.325  16.537 -0.6373  0.9170  0.2202
18499TIP3    H276913   3.223   4.442  16.445 -0.0405  1.2748  0.4885
18500TIP3   OH276914   4.203   4.570  12.200 -0.2062  0.5779  0.0805
18500TIP3    H176915   4.243   4.549  12.116  0.0649  0.8915  0.1272
18500TIP3    H276916   4.127   4.513  12.205  0.3719 -0.2137  0.0996
18501TIP3   OH276917   4.680   1.487  14.529 -0.2731  0.5024 -0.4914
18501TIP3    H176918   4.585   1.480  14.531 -0.1917 -0.6693  0.2732
18501TIP3    H276919   4.710   1.406  14.488  0.4750 -0.5428  1.9116
18502TIP3   OH276920   4.243   0.496   3.162  0.0894 -0.0652  0.1221
18502TIP3    H176921   4.176   0.564   3.175 -1.2101 -1.1625 -0.5835
18502TIP3    H276922   4.276   0.511   3.074  1.3595  0.9468  0.7467
18503TIP3   OH276923   0.056   4.921  11.160 -0.5231  0.6740 -0.5225
18503TIP3    H176924   0.022   4.875  11.083  0.9241  0.9787 -1.3934
18503TIP3    H276925   0.016   5.008  11.156 -2.7019 -0.1894  0.7265
18504TIP3   OH276926   5.846   3.249   0.033  0.4671  0.3421  0.2079
18504TIP3    H176927   5.896   3.224  -0.044 -1.5205 -1.4881 -0.5732
18504TIP3    H276928   5.770   3.297  -0.001  0.0149  0.2828  1.0762
18505TIP3   OH276929   5.244   5.318  13.883 -0.3014 -0.3233 -0.6370
18505TIP3    H176930   5.188   5.286  13.953 -0.9445 -1.1466 -1.5141
18505TIP3    H276931   5.319   5.257  13.883  1.6842  1.8592  1.8046
18506TIP3   OH276932   0.865   2.623  12.330 -0.3824 -0.0079 -0.2182
18506TIP3    H176933   0.959   2.609  12.317 -0.0254  1.6937  0.4013
18506TIP3    H276934   0.840   2.686  12.262 -1.0059 -0.1217 -0.1014
18507TIP3   OH276935   2.702   3.484   3.021  0.2291  0.0457 -0.3645
18507TIP3    H176936   2.754   3.457   3.097  1.3886  1.1626 -0.7185
18507TIP3    H276937   2.616   3.446   3.037 -0.3450  2.2058  2.7812
18508TIP3   OH276938   5.669   0.840  11.055  0.0456  0.4811  0.6969
18508TIP3    H176939   5.676   0.920  11.107 -0.5762  1.0243 -0.0121
18508TIP3    H276940   5.631   0.870  10.972  2.0713 -0.1452 -0.5348
18509TIP3   OH276941   5.766   5.513   0.557 -0.1759  0.2399  0.7267
18509TIP3    H176942   5.755   5.474   0.471 -1.7610  0.6469  0.7103
18509TIP3    H276943   5.739   5.604   0.546  1.5942  0.8749  1.2115
18510TIP3   OH276944   1.463   1.782  11.692 -0.5513  0.1152  0.1845
18510TIP3    H176945   1.443   1.756  11.602 -1.9116 -0.9591  0.7629
18510TIP3    H276946   1.558   1.798  11.692 -0.0132 -2.5616 -0.8132
18511TIP3   OH276947   2.990   1.504  16.365  0.2468  0.0724 -0.4450
18511TIP3    H176948   3.061   1.568  16.372 -0.5066  0.8983 -0.1239
18511TIP3    H276949   2.960   1.491  16.455 -0.6061  0.4292 -0.6668
18512TIP3   OH276950   1.817   6.148  11.954  0.0411  0.4144  0.0130
18512TIP3    H176951   1.861   6.207  12.015 -0.3191 -0.0769  0.7545
18512TIP3    H276952   1.856   6.169  11.869  1.2590  0.4236  0.5441
18513TIP3   OH276953   3.341   4.029   6.345 -0.1417  0.2656 -0.2656
18513TIP3    H176954   3.292   4.083   6.407  0.6434 -0.6804  1.2711
18513TIP3    H276955   3.277   3.966   6.313 -0.3948  0.2817  0.1906
18514TIP3   OH276956   3.773   2.396   2.715 -0.3632  0.2857 -0.5550
18514TIP3    H176957   3.727   2.317   2.688 -1.0166  0.8006 -0.9869
18514TIP3    H276958   3.848   2.365   2.765 -1.0194 -0.5782 -0.0930
18515TIP3   OH276959   1.359   3.399   2.483 -0.2178  0.1400 -0.4146
18515TIP3    H176960   1.302   3.331   2.447  1.3161 -1.4524  0.0105
18515TIP3    H276961   1.364   3.378   2.577  0.1089  0.9787 -0.2373
18516TIP3   OH276962   4.174   2.648   5.776 -0.1398  0.2451  0.2778
18516TIP3    H176963   4.157   2.742   5.780 -2.3353 -0.0757 -0.4548
18516TIP3    H276964   4.244   2.635   5.841 -0.6097  2.1930  1.2767
18517TIP3   OH276965   2.976   6.480   5.341  0.3381  0.4219 -0.4382
18517TIP3    H176966   3.069   6.460   5.354  0.7336  2.5345  0.5669
18517TIP3    H276967   2.931   6.396   5.350  2.0170 -0.4135  0.6110
18518TIP3   OH276968   3.927   4.644  16.936  0.3807  0.5534  0.0134
18518TIP3    H176969   3.997   4.685  16.988  1.0579 -1.6649  0.9642
18518TIP3    H276970   3.884   4.584  16.997 -1.3036  0.6494 -1.0158
18519TIP3   OH276971   2.607   4.739   5.960 -0.2890  0.5093  0.1681
18519TIP3    H176972   2.520   4.780   5.955 -0.7386 -0.5527 -1.9172
18519TIP3    H276973   2.610   4.700   6.047 -2.7132 -1.0352 -0.3520
18520TIP3   OH276974   1.926   2.486  15.131  0.2830  0.3840 -0.3559
18520TIP3    H176975   1.980   2.565  15.137 -0.5664  0.8723  1.5118
18520TIP3    H276976   1.857   2.499  15.195 -0.8516 -1.1672 -1.1863
18521TIP3   OH276977   6.571   3.723  14.454 -0.3075  0.0640 -0.0860
18521TIP3    H176978   6.481   3.737  14.483 -0.0840 -0.1604  0.7435
18521TIP3    H276979   6.580   3.627  14.450 -0.6179  0.0680 -1.8556
18522TIP3   OH276980   6.176   0.539   0.663  0.1817  0.6275 -0.4568
18522TIP3    H176981   6.148   0.586   0.742 -0.8808 -0.1557 -0.3423
18522TIP3    H276982   6.114   0.466   0.656  1.0896 -0.0845 -1.2659
18523TIP3   OH276983   0.254   2.199  12.219  0.2707 -0.0714 -0.2812
18523TIP3    H176984   0.315   2.271  12.208  2.0414 -1.4258  0.1778
18523TIP3    H276985   0.295   2.125  12.173 -0.3435 -1.3704  1.1563
18524TIP3   OH276986   2.747   3.501  16.174  0.8382  0.1905  0.0018
18524TIP3    H176987   2.701   3.552  16.107  0.8161  1.6217  1.0351
18524TIP3    H276988   2.814   3.561  16.207  0.5156 -0.2745  1.5825
18525TIP3   OH276989   2.985   2.387   3.787  0.0263 -0.4387 -0.3247
18525TIP3    H176990   2.979   2.469   3.737 -1.4107 -1.7396 -2.4779
18525TIP3    H276991   3.044   2.332   3.736  2.2194 -0.3286  1.8989
18526TIP3   OH276992   3.134   6.123  13.197 -0.0079 -0.7115  0.1564
18526TIP3    H176993   3.214   6.175  13.192 -0.2639 -0.1424  1.4750
18526TIP3    H276994   3.081   6.168  13.263 -1.9497 -0.3817 -1.5668
18527TIP3   OH276995   5.350   1.203   0.825 -0.3931 -0.0483 -0.4673
18527TIP3    H176996   5.310   1.249   0.899  0.4309  0.9630 -0.6235
18527TIP3    H276997   5.319   1.113   0.833 -1.2610  0.3064  0.4272
18528TIP3   OH276998   3.252   1.499  16.037 -1.3094 -0.1260 -0.4622
18528TIP3    H176999   3.297   1.424  15.998  0.9198  0.5687  0.6460
18528TIP3    H277000   3.318   1.543  16.089 -3.0798  1.4940  0.5544
18529TIP3   OH277001   6.416   2.015  14.454  0.3542  0.1843  0.4348
18529TIP3    H177002   6.459   2.031  14.539 -0.2092  2.2785  0.3772
18529TIP3    H277003   6.488   2.013  14.391  0.8329 -1.8994  0.9585
18530TIP3   OH277004   6.116   0.085   4.582 -0.6750 -0.4438  0.3434
18530TIP3    H177005   6.130   0.125   4.496  0.6854  0.5760  1.0046
18530TIP3    H277006   6.101  -0.008   4.563  0.2312 -0.3540 -0.9630
18531TIP3   OH277007   3.696   3.498  16.764 -0.3049 -0.1180  0.0605
18531TIP3    H177008   3.612   3.453  16.762  0.2756 -1.1976 -0.6596
18531TIP3    H277009   3.761   3.429  16.753  0.5899  0.9330 -1.5547
18532TIP3   OH277010   5.704   2.907  14.094  0.0708  0.2006 -0.1545
18532TIP3    H177011   5.727   2.966  14.166 -2.8353 -1.5118  2.4239
18532TIP3    H277012   5.628   2.947  14.053 -1.0966 -0.9987  0.7543
18533TIP3   OH277013   4.117   5.269  16.132 -0.0397 -0.2695  0.1548
18533TIP3    H177014   4.157   5.245  16.216  0.9272  1.6708  0.3157
18533TIP3    H277015   4.165   5.217  16.067  2.4551  1.4629  0.4220
18534TIP3   OH277016   3.159   4.019   0.886 -0.0466 -0.3110 -0.1959
18534TIP3    H177017   3.161   4.070   0.805 -0.1705 -0.7579 -0.4854
18534TIP3    H277018   3.136   4.082   0.954 -1.8935 -0.2853 -0.8032
18535TIP3   OH277019   1.556   5.967   2.232 -0.0629 -0.0238 -0.4906
18535TIP3    H177020   1.625   5.900   2.238 -0.2027 -0.1333 -0.1102
18535TIP3    H277021   1.586   6.038   2.288 -0.8651 -0.6088  0.7257
18536TIP3   OH277022   1.056   5.261  11.650 -0.3435  0.0658 -0.0552
18536TIP3    H177023   0.997   5.336  11.661  0.2841  0.3443  1.6182
18536TIP3    H277024   1.061   5.221  11.736 -1.3997 -2.5122 -1.0954
18537TIP3   OH277025   6.190   5.491   3.270  0.1526 -0.1036  0.3865
18537TIP3    H177026   6.140   5.536   3.338 -1.8308 -0.7941 -0.5338
18537TIP3    H277027   6.235   5.561   3.222 -2.7578  1.0443 -0.9408
18538TIP3   OH277028   0.704   5.525  13.518 -0.2814 -0.1653  0.5157
18538TIP3    H177029   0.753   5.585  13.461 -0.9763 -0.2312 -0.1652
18538TIP3    H277030   0.612   5.546  13.503 -0.5164 -1.0187  0.6844
18539TIP3   OH277031   1.028   5.169  16.029 -0.5754  0.0837  0.1365
18539TIP3    H177032   0.994   5.259  16.027 -1.4678 -0.2090  1.1029
18539TIP3    H277033   0.950   5.114  16.028 -0.0899 -0.6458  0.9424
18540TIP3   OH277034   2.199   6.180   3.365  0.2477 -0.2677 -0.2981
18540TIP3    H177035   2.291   6.168   3.389  0.4044 -0.8491 -1.1494
18540TIP3    H277036   2.154   6.194   3.448  1.2870  1.3412  0.0382
18541TIP3   OH277037   3.936   2.327  15.264 -0.2509 -0.3942  0.1053
18541TIP3    H177038   3.892   2.404  15.228  2.3904  2.4022  2.3407
18541TIP3    H277039   3.909   2.324  15.355  2.9663  0.7367  1.2491
18542TIP3   OH277040   3.331   2.909   4.072 -0.7302  0.3059  0.7879
18542TIP3    H177041   3.401   2.950   4.021  0.1065 -1.0464  0.8010
18542TIP3    H277042   3.263   2.889   4.007 -0.1620 -0.3490  0.3767
18543TIP3   OH277043   2.658   5.967   3.021  0.1540 -0.9245  0.0248
18543TIP3    H177044   2.646   5.900   2.953 -1.3151 -0.2408 -0.4476
18543TIP3    H277045   2.569   5.997   3.040  0.8465  2.0487 -0.9672
18544TIP3   OH277046   6.320   1.158   2.752 -0.0403 -0.1225  0.8242
18544TIP3    H177047   6.349   1.245   2.725 -1.6396  0.3811  0.6121
18544TIP3    H277048   6.398   1.103   2.742  0.7744  1.0954  0.1234
18545TIP3   OH277049   5.184   5.803  12.466 -0.0782  0.0687 -0.0230
18545TIP3    H177050   5.219   5.891  12.453  1.3372 -0.3533  0.6803
18545TIP3    H277051   5.177   5.767  12.377  0.7139  0.4107 -0.2363
18546TIP3   OH277052   1.148   1.830  11.983  0.3222 -0.5886  0.1729
18546TIP3    H177053   1.066   1.819  12.030  1.4068  1.5527  2.8938
18546TIP3    H277054   1.135   1.786  11.899 -3.1633 -1.2448  0.9252
18547TIP3   OH277055   2.230   5.401  15.092 -0.3358 -0.0253  0.4610
18547TIP3    H177056   2.273   5.318  15.115 -1.0148 -0.2843  0.8004
18547TIP3    H277057   2.279   5.432  15.016 -1.3993 -1.8236 -1.0480
18548TIP3   OH277058   3.840   6.632   5.136 -0.2288  0.8004  0.1493
18548TIP3    H177059   3.783   6.555   5.136  0.2420  0.4349  1.1713
18548TIP3    H277060   3.929   6.595   5.136 -0.0013  1.3397  0.9728
18549TIP3   OH277061   1.667   2.897  13.675  0.6138 -0.2079 -0.5169
18549TIP3    H177062   1.580   2.860  13.684  0.3789  0.3509 -0.4732
18549TIP3    H277063   1.687   2.934  13.761  1.6249 -1.8896  0.0144
18550TIP3   OH277064   3.469   5.312  15.172  0.0495 -0.0102  0.0256
18550TIP3    H177065   3.452   5.405  15.186  0.2228  0.0147  0.0684
18550TIP3    H277066   3.547   5.293  15.224  0.5808  0.0391 -0.7242
18551TIP3   OH277067   2.601   4.154  16.874 -0.2986 -0.0976 -0.2208
18551TIP3    H177068   2.558   4.092  16.816 -1.1371  0.5221 -0.2884
18551TIP3    H277069   2.602   4.111  16.959 -0.5035 -0.3736 -0.3574
18552TIP3   OH277070   0.909   0.274   2.999  0.2138 -0.5509  0.6296
18552TIP3    H177071   0.824   0.256   2.957  0.7068 -0.6755 -0.3340
18552TIP3    H277072   0.887   0.286   3.091 -0.9996  0.5094  0.2318
18553TIP3   OH277073   0.843   2.075  14.063 -1.1293  0.0473  0.0261
18553TIP3    H177074   0.807   1.999  14.018 -0.5850 -0.7538  0.8962
18553TIP3    H277075   0.930   2.047  14.092 -1.5742  0.4038  1.8454
18554TIP3   OH277076   1.704   5.382  13.101  0.4746  0.4094 -0.1318
18554TIP3    H177077   1.672   5.427  13.180  1.5816  0.8854  0.0576
18554TIP3    H277078   1.669   5.294  13.109  0.8513  0.3426  1.0838
18555TIP3   OH277079   3.921   4.985   0.275 -0.0962  0.5849 -0.4268
18555TIP3    H177080   3.836   5.016   0.306 -1.7830 -1.0558 -2.9750
18555TIP3    H277081   3.916   4.994   0.180  2.5298  0.2433 -0.6509
18556TIP3   OH277082   1.381   4.053  15.998 -0.3600  0.1007  0.1910
18556TIP3    H177083   1.427   4.021  16.075  0.1597 -1.6669 -0.8100
18556TIP3    H277084   1.371   3.976  15.942 -0.9883  1.2799 -1.3840
18557TIP3   OH277085   5.054   0.306   5.447 -0.2712  0.0804 -0.1810
18557TIP3    H177086   4.962   0.298   5.473  0.0184 -1.7797  0.4254
18557TIP3    H277087   5.084   0.216   5.439  1.4607  0.6619 -0.5947
18558TIP3   OH277088   2.215   4.654  14.446 -0.3053 -0.2838 -0.2662
18558TIP3    H177089   2.181   4.742  14.463  0.3800 -0.4451  2.2375
18558TIP3    H277090   2.265   4.663  14.365  1.6907  2.2117  1.1211
18559TIP3   OH277091   0.989   4.571   0.207 -0.5021 -0.2669  0.5168
18559TIP3    H177092   1.081   4.555   0.228 -0.9747 -0.8553  2.3727
18559TIP3    H277093   0.949   4.484   0.209 -1.6468  0.2358  2.9110
18560TIP3   OH277094   5.576   5.869   0.160 -0.2503 -0.2408 -1.2199
18560TIP3    H177095   5.624   5.804   0.110 -0.9833  0.1975 -2.5509
18560TIP3    H277096   5.638   5.942   0.170  0.7982 -1.3274  0.8412
18561TIP3   OH277097   2.326   3.048   0.958  0.6266 -1.0847 -0.3405
18561TIP3    H177098   2.280   3.072   0.878 -1.3137  0.4516  1.1403
18561TIP3    H277099   2.401   3.108   0.962 -0.2143 -0.0260 -0.1911
18562TIP3   OH277100   0.511   4.956  16.412 -0.6787  0.6551 -0.3230
18562TIP3    H177101   0.561   5.035  16.388 -0.5713  0.9696  0.8894
18562TIP3    H277102   0.420   4.985  16.411 -0.5976  0.9649  0.7196
18563TIP3   OH277103   4.186   0.806   4.467  0.1790 -0.2525  0.2512
18563TIP3    H177104   4.163   0.853   4.387 -3.1690  1.1595  1.8658
18563TIP3    H277105   4.163   0.715   4.450  0.4432 -0.1472 -0.6925
18564TIP3   OH277106   1.442   1.295  10.968 -0.0450  0.3563 -0.0752
18564TIP3    H177107   1.426   1.248  10.886 -1.7235  1.6297 -0.5559
18564TIP3    H277108   1.537   1.299  10.975  0.1538  0.1774 -1.9671
18565TIP3   OH277109   0.415   0.851  16.628 -0.3401  0.1495  0.3885
18565TIP3    H177110   0.451   0.796  16.698 -1.1950 -1.1662 -0.1646
18565TIP3    H277111   0.320   0.837  16.634 -0.3684 -0.7961 -1.6527
18566TIP3   OH277112   0.916   2.894  17.302  0.4811 -0.2103  0.1442
18566TIP3    H177113   0.999   2.874  17.259  2.0936  1.8547  2.0078
18566TIP3    H277114   0.910   2.831  17.374  1.6313  0.9598  1.3294
18567TIP3   OH277115   5.427   0.578   2.607  0.4180  0.4690 -0.1639
18567TIP3    H177116   5.345   0.530   2.595  0.4366  0.2042  0.6802
18567TIP3    H277117   5.467   0.580   2.520 -1.2249  2.0058 -0.9411
18568TIP3   OH277118   5.909   4.698  15.588  0.1294  0.2390 -0.3643
18568TIP3    H177119   5.920   4.635  15.659  0.1081 -0.3203 -0.8466
18568TIP3    H277120   5.815   4.695  15.568 -0.0671  1.2373  0.3385
18569TIP3   OH277121   3.252   1.205   3.198 -0.5853 -0.0864 -0.0219
18569TIP3    H177122   3.241   1.269   3.128  1.1378  0.0477 -0.1895
18569TIP3    H277123   3.278   1.256   3.274  0.1604 -0.5120  0.0156
18570TIP3   OH277124   3.637   2.618   0.381  0.1418  0.3563  0.3240
18570TIP3    H177125   3.612   2.581   0.466 -0.6230 -0.1693 -0.1182
18570TIP3    H277126   3.729   2.641   0.391  1.1665 -3.1253  0.1136
18571TIP3   OH277127   2.457   6.577   2.833 -0.3045 -0.4937  0.4335
18571TIP3    H177128   2.451   6.500   2.889  1.0605 -1.4480 -0.6720
18571TIP3    H277129   2.543   6.615   2.853 -0.1748 -0.3402 -0.3573
18572TIP3   OH277130   5.811   3.348   1.717 -0.6778  0.0768  0.1419
18572TIP3    H177131   5.758   3.401   1.777  0.4672 -1.2991  2.5144
18572TIP3    H277132   5.811   3.261   1.755  2.5209 -0.2132 -0.1989
18573TIP3   OH277133   3.240   0.060   1.139  0.2231  0.1376 -0.4465
18573TIP3    H177134   3.228   0.133   1.199 -1.8726  0.1307 -0.7813
18573TIP3    H277135   3.335   0.057   1.124  0.7507  0.5360  2.2903
18574TIP3   OH277136   6.491   3.793   3.943 -0.0052 -0.3756  0.4906
18574TIP3    H177137   6.501   3.855   4.015  1.6129 -0.4514  0.3604
18574TIP3    H277138   6.432   3.837   3.882  1.6755  1.3834  0.0565
18575TIP3   OH277139   0.970   0.213   0.960 -0.1768  0.1674 -0.0185
18575TIP3    H177140   0.961   0.292   1.013 -0.1999 -0.3124  0.7157
18575TIP3    H277141   1.057   0.220   0.920 -0.8641  1.4142 -1.4240
18576TIP3   OH277142   4.827   2.246  16.237  0.7233  0.2672  0.2452
18576TIP3    H177143   4.811   2.334  16.204 -0.9383 -0.8098 -2.0441
18576TIP3    H277144   4.740   2.211  16.257  1.2219 -1.3168 -0.2114
18577TIP3   OH277145   0.746   5.691  17.259 -0.7394 -0.3279  0.2306
18577TIP3    H177146   0.715   5.605  17.286 -3.7002  0.9139  1.1336
18577TIP3    H277147   0.774   5.733  17.341  0.6533 -0.3799 -0.1987
18578TIP3   OH277148   3.195   0.333   6.562 -0.1955  0.3080  0.2843
18578TIP3    H177149   3.153   0.257   6.522 -1.6477  1.9949 -1.6212
18578TIP3    H277150   3.278   0.342   6.515 -0.0146 -0.0559  0.5210
18579TIP3   OH277151   5.041   2.788  12.938 -0.3442  0.0563  0.3139
18579TIP3    H177152   5.071   2.725  12.872  0.5139  2.2382 -1.5301
18579TIP3    H277153   4.945   2.785  12.932 -0.2839  0.8069 -1.7118
18580TIP3   OH277154   3.404   6.101  16.400 -0.0896 -0.0204 -0.7475
18580TIP3    H177155   3.347   6.045  16.453 -1.0306  0.2422 -1.4488
18580TIP3    H277156   3.416   6.052  16.318  0.4084  0.0871 -0.7392
18581TIP3   OH277157   4.102   2.185   3.574  0.5700  0.2807 -0.3693
18581TIP3    H177158   4.063   2.170   3.488  2.1634 -2.6893 -0.6903
18581TIP3    H277159   4.032   2.167   3.636  0.0837 -0.0402 -0.9997
18582TIP3   OH277160   4.885   0.368   0.406 -0.4974 -0.3760  0.4798
18582TIP3    H177161   4.822   0.431   0.443 -1.2958  0.2570 -1.7999
18582TIP3    H277162   4.906   0.403   0.319  0.5721 -2.2583 -0.0742
18583TIP3   OH277163   0.266   1.095  15.443 -0.2528  0.1938  0.2367
18583TIP3    H177164   0.318   1.031  15.393  2.1146  2.2789 -0.2008
18583TIP3    H277165   0.282   1.072  15.534 -0.7249 -0.7693  0.0930
18584TIP3   OH277166   6.285   2.747  14.574  0.4448 -0.4130 -0.5082
18584TIP3    H177167   6.254   2.764  14.485  0.4718  0.2136 -0.4055
18584TIP3    H277168   6.380   2.747  14.567  0.4463 -1.8738 -0.7397
18585TIP3   OH277169   0.182   5.927  10.815  0.4608 -0.4900  0.4572
18585TIP3    H177170   0.161   5.875  10.892 -0.7300 -1.5436 -0.5479
18585TIP3    H277171   0.197   5.863  10.745  1.7553  0.4309 -0.1544
18586TIP3   OH277172   3.836   4.626  13.482  0.0397 -0.2278  0.5152
18586TIP3    H177173   3.890   4.557  13.443 -0.3368  0.3412 -1.0837
18586TIP3    H277174   3.842   4.699  13.420 -2.1753  0.0248  0.5080
18587TIP3   OH277175   4.177   0.092  11.855 -0.4602 -0.4868  0.2010
18587TIP3    H177176   4.092   0.067  11.819 -0.4839 -0.5512  0.2999
18587TIP3    H277177   4.160   0.111  11.947 -0.6319  0.8780 -0.0870
18588TIP3   OH277178   2.544   5.178  14.301  0.3581  0.6432 -0.3509
18588TIP3    H177179   2.636   5.184  14.325  0.0859  2.1119  0.4697
18588TIP3    H277180   2.539   5.217  14.214  0.2325  2.7287  0.5212
18589TIP3   OH277181   1.867   5.039   0.434  0.4124 -0.0481 -0.0057
18589TIP3    H177182   1.800   5.013   0.498  0.1679  0.2157 -0.1516
18589TIP3    H277183   1.950   5.028   0.480  0.1654  2.2266  1.1506
18590TIP3   OH277184   0.821   4.360  16.748  0.0093  0.1777  0.4752
18590TIP3    H177185   0.785   4.335  16.663 -1.2156  1.1529  0.6861
18590TIP3    H277186   0.879   4.433  16.729  1.0941 -0.6916  0.2840
18591TIP3   OH277187   6.592   2.165  13.417  0.9020  0.5380 -0.5539
18591TIP3    H177188   6.619   2.114  13.341 -1.2631 -0.1654 -0.9309
18591TIP3    H277189   6.502   2.190  13.398 -0.8577 -2.2224  2.9669
18592TIP3   OH277190   0.295   5.512   4.739 -0.0009 -0.5696 -0.0788
18592TIP3    H177191   0.338   5.427   4.736  0.8456 -0.2248  1.1928
18592TIP3    H277192   0.367   5.575   4.733 -0.6899  0.0888 -1.9282
18593TIP3   OH277193   4.293   1.674  12.280 -0.1445  0.4742 -0.4433
18593TIP3    H177194   4.231   1.740  12.310 -0.5014 -0.1921  0.3082
18593TIP3    H277195   4.339   1.645  12.359  1.6451  1.4517 -1.0644
18594TIP3   OH277196   3.967   6.453  16.085  0.2258 -0.6678 -0.7153
18594TIP3    H177197   3.895   6.515  16.089  0.1743 -0.7880  1.9394
18594TIP3    H277198   4.032   6.494  16.027 -0.4684  1.1230 -0.2662
18595TIP3   OH277199   1.439   2.137  16.083  0.3452  0.2796 -0.3528
18595TIP3    H177200   1.386   2.059  16.099  0.7845  0.5330  2.9265
18595TIP3    H277201   1.442   2.144  15.988  1.5096 -4.5256 -0.9356
18596TIP3   OH277202   2.701   5.593   2.727 -0.9182  0.0793  0.0189
18596TIP3    H177203   2.669   5.638   2.649 -3.0248  1.1809  1.4337
18596TIP3    H277204   2.640   5.521   2.740 -0.4120 -0.2725  0.5086
18597TIP3   OH277205   6.047   6.409  11.459  0.0939  0.2202  0.2907
18597TIP3    H177206   6.024   6.337  11.518 -0.9523  0.3902  0.1017
18597TIP3    H277207   6.087   6.475  11.516 -2.0357  0.9279  1.0877
18598TIP3   OH277208   4.532   2.344  11.393  0.1964 -0.4162 -0.4451
18598TIP3    H177209   4.472   2.371  11.324  0.2080 -1.2317 -0.7850
18598TIP3    H277210   4.617   2.381  11.367 -0.1514  0.7924  0.0719
18599TIP3   OH277211   6.302   3.131  14.197 -0.2536 -0.2684 -0.1489
18599TIP3    H177212   6.222   3.101  14.154 -0.7174  0.4144  0.2290
18599TIP3    H277213   6.301   3.226  14.185  0.3882 -0.2317  0.0587
18600TIP3   OH277214   2.563   5.936   5.240 -0.2778 -0.1803  0.1229
18600TIP3    H177215   2.575   5.853   5.195 -1.7631 -0.1288 -0.4276
18600TIP3    H277216   2.497   5.918   5.308  2.2647 -0.3805  2.7147
18601TIP3   OH277217   1.412   3.576  14.234  0.8349 -0.4314  0.3746
18601TIP3    H177218   1.494   3.573  14.284  0.7115  0.1999  0.6297
18601TIP3    H277219   1.350   3.528  14.288  0.7505  0.0848  0.7518
18602TIP3   OH277220   2.329   1.402   0.371  0.3039 -0.1194  0.4493
18602TIP3    H177221   2.243   1.359   0.367  1.0185 -1.7326  1.4586
18602TIP3    H277222   2.370   1.383   0.287  0.0327 -0.1088  0.3121
18603TIP3   OH277223   1.283   4.280  11.132  0.0583  0.2979 -0.6889
18603TIP3    H177224   1.245   4.297  11.045 -0.8303 -0.7632 -0.5293
18603TIP3    H277225   1.292   4.185  11.135 -1.6780  0.1298  1.0715
18604TIP3   OH277226   5.729   2.982  12.020 -0.1248 -0.1164 -0.6442
18604TIP3    H177227   5.728   3.063  12.072  1.6601 -0.5181  0.0761
18604TIP3    H277228   5.764   3.010  11.935 -2.8292  0.4949 -1.6642
18605TIP3   OH277229   5.519   1.200   4.955  0.0085  0.3333  0.7411
18605TIP3    H177230   5.589   1.201   4.890 -0.4872 -0.3892  0.1803
18605TIP3    H277231   5.558   1.242   5.032  0.6983  0.9353  0.0869
18606TIP3   OH277232   5.701   2.584  12.898 -0.7655  0.9486  0.1822
18606TIP3    H177233   5.674   2.578  12.807 -0.5245 -0.8025  0.1781
18606TIP3    H277234   5.744   2.669  12.906  0.0113  0.7536 -1.5627
18607TIP3   OH277235   4.771   5.212  15.531  0.0490  0.4034  0.3105
18607TIP3    H177236   4.781   5.306  15.518 -2.8997  0.7816 -0.0163
18607TIP3    H277237   4.776   5.200  15.625  2.5300  0.5146  0.2454
18608TIP3   OH277238   5.938   5.372  14.865  0.5732 -0.1396  0.0606
18608TIP3    H177239   6.024   5.391  14.828  1.0313  0.4048  1.3468
18608TIP3    H277240   5.942   5.405  14.955 -0.9666 -0.1477  0.1681
18609TIP3   OH277241   2.989   5.873   2.055  0.5404  0.0836  0.1830
18609TIP3    H177242   2.896   5.895   2.054  0.0445 -1.6516  1.4771
18609TIP3    H277243   3.024   5.919   2.131  0.6385  0.4052 -0.0583
18610TIP3   OH277244   4.874   2.184  11.602  0.1761 -0.6489 -0.2729
18610TIP3    H177245   4.815   2.123  11.559  0.7621 -1.8501  0.5712
18610TIP3    H277246   4.821   2.263  11.616 -0.7913 -1.1910 -0.7977
18611TIP3   OH277247   3.605   2.494  11.588 -1.0500 -0.0211  0.1109
18611TIP3    H177248   3.638   2.409  11.617  0.4582 -0.6545 -2.9575
18611TIP3    H277249   3.616   2.552  11.663  2.4036 -1.4588  0.8892
18612TIP3   OH277250   0.611   1.511   2.897  0.1243  0.0216  0.4729
18612TIP3    H177251   0.595   1.447   2.827 -2.1734  0.1698  0.7814
18612TIP3    H277252   0.579   1.468   2.976  0.5627  0.7381  1.0495
18613TIP3   OH277253   2.978   5.596  17.199 -0.2641 -0.3859 -0.6433
18613TIP3    H177254   3.022   5.533  17.257 -1.1256 -0.3040  0.1106
18613TIP3    H277255   3.049   5.632  17.145  0.5306 -0.5589  0.2610
18614TIP3   OH277256   5.121   0.342  12.529  0.1952  0.3167  0.6936
18614TIP3    H177257   5.196   0.352  12.587 -0.1236  0.3337  1.1023
18614TIP3    H277258   5.076   0.263  12.560 -0.0950  0.4463  0.6088
18615TIP3   OH277259   2.987   6.455  16.197 -0.0519  0.1838 -0.7463
18615TIP3    H177260   3.020   6.535  16.239  0.6310  0.1888 -1.2829
18615TIP3    H277261   2.927   6.418  16.262 -2.2602  2.3582 -1.3700
18616TIP3   OH277262   1.153   4.733  14.775 -0.2462  0.1149 -0.1227
18616TIP3    H177263   1.086   4.766  14.834  0.4270  1.5741 -0.1340
18616TIP3    H277264   1.183   4.810  14.726  0.4008 -0.7580 -1.1654
18617TIP3   OH277265   0.368   4.297   3.837  0.1805 -0.3383  0.0338
18617TIP3    H177266   0.455   4.309   3.876 -0.2850 -0.5280  1.1526
18617TIP3    H277267   0.385   4.287   3.743  1.2433  1.1877  0.0246
18618TIP3   OH277268   1.114   4.201   3.514  0.1360 -0.3723  0.2466
18618TIP3    H177269   1.035   4.243   3.548 -0.1386 -1.3053  0.8065
18618TIP3    H277270   1.146   4.261   3.446 -1.3518 -0.2517 -0.3842
18619TIP3   OH277271   2.724   6.005  16.384  0.2530  0.0149 -0.1888
18619TIP3    H177272   2.710   5.977  16.294  0.4557 -1.3258  0.1718
18619TIP3    H277273   2.636   6.012  16.421  0.1951 -0.2155 -0.2792
18620TIP3   OH277274   5.829   0.226   2.728  0.0404 -1.0702  0.5331
18620TIP3    H177275   5.744   0.261   2.755 -0.4058 -1.5495 -0.2440
18620TIP3    H277276   5.884   0.304   2.717 -0.6534 -0.6742 -0.1853
18621TIP3   OH277277   5.123   3.641   3.509 -0.1536  0.7291 -0.1768
18621TIP3    H177278   5.039   3.668   3.546  0.6923  2.1656  0.7592
18621TIP3    H277279   5.102   3.613   3.420 -1.7549  0.1670  0.3436
18622TIP3   OH277280   2.627   0.204  13.165 -0.3579  0.2414 -0.2406
18622TIP3    H177281   2.537   0.180  13.144 -0.3515  0.8177 -0.9948
18622TIP3    H277282   2.619   0.267  13.237 -0.6370  1.0694 -0.9752
18623TIP3   OH277283   2.236   5.496   5.742 -0.0614  0.0661  0.9534
18623TIP3    H177284   2.297   5.477   5.813 -0.1775  1.6150  1.4950
18623TIP3    H277285   2.150   5.477   5.779 -0.1483  1.2062  1.3652
18624TIP3   OH277286   0.423   0.095  13.697  0.6087 -0.0163  1.0179
18624TIP3    H177287   0.405   0.180  13.737 -0.0704 -0.1646  1.0380
18624TIP3    H277288   0.354   0.038  13.729 -0.0318 -0.1100 -0.4611
18625TIP3   OH277289   1.262   5.051  16.067  0.6285  0.1184 -0.3523
18625TIP3    H177290   1.173   5.086  16.068  0.5360 -0.1241  0.1235
18625TIP3    H277291   1.304   5.095  15.993 -0.3923 -1.0254 -1.6602
18626TIP3   OH277292   3.447   3.600  14.792 -0.7554  0.4461  0.1425
18626TIP3    H177293   3.447   3.570  14.883  0.2155  0.5319  0.1814
18626TIP3    H277294   3.438   3.695  14.798 -0.3356  0.4863  0.1690
18627TIP3   OH277295   6.602   0.922  10.962  0.4946 -0.1233  0.4040
18627TIP3    H177296   6.537   0.889  10.900  1.7542 -0.6512 -0.6950
18627TIP3    H277297   6.575   1.011  10.981 -0.7185 -0.4440  0.2216
18628TIP3   OH277298   1.962   3.747  15.320  0.6346  0.6500 -0.0494
18628TIP3    H177299   2.002   3.806  15.385 -0.7112  0.4941  0.9740
18628TIP3    H277300   1.935   3.671  15.371 -0.6295  0.6046 -0.7538
18629TIP3   OH277301   2.414   5.613   6.238  0.1693  0.2020  0.2267
18629TIP3    H177302   2.332   5.662   6.249 -1.0238 -1.4142 -0.9238
18629TIP3    H277303   2.417   5.554   6.313  0.3369  0.3467  0.3329
18630TIP3   OH277304   6.077   6.144  11.169 -0.3985  0.1705 -0.4793
18630TIP3    H177305   6.131   6.154  11.090 -1.1958 -1.8007 -1.3471
18630TIP3    H277306   6.140   6.125  11.239  0.1715 -0.1456 -1.0665
18631TIP3   OH277307   0.414   1.071   1.951  0.2553 -0.5143  0.2425
18631TIP3    H177308   0.369   1.137   2.003 -2.1132 -1.3406 -0.6087
18631TIP3    H277309   0.507   1.090   1.963 -0.2895  1.5095  1.8483
18632TIP3   OH277310   1.047   1.364   1.673 -0.3732  0.3920 -0.2222
18632TIP3    H177311   1.016   1.280   1.641  0.0909  0.6363 -1.3429
18632TIP3    H277312   0.969   1.420   1.672 -0.5192  0.1894 -0.2061
18633TIP3   OH277313   5.080   2.834   1.360 -0.5202  0.0684 -0.1532
18633TIP3    H177314   5.171   2.812   1.378 -0.5302 -0.6031 -0.8991
18633TIP3    H277315   5.030   2.790   1.429 -0.4043 -0.8954 -0.6705
18634TIP3   OH277316   0.341   2.725  17.331  0.0976  0.1420  0.3149
18634TIP3    H177317   0.411   2.669  17.362  0.8171  0.9567  0.2120
18634TIP3    H277318   0.347   2.719  17.235  0.2601  0.4791  0.3017
18635TIP3   OH277319   4.035   3.279   1.870  0.1929 -0.1535  0.2787
18635TIP3    H177320   4.110   3.338   1.864  0.1341 -0.1319 -0.3517
18635TIP3    H277321   4.032   3.252   1.962 -1.1668  2.6030  1.1543
18636TIP3   OH277322   0.201   0.304  14.091 -0.3913  0.6015  0.1481
18636TIP3    H177323   0.109   0.319  14.112 -0.8266  0.0146 -1.1930
18636TIP3    H277324   0.205   0.212  14.065  0.4761  0.7513 -0.2784
18637TIP3   OH277325   3.232   2.941  13.783 -0.0094  0.7722 -0.7181
18637TIP3    H177326   3.290   2.870  13.757  0.9411  1.1410  0.3577
18637TIP3    H277327   3.207   2.982  13.700  1.2515  0.6031 -1.2007
18638TIP3   OH277328   1.989   1.478  14.150  0.4772 -0.1511  0.3369
18638TIP3    H177329   2.048   1.464  14.075 -0.3296  1.3241 -0.6260
18638TIP3    H277330   2.024   1.556  14.192  0.1715 -0.2363  0.7473
18639TIP3   OH277331   0.172   2.018   2.727 -0.2654 -0.1010 -0.0419
18639TIP3    H177332   0.211   2.105   2.719  1.1712 -0.8435 -1.9215
18639TIP3    H277333   0.175   1.999   2.821 -0.6007  1.8361  0.4084
18640TIP3   OH277334   0.192   3.487  16.178  0.1892  0.1280  0.4425
18640TIP3    H177335   0.279   3.457  16.204  0.3232 -0.6845 -0.8147
18640TIP3    H277336   0.207   3.575  16.143  0.4213  0.2019  0.7259
18641TIP3   OH277337   1.923   5.308  13.366 -0.2290  0.4996  0.2088
18641TIP3    H177338   1.917   5.262  13.450 -0.6062  1.4627  0.7292
18641TIP3    H277339   1.873   5.253  13.305 -0.7100  0.2512  0.8202
18642TIP3   OH277340   5.716   4.897  12.506 -0.3599 -0.3218  0.0884
18642TIP3    H177341   5.647   4.862  12.449 -3.2347 -0.3792  3.2252
18642TIP3    H277342   5.749   4.820  12.553  0.3697 -0.0212  0.0825
18643TIP3   OH277343   4.711   0.288  16.887  0.1059 -0.8271 -0.3565
18643TIP3    H177344   4.694   0.194  16.880 -1.8618 -0.5766  0.3452
18643TIP3    H277345   4.750   0.311  16.803  1.0055 -2.3359 -0.3858
18644TIP3   OH277346   2.109   6.732   0.281  0.2258 -0.0826 -0.1067
18644TIP3    H177347   2.027   6.683   0.272 -0.2748  0.1543  2.4300
18644TIP3    H277348   2.176   6.665   0.291 -0.1828 -0.3011  1.3526
18645TIP3   OH277349   6.119   3.959   5.356  0.5028  0.1776  0.3399
18645TIP3    H177350   6.134   4.041   5.402 -0.0762  1.3001 -1.3447
18645TIP3    H277351   6.052   3.914   5.406 -0.6564  1.7049  0.2116
18646TIP3   OH277352   1.456   6.018   0.610 -0.2932 -0.1290 -0.2980
18646TIP3    H177353   1.450   5.935   0.562 -0.8274 -0.2564 -0.0154
18646TIP3    H277354   1.378   6.019   0.666  0.3274  0.0039  0.5887
18647TIP3   OH277355   0.722   1.154   5.865 -0.3345  0.5414  0.3418
18647TIP3    H177356   0.765   1.090   5.809 -0.7720 -1.2274  1.9022
18647TIP3    H277357   0.792   1.213   5.893  0.3577 -0.0680 -0.0791
18648TIP3   OH277358   3.079   0.407  12.577 -0.6098 -0.1849 -0.9759
18648TIP3    H177359   3.098   0.416  12.671 -0.3022  0.4389 -1.0892
18648TIP3    H277360   3.109   0.490  12.539  0.1755 -0.8084 -1.7725
18649TIP3   OH277361   5.546   2.124   1.937 -0.4477 -0.1104 -0.1654
18649TIP3    H177362   5.531   2.097   2.028 -0.4423  0.5223  0.0262
18649TIP3    H277363   5.636   2.155   1.935 -0.2437 -0.7015 -0.5362
18650TIP3   OH277364   0.637   3.157   0.089 -0.2032 -0.1465  0.4544
18650TIP3    H177365   0.623   3.116   0.174  1.7265  0.4550  1.1011
18650TIP3    H277366   0.604   3.093   0.026 -0.1001 -1.3325  1.5629
18651TIP3   OH277367   0.208   3.658   2.661  0.1259  0.0602 -0.1179
18651TIP3    H177368   0.241   3.570   2.682  0.6787 -0.1214 -1.6168
18651TIP3    H277369   0.118   3.643   2.633 -0.1627  0.1376  0.7243
18652TIP3   OH277370   4.216   1.451   2.779 -0.2673  0.1915 -0.2444
18652TIP3    H177371   4.157   1.493   2.716  0.6502 -0.0681 -1.3130
18652TIP3    H277372   4.196   1.357   2.771 -0.5151  0.2035  0.2390
18653TIP3   OH277373   3.960   1.099  11.659 -0.1180  0.1945 -0.5984
18653TIP3    H177374   4.051   1.116  11.632  0.5836 -1.9263  0.2477
18653TIP3    H277375   3.967   1.058  11.745 -1.8836 -0.1141 -0.5599
18654TIP3   OH277376   0.231   0.138   4.503 -0.6278 -0.2591 -0.0623
18654TIP3    H177377   0.285   0.131   4.581  1.2026  1.5836 -1.0520
18654TIP3    H277378   0.285   0.102   4.433 -0.4083  2.0401 -1.1600
18655TIP3   OH277379   3.889   4.445   3.816 -0.2985  0.3277  0.1529
18655TIP3    H177380   3.818   4.445   3.752 -0.5333  0.2682  0.4121
18655TIP3    H277381   3.968   4.433   3.764 -0.5082  0.0530 -0.1049
18656TIP3   OH277382   1.917   6.053  14.255 -0.1584  0.8316 -0.3424
18656TIP3    H177383   1.957   6.025  14.173  2.5576  1.4003  0.6737
18656TIP3    H277384   1.840   5.997  14.265 -0.6174  0.8069 -3.2645
18657TIP3   OH277385   1.257   2.081   1.269  0.3413  0.0081  0.1854
18657TIP3    H177386   1.235   1.993   1.238  2.0976 -0.3280 -0.2225
18657TIP3    H277387   1.204   2.093   1.348  0.7414 -1.7824  0.7634
18658TIP3   OH277388   5.201   1.633  15.060  0.0591 -0.2070 -0.0359
18658TIP3    H177389   5.122   1.683  15.043  0.2711  0.8747  1.8382
18658TIP3    H277390   5.264   1.664  14.995 -1.3297 -2.0350 -2.4407
18659TIP3   OH277391   3.210   1.346   0.889 -0.0952  0.0227  0.9247
18659TIP3    H177392   3.233   1.382   0.975  3.8869 -0.5118  0.2874
18659TIP3    H277393   3.190   1.423   0.835 -1.1369  0.4684  1.9063
18660TIP3   OH277394   5.173   0.589   3.782  0.0577 -0.1713 -0.2884
18660TIP3    H177395   5.245   0.590   3.845 -0.2548 -0.2869  0.0753
18660TIP3    H277396   5.114   0.658   3.812 -0.1201 -0.2651 -0.4212
18661TIP3   OH277397   5.976   1.084  13.240  0.7881 -0.3284 -0.4362
18661TIP3    H177398   6.051   1.126  13.198  0.8928  0.5488  0.6019
18661TIP3    H277399   5.983   0.992  13.214  1.8428 -0.1353 -0.8936
18662TIP3   OH277400   2.581   6.289  13.517 -0.0124  0.5958 -0.1373
18662TIP3    H177401   2.562   6.233  13.593  1.6693 -3.6007 -2.4552
18662TIP3    H277402   2.654   6.344  13.545  0.3162 -0.5740  1.4449
18663TIP3   OH277403   6.658   5.497   5.942 -0.1199 -0.1745  0.5253
18663TIP3    H177404   6.615   5.582   5.932  1.9384  0.7869 -0.7294
18663TIP3    H277405   6.663   5.484   6.037 -0.1450  1.2994  0.7548
18664TIP3   OH277406   5.764   2.873   2.992  0.3018  0.5813 -0.2080
18664TIP3    H177407   5.773   2.968   3.001  0.3922  0.4426  1.4675
18664TIP3    H277408   5.764   2.840   3.082  0.6097 -1.0477 -0.7696
18665TIP3   OH277409   3.020   4.590   3.192  0.2025  0.0829  0.1147
18665TIP3    H177410   2.982   4.645   3.123 -0.1138 -1.9055 -1.3867
18665TIP3    H277411   3.030   4.504   3.151  4.7479 -0.0192  0.9629
18666TIP3   OH277412   4.585   4.759   1.954  0.1499  0.0536 -0.1856
18666TIP3    H177413   4.505   4.708   1.943  0.5995 -0.4771 -1.0546
18666TIP3    H277414   4.647   4.699   1.995  1.1876 -0.6762 -2.6089
18667TIP3   OH277415   4.664   0.345   2.524 -0.3793  0.6639 -0.7654
18667TIP3    H177416   4.654   0.274   2.587  0.9812  0.6250 -0.5632
18667TIP3    H277417   4.595   0.408   2.547 -1.9272 -0.7911 -1.2617
18668TIP3   OH277418   3.954   1.855  15.071  0.1256 -0.6360  0.8812
18668TIP3    H177419   3.880   1.855  15.011  0.5709 -0.1686  0.3233
18668TIP3    H277420   3.991   1.943  15.064 -1.2175  0.2429  3.5777
18669TIP3   OH277421   4.156   2.977  11.843  0.0361  0.2730  0.0382
18669TIP3    H177422   4.077   2.948  11.889 -1.4289  3.1263 -0.4021
18669TIP3    H277423   4.184   3.055  11.891 -0.6603  2.4714 -2.8457
18670TIP3   OH277424   2.391   3.698   1.878  0.0479 -0.4079  0.6095
18670TIP3    H177425   2.364   3.635   1.945 -0.1886 -0.4375  0.4864
18670TIP3    H277426   2.319   3.698   1.815 -0.4892  0.8111  1.1787
18671TIP3   OH277427   2.798   0.263  13.754  0.0282  0.3765 -0.3891
18671TIP3    H177428   2.826   0.339  13.805  0.8120  1.1433 -1.9215
18671TIP3    H277429   2.838   0.274  13.668  1.2735 -2.4434 -0.2950
18672TIP3   OH277430   0.994   6.738  12.143  0.2139 -0.1050 -0.7329
18672TIP3    H177431   0.903   6.769  12.142  0.6544  1.2621 -0.4648
18672TIP3    H277432   1.036   6.785  12.072  1.1529  0.7477  0.3493
18673TIP3   OH277433   3.154   2.291  13.491  0.1586  0.0470  0.3029
18673TIP3    H177434   3.248   2.307  13.476  0.4730  0.1107  2.0589
18673TIP3    H277435   3.111   2.329  13.415  1.5308  0.4778 -0.3022
18674TIP3   OH277436   5.554   2.714  12.421  0.1925  0.1998 -0.1275
18674TIP3    H177437   5.611   2.663  12.479  1.6937  2.8814  0.9327
18674TIP3    H277438   5.574   2.682  12.333  1.1443 -0.9093  0.4673
18675TIP3   OH277439   1.952   4.232  16.559  0.4785 -0.7773  0.4209
18675TIP3    H177440   1.902   4.298  16.512 -0.3308 -2.1007 -0.6585
18675TIP3    H277441   1.943   4.256  16.651 -0.5616  0.0963  0.1077
18676TIP3   OH277442   5.147   1.772  11.798 -0.1038 -0.8844  0.4375
18676TIP3    H177443   5.161   1.770  11.892 -2.0189 -3.0169  0.7440
18676TIP3    H277444   5.091   1.849  11.783  1.4676  0.3927  0.7457
18677TIP3   OH277445   0.686   1.165   2.019  0.6694  0.3548  0.1330
18677TIP3    H177446   0.654   1.223   2.088  0.7065  2.6432 -1.6646
18677TIP3    H277447   0.714   1.224   1.949  1.5854 -1.8331 -1.4534
18678TIP3   OH277448   5.153   5.294   4.041  0.1349  0.4512 -0.3508
18678TIP3    H177449   5.183   5.220   4.095 -0.1112  0.8515  0.3497
18678TIP3    H277450   5.222   5.359   4.049 -0.4724  1.0153  0.5311
18679TIP3   OH277451   1.204   2.221   3.690  0.0782  0.6268 -0.1770
18679TIP3    H177452   1.136   2.182   3.746  1.5819 -1.2809  0.4541
18679TIP3    H277453   1.186   2.186   3.603  1.0525 -1.1147  0.2707
18680TIP3   OH277454   1.707   6.204  10.693  0.4617  0.1971  0.1262
18680TIP3    H177455   1.718   6.181  10.600 -2.0240 -2.4808  0.3483
18680TIP3    H277456   1.647   6.278  10.692 -0.3330 -0.4286 -0.4472
18681TIP3   OH277457   6.583   1.924  14.846  0.0188  0.7855  0.0687
18681TIP3    H177458   6.518   1.855  14.862  0.1318  0.2035 -1.7492
18681TIP3    H277459   6.643   1.917  14.921 -1.6022  0.8913  1.4309
18682TIP3   OH277460   2.736   2.590  15.584  0.1307  0.1840 -0.3351
18682TIP3    H177461   2.762   2.530  15.513 -0.0110 -0.0405 -0.2001
18682TIP3    H277462   2.646   2.565  15.604  0.7549 -1.0508  1.2060
18683TIP3   OH277463   0.331   4.392  12.807 -0.1368 -0.0337 -0.0312
18683TIP3    H177464   0.371   4.360  12.888  0.0336  1.4387  0.4949
18683TIP3    H277465   0.339   4.487  12.813 -0.4542  0.1081 -1.6191
18684TIP3   OH277466   0.518   6.599   4.918 -0.5305  0.4026  0.3392
18684TIP3    H177467   0.432   6.639   4.931 -0.4857  0.3040  0.9985
18684TIP3    H277468   0.503   6.529   4.855 -1.0969 -0.1382  1.0600
18685TIP3   OH277469   3.197   1.550  10.496 -0.3744  0.2837 -0.6088
18685TIP3    H177470   3.164   1.567  10.584 -0.3111  1.3687 -0.7823
18685TIP3    H277471   3.274   1.607  10.488 -0.7801  0.7057 -1.6124
18686TIP3   OH277472   3.696   4.645   1.659 -0.1105 -0.0979  0.5087
18686TIP3    H177473   3.759   4.648   1.588 -1.5725 -1.2311 -0.9257
18686TIP3    H277474   3.617   4.685   1.622 -1.5600 -2.5668  0.7109
18687TIP3   OH277475   6.578   4.417   6.092 -0.2426  0.2483 -0.6731
18687TIP3    H177476   6.508   4.357   6.066 -0.6658  0.6918 -0.5625
18687TIP3    H277477   6.647   4.359   6.125  0.0995 -0.2964 -2.2609
18688TIP3   OH277478   4.594   2.798  17.026  0.4259  0.2899  0.1478
18688TIP3    H177479   4.684   2.783  17.054  0.0966 -0.0214  1.0856
18688TIP3    H277480   4.578   2.890  17.046  0.0378 -0.0487  1.4980
18689TIP3   OH277481   3.635   4.295  13.439  0.3303 -0.5352 -0.1579
18689TIP3    H177482   3.633   4.387  13.468 -1.4246 -0.2218 -1.1406
18689TIP3    H277483   3.641   4.300  13.344  0.4704 -1.4579 -0.2045
18690TIP3   OH277484   4.369   2.641  13.288  0.2285 -0.0083  0.6072
18690TIP3    H177485   4.352   2.593  13.208 -0.3155 -0.6640  1.1019
18690TIP3    H277486   4.314   2.718  13.282 -0.3403 -0.4047  0.6568
18691TIP3   OH277487   4.883   4.351   5.607 -0.5634  0.0438  0.1828
18691TIP3    H177488   4.846   4.263   5.602  0.1884 -0.2966  0.5156
18691TIP3    H277489   4.971   4.343   5.571 -0.6849  0.7798 -0.3005
18692TIP3   OH277490   6.537   6.140  14.333  0.2055 -0.3393  0.4905
18692TIP3    H177491   6.594   6.180  14.268  0.9267 -0.1282  1.2341
18692TIP3    H277492   6.571   6.172  14.417 -1.5298  0.4887  0.9219
18693TIP3   OH277493   2.322   5.905  14.311 -0.1749  0.3660  0.6228
18693TIP3    H177494   2.278   5.981  14.348 -2.8955 -0.0476 -1.4399
18693TIP3    H277495   2.259   5.833  14.322  1.2636 -1.0133  0.2522
18694TIP3   OH277496   3.137   4.964  11.225 -0.1361 -0.3574 -0.1002
18694TIP3    H177497   3.181   5.046  11.247  1.9469 -1.0054 -1.6043
18694TIP3    H277498   3.176   4.900  11.284 -0.7796 -0.5503  0.1285
18695TIP3   OH277499   2.415   1.900  12.235  0.7111 -0.5208  0.0020
18695TIP3    H177500   2.351   1.832  12.254 -0.0000 -0.1817 -1.1239
18695TIP3    H277501   2.498   1.863  12.266 -0.2016 -0.3053  2.9936
18696TIP3   OH277502   6.495   1.633   1.571 -0.0927  0.3091 -0.6133
18696TIP3    H177503   6.549   1.640   1.492 -0.9095  1.5136 -1.0964
18696TIP3    H277504   6.528   1.701   1.629 -0.3000  0.2556 -0.4319
18697TIP3   OH277505   2.272   6.270   1.790 -0.3406  0.1385  0.0832
18697TIP3    H177506   2.310   6.187   1.760  0.9759  0.8408 -0.2923
18697TIP3    H277507   2.340   6.335   1.771 -0.9791  1.1707  1.2004
18698TIP3   OH277508   0.757   3.218   3.601 -0.4864  0.1100  0.1832
18698TIP3    H177509   0.672   3.215   3.646 -2.1077 -2.1731 -2.6379
18698TIP3    H277510   0.796   3.132   3.619 -0.8458 -0.5672 -2.0038
18699TIP3   OH277511   0.487   1.891   5.231 -0.0560  0.0462  0.4390
18699TIP3    H177512   0.408   1.838   5.229 -0.1238 -0.0093  2.4465
18699TIP3    H277513   0.483   1.944   5.152 -1.2538 -1.1413 -0.3273
18700TIP3   OH277514   1.651   5.016   0.604 -0.2738  0.4721  0.1693
18700TIP3    H177515   1.654   4.963   0.684 -0.2080  1.0906  0.5793
18700TIP3    H277516   1.629   5.104   0.634 -1.9745  0.3620 -0.6678
18701TIP3   OH277517   0.661   3.053   1.887  0.3582 -0.1096 -0.6116
18701TIP3    H177518   0.602   2.979   1.873 -2.6233  2.0224 -0.2839
18701TIP3    H277519   0.611   3.115   1.940  2.1317  2.7609 -2.0003
18702TIP3   OH277520   2.049   2.192   1.221 -0.0135  0.0704  0.0290
18702TIP3    H177521   2.052   2.130   1.149  1.6382  0.4746 -0.2819
18702TIP3    H277522   2.053   2.139   1.300  0.4075 -0.2657 -0.2181
18703TIP3   OH277523   6.720   4.222   0.621 -0.1905  0.1957  0.4636
18703TIP3    H177524   6.791   4.166   0.652 -0.0380  1.1717  1.9971
18703TIP3    H277525   6.649   4.162   0.598  0.6336 -0.7103  0.2651
18704TIP3   OH277526   5.699   0.260  13.280 -0.1780 -0.4825 -0.3276
18704TIP3    H177527   5.710   0.353  13.302  1.6023 -0.4850 -1.0995
18704TIP3    H277528   5.676   0.219  13.363  1.9310  0.2077  0.6621
18705TIP3   OH277529   5.092   2.431  12.016  0.0524 -0.2991  0.1158
18705TIP3    H177530   5.011   2.454  11.970  1.1221  1.7394 -0.8926
18705TIP3    H277531   5.124   2.353  11.971 -1.5903 -1.4542  0.8806
18706TIP3   OH277532   5.986   3.737   0.586 -0.4171 -0.2209  0.2743
18706TIP3    H177533   6.073   3.720   0.622 -0.0255  0.0572 -0.5135
18706TIP3    H277534   5.976   3.673   0.515 -1.2968 -0.9556  1.0264
18707TIP3   OH277535   4.344   2.467   5.251 -0.0981 -0.0982  0.1015
18707TIP3    H177536   4.323   2.478   5.344 -0.3785  2.2349 -0.1792
18707TIP3    H277537   4.434   2.500   5.243 -0.7298  1.5582 -0.7182
18708TIP3   OH277538   3.623   5.355   4.034 -0.0473  0.6045 -0.3599
18708TIP3    H177539   3.593   5.266   4.054  0.0846  0.6086 -0.1382
18708TIP3    H277540   3.568   5.383   3.961  0.9204 -0.2062 -1.4279
18709TIP3   OH277541   4.223   5.476  14.635 -0.2103 -0.2740  0.3006
18709TIP3    H177542   4.213   5.383  14.613 -1.9906  0.4240 -2.1990
18709TIP3    H277543   4.172   5.487  14.715  0.4628 -1.5225  0.9305
18710TIP3   OH277544   0.740   6.447   4.704  0.0403 -0.2341 -0.4678
18710TIP3    H177545   0.722   6.374   4.763 -0.5216 -1.7460 -2.4117
18710TIP3    H277546   0.655   6.488   4.691  0.1228 -0.0554 -0.4493
18711TIP3   OH277547   1.113   0.548   1.444 -0.4025 -0.0696 -0.1372
18711TIP3    H177548   1.062   0.628   1.457 -2.6162 -1.1559 -1.4107
18711TIP3    H277549   1.197   0.566   1.486 -1.4890  2.1948  1.3162
18712TIP3   OH277550   5.075   1.252  14.421 -0.1538  0.1253  0.0566
18712TIP3    H177551   5.086   1.270  14.515 -2.8038 -1.1410  0.7085
18712TIP3    H277552   5.117   1.166  14.409 -2.0011 -0.9248  0.7218
18713TIP3   OH277553   1.324   1.252   5.997 -0.7767  0.2438 -0.0217
18713TIP3    H177554   1.336   1.328   6.054 -0.9867  0.0491  0.2829
18713TIP3    H277555   1.404   1.201   6.009 -1.8876 -1.0971  2.0754
18714TIP3   OH277556   2.186   0.709   4.361  0.6544  0.0672  0.0564
18714TIP3    H177557   2.237   0.768   4.306  1.6437 -0.6195  0.2025
18714TIP3    H277558   2.239   0.629   4.366 -0.2415 -0.5142  0.5702
18715TIP3   OH277559   1.207   2.717   1.838 -0.3093 -0.0833  0.0082
18715TIP3    H177560   1.275   2.686   1.778  1.9790  1.3175  1.7065
18715TIP3    H277561   1.232   2.679   1.923 -0.5809  1.9202  1.0342
18716TIP3   OH277562   6.029   0.453   5.519 -0.1153 -0.3275 -0.2427
18716TIP3    H177563   5.935   0.444   5.504 -0.5601  0.7815  1.5516
18716TIP3    H277564   6.048   0.544   5.496  0.1165  0.0022  1.1675
18717TIP3   OH277565   3.361   0.083   5.059 -0.2893  0.0017  0.6450
18717TIP3    H177566   3.412   0.140   5.116  1.0831  0.8189 -1.3012
18717TIP3    H277567   3.275   0.079   5.100 -0.1893  2.7937  1.2999
18718TIP3   OH277568   3.377   3.763   3.978  0.5059  0.1209 -0.3422
18718TIP3    H177569   3.299   3.783   3.926 -0.9059 -0.8313  1.3059
18718TIP3    H277570   3.413   3.849   4.002 -1.6188  0.6821  1.0969
18719TIP3   OH277571   5.801   0.028  13.693  0.0638  0.2912  0.5684
18719TIP3    H177572   5.884   0.054  13.733 -0.2576 -0.6119  1.8916
18719TIP3    H277573   5.824   0.003  13.603  1.3713 -0.7135  1.1488
18720TIP3   OH277574   5.140   2.265  13.762  0.7798 -0.0128  0.4370
18720TIP3    H177575   5.082   2.310  13.823  0.0199 -0.1119 -0.2022
18720TIP3    H277576   5.143   2.175  13.795 -0.1250 -0.2185 -0.0114
18721TIP3   OH277577   6.330   0.840  11.276 -0.7589 -0.1168  0.3789
18721TIP3    H177578   6.403   0.820  11.334  0.7641 -1.0838 -1.7553
18721TIP3    H277579   6.254   0.800  11.319  0.5934 -2.2696  0.9063
18722TIP3   OH277580   0.277   1.787  11.360 -0.2649 -0.1789  0.3268
18722TIP3    H177581   0.345   1.745  11.307 -0.2030 -1.3700  1.2997
18722TIP3    H277582   0.195   1.760  11.319 -0.1899 -0.1386  0.1506
18723TIP3   OH277583   0.736   3.923   6.108  0.1298  0.4007 -0.4701
18723TIP3    H177584   0.687   3.965   6.178 -0.6305 -0.3134 -0.5652
18723TIP3    H277585   0.816   3.892   6.151 -1.7372 -3.0380  0.9890
18724TIP3   OH277586   4.699   3.753   2.747  0.3525  0.2701 -0.2763
18724TIP3    H177587   4.642   3.789   2.814  0.4650 -1.2704  0.6802
18724TIP3    H277588   4.644   3.692   2.698  0.7421  0.0071 -0.3964
18725TIP3   OH277589   4.765   4.225   1.965  0.2219 -0.1841 -0.6879
18725TIP3    H177590   4.729   4.177   2.039 -0.0162  1.0507  0.0153
18725TIP3    H277591   4.825   4.163   1.923 -1.8019 -1.9202 -1.2273
18726TIP3   OH277592   5.896   4.412  16.543 -0.3183 -0.0473 -0.0399
18726TIP3    H177593   5.928   4.326  16.572  1.1095  0.7020  0.7027
18726TIP3    H277594   5.929   4.474  16.608 -0.7130  1.1639 -0.9497
18727TIP3   OH277595   5.176   2.300   2.588  0.2797  0.4090 -0.0374
18727TIP3    H177596   5.168   2.263   2.676  0.9636 -0.1125 -0.1909
18727TIP3    H277597   5.089   2.288   2.549  0.3132 -0.4341  0.1480
18728TIP3   OH277598   2.998   5.240   3.699  0.1331  0.0704  0.4827
18728TIP3    H177599   2.923   5.189   3.729 -0.6945 -0.3137 -1.9750
18728TIP3    H277600   3.041   5.269   3.779 -0.8150 -2.3377  1.9723
18729TIP3   OH277601   3.022   1.536   1.255  0.1841  0.6470  0.0709
18729TIP3    H177602   2.971   1.505   1.181 -0.4184  0.0389  0.7185
18729TIP3    H277603   3.109   1.555   1.219 -0.3601  1.2559 -0.9499
18730TIP3   OH277604   6.313   5.604  11.932 -0.0832  0.1096 -0.7868
18730TIP3    H177605   6.384   5.542  11.951 -1.5560 -1.3286  0.3324
18730TIP3    H277606   6.358   5.687  11.914  1.8941 -0.8724 -0.6891
18731TIP3   OH277607   1.497   4.553   5.154 -0.9393 -0.2887  0.0476
18731TIP3    H177608   1.576   4.589   5.195 -0.7943 -0.6576  0.1016
18731TIP3    H277609   1.480   4.473   5.203  0.3632 -1.7972 -1.8050
18732TIP3   OH277610   3.009   1.278  13.468  0.3279  0.0706 -0.0335
18732TIP3    H177611   3.045   1.362  13.437  0.1066 -0.1129 -0.8148
18732TIP3    H277612   2.936   1.303  13.524  1.7751  0.4553  1.7766
18733TIP3   OH277613   0.719   3.054  15.273  0.0252  0.7250  0.2742
18733TIP3    H177614   0.662   2.985  15.240  0.5336  1.2738 -1.9266
18733TIP3    H277615   0.687   3.071  15.362 -1.7323 -0.5477 -0.0505
18734TIP3   OH277616   4.407   0.769   5.663 -0.4775 -0.7049  0.5874
18734TIP3    H177617   4.500   0.784   5.681 -0.9091  1.7227  1.2014
18734TIP3    H277618   4.401   0.770   5.568 -0.0756  1.0653  0.5343
18735TIP3   OH277619   2.749   6.292   4.351  0.4960 -0.4191 -0.0844
18735TIP3    H177620   2.833   6.327   4.379  0.0867  0.7832 -0.2930
18735TIP3    H277621   2.753   6.199   4.372  2.7997 -0.9137 -2.2531
18736TIP3   OH277622   1.215   4.374   3.302  0.7066 -0.5802  0.2212
18736TIP3    H177623   1.291   4.351   3.248  0.2511  0.3910 -0.8791
18736TIP3    H277624   1.140   4.338   3.255  0.5327 -2.7611  2.0141
18737TIP3   OH277625   5.375   4.530  13.939  0.2817 -0.2905 -0.2367
18737TIP3    H177626   5.403   4.496  14.024 -0.5126 -0.2484  0.0409
18737TIP3    H277627   5.440   4.494  13.878  1.0074 -0.1159  0.4070
18738TIP3   OH277628   3.060   3.872   2.044 -0.0163  0.2984  0.4155
18738TIP3    H177629   3.063   3.961   2.009 -2.2941  0.9523  1.7052
18738TIP3    H277630   3.129   3.871   2.111  1.9988  0.1062 -1.5528
18739TIP3   OH277631   0.061   5.804   6.297  0.0724 -0.1203  0.4721
18739TIP3    H177632  -0.017   5.794   6.242 -1.5987  0.2047  2.6189
18739TIP3    H277633   0.091   5.893   6.280  0.8703 -0.7053 -1.4030
18740TIP3   OH277634   0.189   1.002  17.328 -0.2560  0.1102  0.5312
18740TIP3    H177635   0.200   0.937  17.259 -0.7096  1.9627 -1.3951
18740TIP3    H277636   0.101   1.036  17.316 -0.0642  1.0240  1.5288
18741TIP3   OH277637   5.514   4.389   2.167 -0.0608 -0.2651 -0.0239
18741TIP3    H177638   5.425   4.359   2.185  0.3353 -0.3676  2.0306
18741TIP3    H277639   5.520   4.391   2.072 -1.6827 -1.9717 -0.2212
18742TIP3   OH277640   4.373   4.697   2.173  0.7904 -0.2632 -0.0101
18742TIP3    H177641   4.325   4.728   2.096 -1.8735 -0.7186  1.3226
18742TIP3    H277642   4.385   4.603   2.157 -0.0639 -0.4264  0.2163
18743TIP3   OH277643   2.640   4.195  11.896 -0.0526  0.1089 -0.3263
18743TIP3    H177644   2.719   4.189  11.842 -0.0459  1.7083 -0.5246
18743TIP3    H277645   2.594   4.272  11.863 -1.9491 -1.0301 -0.5113
18744TIP3   OH277646   2.611   5.665  14.410 -0.2370  0.2447  0.4847
18744TIP3    H177647   2.608   5.761  14.410 -0.8379  0.2326  0.9740
18744TIP3    H277648   2.562   5.640  14.332  1.8710  0.3544 -0.9576
18745TIP3   OH277649   1.774   0.762  10.920  0.2928 -0.0130 -0.3796
18745TIP3    H177650   1.805   0.821  10.852 -1.3381 -0.7753 -1.8884
18745TIP3    H277651   1.853   0.724  10.957  1.3282  2.1935 -0.1688
18746TIP3   OH277652   3.640   2.281   4.294 -0.3256 -0.2540 -0.3738
18746TIP3    H177653   3.629   2.284   4.389 -0.6102  0.5122 -0.4182
18746TIP3    H277654   3.572   2.221   4.264 -1.2124  0.6239 -0.2063
18747TIP3   OH277655   1.333   3.979   4.284 -0.4806  0.4486 -0.0616
18747TIP3    H177656   1.246   3.985   4.245 -0.0109  1.1671 -1.0294
18747TIP3    H277657   1.331   4.041   4.357 -0.4446  1.2789 -0.7502
18748TIP3   OH277658   0.825   1.776  11.704 -0.0592 -0.5351 -0.0898
18748TIP3    H177659   0.799   1.816  11.787  1.9864 -0.0636  0.3696
18748TIP3    H277660   0.815   1.682  11.719  1.6226 -0.5496  1.2216
18749TIP3   OH277661   5.685   2.058  10.954  0.1883  0.1647  0.9366
18749TIP3    H177662   5.612   2.002  10.980 -1.2123  0.6148 -1.6281
18749TIP3    H277663   5.742   2.001  10.903 -0.5276  0.6639 -0.4960
18750TIP3   OH277664   3.127   3.708  12.741 -0.6732 -0.2495  0.3809
18750TIP3    H177665   3.071   3.636  12.770 -0.0676 -1.1959 -0.7365
18750TIP3    H277666   3.155   3.683  12.652  2.5112 -0.4241  1.3134
18751TIP3   OH277667   1.066   5.661  14.691  0.0541  0.2924  0.0965
18751TIP3    H177668   1.030   5.610  14.764  2.3804 -1.7642 -0.0707
18751TIP3    H277669   1.117   5.731  14.733 -0.0713  0.2029  0.3967
18752TIP3   OH277670   5.032   5.449   3.265 -0.2229 -0.5337  0.0350
18752TIP3    H177671   4.955   5.403   3.299 -1.3408  1.0949 -0.1866
18752TIP3    H277672   5.057   5.509   3.335  1.9380 -2.1920  0.7893
18753TIP3   OH277673   4.508   5.583   3.044 -0.3659 -0.1249 -0.0675
18753TIP3    H177674   4.486   5.636   2.968 -0.4066  2.0606  1.3806
18753TIP3    H277675   4.601   5.600   3.060 -0.5437  0.1011  0.8137
18754TIP3   OH277676   1.526   2.740  15.591 -0.2226 -0.5287 -0.1191
18754TIP3    H177677   1.511   2.776  15.503  0.5313 -0.3695 -0.1946
18754TIP3    H277678   1.440   2.710  15.620 -0.7807  0.8305 -0.2772
18755TIP3   OH277679   4.304   6.447   3.719 -0.3622 -0.2151  0.2759
18755TIP3    H177680   4.278   6.468   3.808 -0.6223 -0.5756  0.2901
18755TIP3    H277681   4.323   6.353   3.721  0.4889 -0.0470  0.1545
18756TIP3   OH277682   4.374   1.173   0.119  0.0871 -0.0252  0.8749
18756TIP3    H177683   4.456   1.151   0.074  1.5159  3.4268  1.4915
18756TIP3    H277684   4.320   1.214   0.052 -0.4510 -0.6982  0.8828
18757TIP3   OH277685   1.254   1.181  16.040  0.3282 -0.5052  0.1981
18757TIP3    H177686   1.201   1.237  15.984  0.3280  0.4621  1.1325
18757TIP3    H277687   1.204   1.100  16.048  0.4733 -0.7911 -1.4257
18758TIP3   OH277688   2.190   3.529  15.065  0.1505  0.3283 -0.5316
18758TIP3    H177689   2.154   3.441  15.058  0.4681  0.1796 -0.3504
18758TIP3    H277690   2.197   3.545  15.159 -0.1159  0.6339 -0.5639
18759TIP3   OH277691   6.689   5.767  15.320 -0.0039  0.7517  0.2899
18759TIP3    H177692   6.749   5.839  15.341 -0.2883  0.9131  0.5447
18759TIP3    H277693   6.687   5.713  15.399  0.6048  0.1787 -0.0732
18760TIP3   OH277694   6.303   3.711   0.573 -0.4119  0.3368  0.6465
18760TIP3    H177695   6.293   3.804   0.598 -0.7700  0.8468 -1.2644
18760TIP3    H277696   6.323   3.667   0.656 -0.6349  2.0522  1.6798
18761TIP3   OH277697   5.736   0.864   6.178 -0.4476  0.3061  0.3425
18761TIP3    H177698   5.808   0.818   6.135 -1.1732 -1.3554  0.8250
18761TIP3    H277699   5.657   0.825   6.141 -1.1001  0.9120  1.0577
18762TIP3   OH277700   3.631   0.133  12.701  0.1661 -0.0456  0.0245
18762TIP3    H177701   3.635   0.094  12.788 -1.2097  0.1555  0.1952
18762TIP3    H277702   3.720   0.165  12.684  0.5834 -0.6099  1.0992
18763TIP3   OH277703   4.943   3.243  16.834 -0.3348  0.1114 -0.5506
18763TIP3    H177704   5.013   3.301  16.864 -0.0117 -0.8499  0.6043
18763TIP3    H277705   4.961   3.229  16.741  1.3879 -0.6262 -0.1294
18764TIP3   OH277706   3.790   1.918   2.059  0.0572  0.4045 -0.5497
18764TIP3    H177707   3.757   1.923   1.970  1.7515 -1.7028 -1.3868
18764TIP3    H277708   3.875   1.963   2.057  0.5109 -0.4153 -0.2499
18765TIP3   OH277709   3.994   4.150  11.154  0.1501 -0.2575  0.5032
18765TIP3    H177710   3.970   4.192  11.237  0.8783  0.2280  0.4705
18765TIP3    H277711   3.949   4.202  11.087  1.4680  0.8355  0.4189
18766TIP3   OH277712   2.513   3.181  15.178  1.0095 -0.5084 -0.5415
18766TIP3    H177713   2.470   3.142  15.254 -0.6895  0.0432 -1.1610
18766TIP3    H277714   2.530   3.107  15.120  1.8212 -0.8598  0.1229
18767TIP3   OH277715   5.326   3.403   0.843  0.7701 -0.1786 -0.3430
18767TIP3    H177716   5.339   3.319   0.798  0.2103  0.6166 -2.0467
18767TIP3    H277717   5.348   3.384   0.935  0.3357 -2.2679 -0.6152
18768TIP3   OH277718   4.983   6.561   5.006 -0.4521  0.4706  0.3335
18768TIP3    H177719   4.892   6.575   5.035 -0.1975 -0.2698  1.5931
18768TIP3    H277720   5.031   6.547   5.088  0.8576  1.1197 -0.2992
18769TIP3   OH277721   4.017   2.539   0.988  0.6458 -0.2116  0.4600
18769TIP3    H177722   4.001   2.479   0.915 -0.1050  1.5618 -0.9236
18769TIP3    H277723   4.096   2.505   1.030  1.9118 -0.5989 -2.0142
18770TIP3   OH277724   0.580   5.787   3.933  0.5006 -0.0259  0.3163
18770TIP3    H177725   0.534   5.777   4.016 -0.3945 -0.6973 -0.2476
18770TIP3    H277726   0.533   5.856   3.887  0.5122 -0.2019  0.0390
18771TIP3   OH277727   6.062   4.276   5.971  0.1900 -0.2413 -0.5137
18771TIP3    H177728   6.037   4.185   5.951  0.5660 -0.2755 -0.8444
18771TIP3    H277729   5.986   4.328   5.945 -0.1735 -0.4941  0.0249
18772TIP3   OH277730   4.668   2.867   3.612  0.3045 -0.4121  0.0557
18772TIP3    H177731   4.688   2.934   3.678  0.8392 -0.7665  0.2572
18772TIP3    H277732   4.752   2.845   3.573  0.0534 -0.5564 -0.4178
18773TIP3   OH277733   0.812   1.928   0.368  0.2847  0.4325 -0.0147
18773TIP3    H177734   0.799   2.023   0.362  4.3021  1.0597 -3.7278
18773TIP3    H277735   0.779   1.894   0.284  2.5312 -0.7477 -0.5038
18774TIP3   OH277736   4.615   0.163   1.137 -0.1325 -0.1616 -0.0114
18774TIP3    H177737   4.556   0.164   1.062 -0.6625  0.0864  0.4110
18774TIP3    H277738   4.684   0.225   1.114 -0.0527 -0.4185 -0.4823
18775TIP3   OH277739   3.814   5.142  11.220  0.4080 -0.1385  0.3249
18775TIP3    H177740   3.881   5.209  11.232  1.4521 -0.8945 -0.9548
18775TIP3    H277741   3.862   5.066  11.185 -0.8785 -1.2347  0.8393
18776TIP3   OH277742   3.449   2.929  15.128  0.3537  0.3041 -0.4360
18776TIP3    H177743   3.526   2.890  15.169  1.2265  0.0170 -2.2603
18776TIP3    H277744   3.378   2.868  15.148  0.7650  0.1276  0.5356
18777TIP3   OH277745   4.585   5.469  14.692 -0.1588 -0.6651  0.4045
18777TIP3    H177746   4.678   5.446  14.683  0.1809  0.0146  1.9901
18777TIP3    H277747   4.548   5.446  14.607  2.1158  2.2807 -1.6158
18778TIP3   OH277748   3.682   4.799  10.832 -0.3915 -0.0105  0.3340
18778TIP3    H177749   3.666   4.876  10.887 -0.1274 -2.0574  3.5543
18778TIP3    H277750   3.776   4.782  10.842 -0.7124 -1.5705  0.9105
18779TIP3   OH277751   5.998   1.975  15.816  0.1066  0.2672  0.3028
18779TIP3    H177752   6.071   1.987  15.755 -1.3354  2.0934 -1.2181
18779TIP3    H277753   6.020   2.029  15.892  0.7612  0.0360  0.2763
18780TIP3   OH277754   5.724   1.365   3.321  0.5713  0.5139  0.8413
18780TIP3    H177755   5.671   1.435   3.360  0.1603  0.3342  0.6094
18780TIP3    H277756   5.769   1.407   3.247 -0.7231  0.2172 -0.1334
18781TIP3   OH277757   5.644   5.789   3.043  0.0128 -0.1510 -1.0112
18781TIP3    H177758   5.653   5.758   2.952 -0.6751 -0.2048 -1.0717
18781TIP3    H277759   5.705   5.735   3.093  0.4318 -0.0906 -1.4465
18782TIP3   OH277760   4.448   4.020   6.329 -0.4396  0.6638 -0.3286
18782TIP3    H177761   4.382   4.038   6.395 -0.2800 -0.4781  0.1677
18782TIP3    H277762   4.525   3.991   6.379 -0.4248 -0.5452 -1.0017
18783TIP3   OH277763   2.942   2.148   6.378  0.0900  0.4230 -0.0959
18783TIP3    H177764   2.868   2.145   6.439 -0.2703 -0.0568 -0.5418
18783TIP3    H277765   3.015   2.180   6.431 -0.6513  1.8471  0.1186
18784TIP3   OH277766   6.283   1.630   0.646 -0.4766 -0.0953 -0.6591
18784TIP3    H177767   6.247   1.606   0.560 -1.8291 -1.0357  0.1241
18784TIP3    H277768   6.210   1.616   0.706  0.6850 -0.2187  0.7603
18785TIP3   OH277769   2.912   4.601   7.015  0.3350 -0.1017  0.4559
18785TIP3    H177770   2.976   4.666   7.043  0.1383  0.4499 -0.3546
18785TIP3    H277771   2.948   4.566   6.933  0.8328 -1.5852  1.2633
18786TIP3   OH277772   1.283   6.273  11.179 -0.3794  0.2615 -1.0078
18786TIP3    H177773   1.320   6.254  11.265  0.3475 -0.5718 -1.4875
18786TIP3    H277774   1.308   6.363  11.161 -1.6637  0.8905  0.2078
18787TIP3   OH277775   2.692   2.974  12.262  0.3118 -0.5348  0.0724
18787TIP3    H177776   2.769   2.960  12.318 -0.2292  1.0934  1.3059
18787TIP3    H277777   2.623   3.001  12.323 -0.6380  0.1570 -1.2688
18788TIP3   OH277778   3.099   4.588   4.645  0.5578 -0.0747 -0.1214
18788TIP3    H177779   3.085   4.527   4.717 -1.0967 -0.1107 -0.4434
18788TIP3    H277780   3.046   4.665   4.669  2.2666  1.0994  0.0742
18789TIP3   OH277781   1.968   6.632  16.432  0.0106  0.1545  0.4730
18789TIP3    H177782   2.042   6.680  16.469  0.9090  0.5526 -1.6687
18789TIP3    H277783   1.980   6.542  16.463  2.0126 -0.0069 -0.5878
18790TIP3   OH277784   4.584   3.797   2.213  0.3145 -0.1420 -0.8874
18790TIP3    H177785   4.488   3.792   2.218  0.0384  2.5132 -1.9926
18790TIP3    H277786   4.610   3.832   2.298  0.2736 -0.4687 -0.7381
18791TIP3   OH277787   5.574   0.687   4.138  0.2649 -0.0595  0.0394
18791TIP3    H177788   5.625   0.769   4.142  0.1385  0.1553 -1.7382
18791TIP3    H277789   5.502   0.700   4.199 -0.7901  1.9643 -1.4843
18792TIP3   OH277790   3.082   2.114   4.942 -0.6085 -0.4803  0.4392
18792TIP3    H177791   3.131   2.039   4.976  0.6298 -0.1060 -0.4523
18792TIP3    H277792   3.125   2.136   4.859 -2.2067 -0.0395 -0.3317
18793TIP3   OH277793   0.925   5.086   1.803 -0.2144  0.0526 -0.2611
18793TIP3    H177794   0.957   5.156   1.860 -1.0568  0.0290  0.2668
18793TIP3    H277795   0.852   5.048   1.852  0.5128 -1.4927 -0.3431
18794TIP3   OH277796   1.736   3.185   5.640  0.0851  0.1954 -0.1885
18794TIP3    H177797   1.677   3.143   5.703  1.1129 -0.7114  0.1912
18794TIP3    H277798   1.708   3.277   5.639 -0.8592 -0.0671  0.5272
18795TIP3   OH277799   1.203   5.876  14.826  0.3735 -0.4692  0.0163
18795TIP3    H177800   1.203   5.892  14.921 -0.5372  0.5299 -0.1265
18795TIP3    H277801   1.135   5.935  14.792 -0.6864 -2.1886 -1.0227
18796TIP3   OH277802   2.055   5.882  15.062 -0.0445 -0.5895 -0.0217
18796TIP3    H177803   2.044   5.977  15.056  0.4523 -0.5019  0.4124
18796TIP3    H277804   2.023   5.849  14.978 -0.4216 -0.0570 -0.0900
18797TIP3   OH277805   3.907   4.403  12.421  0.2466 -0.5157  0.5798
18797TIP3    H177806   3.942   4.391  12.333 -0.3734 -1.1284  0.4117
18797TIP3    H277807   3.909   4.498  12.434 -0.8926 -0.3069 -0.6127
18798TIP3   OH277808   3.028   4.829  14.530 -0.2783  0.2263  0.2696
18798TIP3    H177809   3.022   4.807  14.437 -0.9852 -2.3379  0.8430
18798TIP3    H277810   2.959   4.895  14.544 -0.0371  0.7781 -1.0218
18799TIP3   OH277811   1.006   6.413  14.709  0.2227  0.0877 -0.2100
18799TIP3    H177812   1.061   6.334  14.707  2.0663  1.3384 -1.5918
18799TIP3    H277813   1.004   6.444  14.619 -1.3254  1.0910  0.1243
18800TIP3   OH277814   3.602   1.811  12.341  0.3097 -0.5878  0.1462
18800TIP3    H177815   3.591   1.770  12.427 -1.8724 -0.2786  0.0839
18800TIP3    H277816   3.609   1.738  12.280  0.7193 -0.8173  0.4650
18801TIP3   OH277817   1.571   1.754  14.491  0.0685  0.3765 -0.0726
18801TIP3    H177818   1.583   1.836  14.540 -2.0018  0.1655  0.8932
18801TIP3    H277819   1.562   1.687  14.560  0.1907 -0.4377 -0.8324
18802TIP3   OH277820   4.547   2.066  13.249 -0.7974  0.0681 -0.2035
18802TIP3    H177821   4.626   2.020  13.222  0.0292  0.7104  1.0528
18802TIP3    H277822   4.578   2.142  13.299 -2.1964  0.1004  0.6912
18803TIP3   OH277823   0.965   6.189   3.046  0.5196 -0.1740  0.2084
18803TIP3    H177824   0.973   6.137   3.126  0.2772 -0.2689  0.1713
18803TIP3    H277825   0.938   6.126   2.979 -1.3733  0.2677  0.5040
18804TIP3   OH277826   1.288   4.019   5.451  0.2612  0.2209  0.1276
18804TIP3    H177827   1.335   3.988   5.373 -2.5934  1.3057 -2.1798
18804TIP3    H277828   1.321   4.108   5.465 -0.0573  0.4653 -0.6137
18805TIP3   OH277829   0.099   4.253  12.788 -0.1644  0.2803  0.9126
18805TIP3    H177830   0.184   4.291  12.810  0.5512 -0.6668 -0.0980
18805TIP3    H277831   0.037   4.323  12.805  0.8802  1.1994  1.0941
18806TIP3   OH277832   0.126   4.133   5.978  0.0423 -0.3716 -0.1651
18806TIP3    H177833   0.158   4.047   6.006  1.1429 -0.8440 -2.6482
18806TIP3    H277834   0.081   4.116   5.895 -3.1895  0.9152  1.1555
18807TIP3   OH277835   3.680   2.038   5.383 -0.1178  0.3109 -0.3368
18807TIP3    H177836   3.616   1.982   5.340 -1.5816  0.4633  1.5392
18807TIP3    H277837   3.690   2.113   5.324 -2.2526  0.6392 -0.3403
18808TIP3   OH277838   5.589   5.399  16.471  0.2825  0.3983 -1.1272
18808TIP3    H177839   5.552   5.315  16.446 -1.3880  1.2344 -1.6735
18808TIP3    H277840   5.568   5.409  16.564  3.8038 -1.3674  0.0169
18809TIP3   OH277841   2.065   0.962   0.222 -0.0775  0.2045  0.1188
18809TIP3    H177842   2.128   0.906   0.178 -1.4441 -0.7451 -0.7087
18809TIP3    H277843   2.084   0.951   0.316  1.7550  0.9357 -0.1145
18810TIP3   OH277844   3.608   1.341  16.576  0.4689 -0.0974  0.4711
18810TIP3    H177845   3.553   1.264  16.593 -1.3486  0.8191 -0.8948
18810TIP3    H277846   3.630   1.335  16.483 -1.7607  2.1841 -0.3239
18811TIP3   OH277847   1.558   5.455  11.577 -0.1657 -0.1202 -0.5085
18811TIP3    H177848   1.577   5.545  11.605  2.6784 -0.7930  0.0157
18811TIP3    H277849   1.463   5.455  11.561 -0.3000  2.8975 -0.3603
18812TIP3   OH277850   2.115   4.723  11.323 -0.1929 -0.2060 -0.4674
18812TIP3    H177851   2.022   4.715  11.346 -0.5287 -0.7394 -1.9047
18812TIP3    H277852   2.114   4.756  11.233  1.0447  0.9314 -0.0909
18813TIP3   OH277853   3.036   4.382   4.842  0.0191 -0.1170  0.0696
18813TIP3    H177854   3.014   4.344   4.926 -1.2278 -2.2529 -1.1464
18813TIP3    H277855   2.956   4.426   4.813 -0.0336 -0.6694 -0.6483
18814TIP3   OH277856   0.905   3.217  12.992  0.0080  0.4174 -0.2414
18814TIP3    H177857   0.911   3.265  12.909 -0.9067  2.6441  0.9128
18814TIP3    H277858   0.840   3.149  12.976 -0.6994  1.2851 -1.1470
18815TIP3   OH277859   1.382   0.661  13.058  0.3317  0.4276 -0.1882
18815TIP3    H177860   1.456   0.609  13.089  0.9727  2.5445  2.2358
18815TIP3    H277861   1.365   0.629  12.970  2.8752 -1.4533 -0.1074
18816TIP3   OH277862   5.334   5.824   2.871  0.3137  0.4161  0.1879
18816TIP3    H177863   5.268   5.756   2.887 -0.5651  1.0104 -0.7953
18816TIP3    H277864   5.286   5.894   2.827  1.5517  0.9897 -0.2899
18817TIP3   OH277865   6.458   2.847  16.638  0.7528  0.1767  0.4865
18817TIP3    H177866   6.429   2.784  16.705 -0.6825 -1.3477 -1.4473
18817TIP3    H277867   6.452   2.798  16.556  3.1965  1.7495 -0.7145
18818TIP3   OH277868   1.907   1.360  14.381 -0.2635 -1.0816  0.0857
18818TIP3    H177869   1.919   1.411  14.301  2.4333 -1.8878 -0.1115
18818TIP3    H277870   1.818   1.325  14.373 -0.8083  0.4773 -1.5501
18819TIP3   OH277871   0.884   1.637   2.346  0.2548  0.0671 -0.2147
18819TIP3    H177872   0.927   1.560   2.382 -0.5603  0.0385  0.7360
18819TIP3    H277873   0.819   1.662   2.412 -3.3020 -1.6121 -2.7515
18820TIP3   OH277874   3.665   0.403   2.241 -0.4901  0.5440 -0.0157
18820TIP3    H177875   3.673   0.382   2.334 -0.2094  0.3382 -0.0851
18820TIP3    H277876   3.629   0.324   2.201  0.8296  0.0643 -0.3203
18821TIP3   OH277877   6.529   3.079  11.595 -0.6052  0.3017  0.2753
18821TIP3    H177878   6.571   2.994  11.608 -1.9619 -0.2642  1.1611
18821TIP3    H277879   6.558   3.107  11.508 -1.3750 -1.8314 -0.7320
18822TIP3   OH277880   3.542   4.041   3.307 -0.0238  0.7200 -0.1849
18822TIP3    H177881   3.485   3.992   3.248  1.5002 -0.1103 -1.0244
18822TIP3    H277882   3.538   4.131   3.275 -0.1167  0.4877 -0.8455
18823TIP3   OH277883   2.367   0.450  12.273 -0.1758 -0.4072 -0.2412
18823TIP3    H177884   2.393   0.359  12.288 -0.0786 -0.4075 -0.4117
18823TIP3    H277885   2.293   0.445  12.213 -0.7600 -0.4212  0.4641
18824TIP3   OH277886   1.491   2.897   1.314 -0.2823  0.5586 -0.0667
18824TIP3    H177887   1.532   2.977   1.348 -1.0291  0.5743  0.8613
18824TIP3    H277888   1.451   2.924   1.231 -1.3125  1.4061  0.6715
18825TIP3   OH277889   4.180   1.980   4.729  0.0572 -0.7075  0.7545
18825TIP3    H177890   4.088   1.980   4.702  0.5229 -1.5901 -1.0173
18825TIP3    H277891   4.178   1.999   4.822 -1.9637 -1.3080  0.8838
18826TIP3   OH277892   5.193   5.670  11.618 -0.1895 -0.9621  0.0058
18826TIP3    H177893   5.221   5.715  11.698 -1.0799 -1.3516  0.5511
18826TIP3    H277894   5.237   5.717  11.547 -0.7585  0.5109  0.5853
18827TIP3   OH277895   5.582   3.934   3.119 -0.3380  0.1465  0.0025
18827TIP3    H177896   5.625   3.895   3.195 -0.2091 -0.5969 -0.4410
18827TIP3    H277897   5.555   4.021   3.148  0.6729  0.2832  0.5694
18828TIP3   OH277898   1.231   6.583  15.829 -0.1027  0.1175  0.1832
18828TIP3    H177899   1.247   6.541  15.913 -0.3459 -0.7503 -0.1962
18828TIP3    H277900   1.305   6.643  15.818  2.0532 -2.5272 -0.7231
18829TIP3   OH277901   0.199   3.770   4.475 -0.0983  0.0331 -0.2884
18829TIP3    H177902   0.179   3.719   4.553  2.4324 -0.8739 -0.1322
18829TIP3    H277903   0.293   3.757   4.462 -0.4253  0.1293 -3.5071
18830TIP3   OH277904   6.454   5.738  14.331  0.2281  0.1209  0.0659
18830TIP3    H177905   6.509   5.781  14.397  1.3077 -0.2121 -0.5850
18830TIP3    H277906   6.403   5.808  14.292  1.2250  0.6706 -0.2797
18831TIP3   OH277907   5.290   3.802   3.793  0.4067 -0.5030 -0.1420
18831TIP3    H177908   5.224   3.846   3.739  0.4869  0.6965  0.6730
18831TIP3    H277909   5.254   3.806   3.882 -0.6101 -4.1121 -0.2749
18832TIP3   OH277910   0.363   3.753  12.042  0.3252 -0.3043 -0.5452
18832TIP3    H177911   0.413   3.713  12.113 -1.3961 -0.7147  0.4985
18832TIP3    H277912   0.333   3.836  12.079 -1.0762 -0.7866 -0.5359
18833TIP3   OH277913   3.396   3.283  15.700  0.5931 -0.3135 -0.1508
18833TIP3    H177914   3.375   3.344  15.770  0.0429 -1.0320  0.3285
18833TIP3    H277915   3.313   3.270  15.654  1.2874  1.5237 -2.0909
18834TIP3   OH277916   2.991   2.423  13.306 -0.1893 -0.3118 -0.6654
18834TIP3    H177917   3.038   2.484  13.249 -0.4758  1.7640  1.1998
18834TIP3    H277918   2.938   2.479  13.363  0.3667 -2.2254  1.9115
18835TIP3   OH277919   3.302   4.806   1.335  0.4497 -0.4057 -0.5844
18835TIP3    H177920   3.281   4.818   1.243 -0.9300 -0.7507 -0.3423
18835TIP3    H277921   3.288   4.712   1.351  4.2511 -1.1819 -0.8389
18836TIP3   OH277922   5.970   6.050   1.665  0.6009  0.2624 -0.2472
18836TIP3    H177923   5.931   6.097   1.739  2.0331  1.7551 -0.3893
18836TIP3    H277924   5.981   5.961   1.697 -0.0608  0.5511  0.8586
18837TIP3   OH277925   2.945   1.828  14.188  0.1449  1.0388 -0.0872
18837TIP3    H177926   2.980   1.741  14.168 -1.2096  0.9702 -2.4147
18837TIP3    H277927   2.850   1.819  14.179 -0.0438  2.6664 -0.0257
18838TIP3   OH277928   5.455   6.122   1.016  0.2618  0.4756 -0.6864
18838TIP3    H177929   5.449   6.198   1.074  2.3693  1.1259 -1.2328
18838TIP3    H277930   5.409   6.052   1.063 -0.3376  1.6532  0.5532
18839TIP3   OH277931   6.353   1.078   1.163 -0.4640  0.1640  0.0620
18839TIP3    H177932   6.280   1.087   1.224 -2.4801  1.5196 -2.3653
18839TIP3    H277933   6.411   1.150   1.184 -1.3073  0.8250  0.2075
18840TIP3   OH277934   6.070   5.640  12.738 -0.1960  0.3147  0.1244
18840TIP3    H177935   6.073   5.620  12.832 -1.6437  0.5361  0.2408
18840TIP3    H277936   6.154   5.681  12.720 -0.5400  1.8139  1.6972
18841TIP3   OH277937   5.814   2.750  12.114 -0.1633 -0.2116 -0.2591
18841TIP3    H177938   5.891   2.754  12.057 -0.5030  0.8763 -0.6766
18841TIP3    H277939   5.768   2.833  12.098 -1.6960 -1.0546 -0.4012
18842TIP3   OH277940   1.956   1.412   3.357  0.3550 -0.0162  0.1096
18842TIP3    H177941   1.932   1.340   3.415  0.3078 -0.2302 -0.1701
18842TIP3    H277942   1.976   1.485   3.415  4.6585 -1.4014  0.7375
18843TIP3   OH277943   4.684   2.956   4.489  0.1041 -0.4328 -0.4123
18843TIP3    H177944   4.667   2.975   4.581  2.5359  0.5768 -0.0770
18843TIP3    H277945   4.670   3.039   4.444  0.9937 -0.3608 -0.5818
18844TIP3   OH277946   2.383   4.256   2.509  0.5970 -0.2672 -0.3663
18844TIP3    H177947   2.309   4.226   2.456  0.4784 -0.5558 -0.0423
18844TIP3    H277948   2.345   4.280   2.593  0.2437  3.4496 -1.4106
18845TIP3   OH277949   3.674   1.753   3.399 -0.2427  0.4932 -0.6042
18845TIP3    H177950   3.634   1.791   3.321  2.2387  0.8994 -1.7910
18845TIP3    H277951   3.718   1.827   3.441 -0.7083  0.0782  0.6491
18846TIP3   OH277952   4.218   6.016  16.980 -0.3207 -0.4850 -0.1948
18846TIP3    H177953   4.241   6.048  17.067  0.0505  1.0412 -0.8238
18846TIP3    H277954   4.132   6.055  16.962 -0.0753 -0.2125 -0.7869
18847TIP3   OH277955   3.169   1.599   4.477 -0.2630 -0.6354  0.0546
18847TIP3    H177956   3.164   1.566   4.567 -2.2470 -1.2354 -0.2459
18847TIP3    H277957   3.101   1.665   4.472 -1.1712 -1.6216 -1.3868
18848TIP3   OH277958   2.081   4.994   2.176 -0.1032 -0.0562  0.0528
18848TIP3    H177959   2.130   4.921   2.214  0.3287  0.4589  0.4978
18848TIP3    H277960   2.147   5.049   2.135 -0.2995  0.6054  0.5970
18849TIP3   OH277961   1.949   2.542   1.240 -0.1611 -0.1403 -0.5473
18849TIP3    H177962   1.930   2.536   1.146 -2.3212  0.6961 -0.2128
18849TIP3    H277963   1.928   2.455   1.274  0.4361 -0.3857 -0.7839
18850TIP3   OH277964   2.548   0.211  15.627  0.3112 -0.0551 -0.4900
18850TIP3    H177965   2.615   0.247  15.569 -0.0888  2.5330  0.5322
18850TIP3    H277966   2.597   0.181  15.704  0.5202 -0.5397 -0.8051
18851TIP3   OH277967   6.459   3.418  11.937 -0.6554 -0.4714  0.3761
18851TIP3    H177968   6.498   3.377  12.014 -2.1368  0.7652  1.8653
18851TIP3    H277969   6.534   3.440  11.881  0.4337 -1.6029  1.3228
18852TIP3   OH277970   5.206   6.666  17.247  0.7041  0.3282 -0.2397
18852TIP3    H177971   5.201   6.655  17.342  1.2793  2.0912  0.0387
18852TIP3    H277972   5.299   6.658  17.227  0.5622 -0.2211 -0.6904
18853TIP3   OH277973   2.124   6.495   3.046  0.0603 -0.1324  0.5659
18853TIP3    H177974   2.189   6.552   3.088 -0.0764  1.3953 -1.1749
18853TIP3    H277975   2.044   6.548   3.043 -0.8659 -1.4201  1.2773
18854TIP3   OH277976   0.144   3.454  11.255  0.0770 -0.5599  0.1341
18854TIP3    H177977   0.191   3.494  11.182 -1.3888  1.4849  0.2318
18854TIP3    H277978   0.148   3.360  11.238  2.5958 -0.3506 -0.7774
18855TIP3   OH277979   4.455   0.328  14.278 -0.2960 -0.0866 -0.4325
18855TIP3    H177980   4.422   0.290  14.197  0.0948 -0.4463 -0.4283
18855TIP3    H277981   4.413   0.414  14.283 -1.4022 -0.6112 -0.3095
18856TIP3   OH277982   0.859   6.183  14.412 -0.0948 -0.5285  0.4169
18856TIP3    H177983   0.943   6.142  14.432  0.2082 -0.6300 -1.0122
18856TIP3    H277984   0.867   6.213  14.322 -1.7310 -0.9171  0.1045
18857TIP3   OH277985   6.404   5.256   4.117  0.6205 -0.1171  0.2638
18857TIP3    H177986   6.377   5.177   4.164  0.9526 -0.7527 -0.5844
18857TIP3    H277987   6.323   5.305   4.102  0.1931 -1.0075 -0.4617
18858TIP3   OH277988   3.980   1.078   4.069  0.3011 -0.7659  0.2291
18858TIP3    H177989   4.044   1.108   4.005  0.1952 -2.3624 -0.6815
18858TIP3    H277990   3.898   1.119   4.041  0.8227  1.1610  1.3114
18859TIP3   OH277991   2.768   2.716  17.262 -0.4719 -0.3690 -0.3533
18859TIP3    H177992   2.781   2.749  17.173  1.3381  0.6859  0.2319
18859TIP3    H277993   2.800   2.626  17.260  0.9508  0.1067 -0.4926
18860TIP3   OH277994   5.099   0.512  11.823 -0.3149  0.3356  0.5302
18860TIP3    H177995   5.083   0.498  11.916 -1.9807 -0.5113  0.1418
18860TIP3    H277996   5.045   0.588  11.801  0.7846  1.1224  0.4087
18861TIP3   OH277997   5.341   6.239   6.175 -0.3448 -0.0031 -0.4419
18861TIP3    H177998   5.301   6.198   6.251 -1.2121 -0.8477 -1.3210
18861TIP3    H277999   5.267   6.271   6.123  0.2375  0.8086 -0.8008
18862TIP3   OH278000   4.942   1.982  15.505 -0.1255  0.7087  0.0337
18862TIP3    H178001   4.941   2.074  15.531  1.7533  0.2408  2.0748
18862TIP3    H278002   5.026   1.971  15.460 -1.3894  0.4568 -2.4669
18863TIP3   OH278003   4.127   1.838  13.352 -0.4568 -0.0385 -0.1674
18863TIP3    H178004   4.149   1.829  13.259  1.2038 -0.7199  0.2581
18863TIP3    H278005   4.211   1.829  13.397 -1.1195  1.1449  1.3635
18864TIP3   OH278006   2.291   0.993  10.509 -0.3191 -0.3296  0.4642
18864TIP3    H178007   2.343   0.913  10.506  1.8661  1.0545 -0.9960
18864TIP3    H278008   2.233   0.987  10.434 -0.2952 -0.6291  0.4684
18865TIP3   OH278009   4.936   6.090  13.566 -0.3968 -0.3822 -0.0338
18865TIP3    H178010   4.909   5.999  13.553  1.3566 -1.0256  0.5727
18865TIP3    H278011   5.005   6.086  13.633 -0.8464  1.4913  0.6175
18866TIP3   OH278012   3.456   3.691   1.323 -0.0411  0.1284  0.0976
18866TIP3    H178013   3.506   3.617   1.356 -0.1036 -0.2196 -0.5894
18866TIP3    H278014   3.416   3.729   1.402  1.1667  0.3316  0.6337
18867TIP3   OH278015   0.163   1.604  15.566 -0.2034 -0.6185 -0.2384
18867TIP3    H178016   0.198   1.523  15.528 -0.1752 -0.6293 -0.1905
18867TIP3    H278017   0.239   1.662  15.571  0.1881 -1.1895  1.3542
18868TIP3   OH278018   0.870   1.859  15.539  0.6995 -0.6113 -0.1887
18868TIP3    H178019   0.830   1.785  15.495  1.3969 -1.4426  0.5449
18868TIP3    H278020   0.933   1.821  15.599  0.0747  0.4906  1.2471
18869TIP3   OH278021   3.724   1.314  13.708 -0.0490 -0.3433 -0.5743
18869TIP3    H178022   3.632   1.304  13.683  0.0244 -0.8625 -0.6632
18869TIP3    H278023   3.743   1.407  13.698 -1.0247  0.0688  1.0166
18870TIP3   OH278024   4.174   5.661   0.090 -0.1187 -0.4224  0.4065
18870TIP3    H178025   4.253   5.694   0.132  0.5283  0.9692 -1.7070
18870TIP3    H278026   4.203   5.634   0.003 -1.9426  0.0196 -0.3833
18871TIP3   OH278027   0.383   0.537  13.290 -0.2575 -0.7086 -0.4019
18871TIP3    H178028   0.454   0.566  13.348 -1.4606 -2.0462  1.8987
18871TIP3    H278029   0.340   0.618  13.264  1.4086  0.0566 -0.9589
18872TIP3   OH278030   2.549   2.669   1.237  0.0553  0.1106 -0.1091
18872TIP3    H178031   2.611   2.737   1.210 -0.5506  0.4146 -0.7638
18872TIP3    H278032   2.494   2.656   1.160  0.5765 -1.6022 -0.2315
18873TIP3   OH278033   3.082   6.350   1.165  0.4539 -0.3112 -0.2121
18873TIP3    H178034   3.088   6.427   1.109  0.6853  0.4442  0.8252
18873TIP3    H278035   3.137   6.284   1.122  1.1203  0.4525 -0.5566
18874TIP3   OH278036   2.541   3.545   0.023 -0.3555  0.7451  0.4466
18874TIP3    H178037   2.475   3.487  -0.016 -0.3704  1.3830 -0.5181
18874TIP3    H278038   2.616   3.538  -0.036  0.2180  0.5149  1.1907
18875TIP3   OH278039   2.258   4.528  15.771  0.0452 -0.5255  0.4668
18875TIP3    H178040   2.339   4.498  15.813  0.6476 -2.0739 -1.6323
18875TIP3    H278041   2.200   4.453  15.775  0.1510 -0.7478 -1.4493
18876TIP3   OH278042   1.916   5.320  11.455  0.0939  0.5905 -0.1425
18876TIP3    H178043   1.987   5.323  11.390  0.0575 -1.3779 -0.3361
18876TIP3    H278044   1.836   5.323  11.402  0.0427 -2.1430 -0.4140
18877TIP3   OH278045   5.575   3.247  12.657  0.0059  0.1627 -0.0958
18877TIP3    H178046   5.639   3.182  12.630  1.5147  1.3388  0.5122
18877TIP3    H278047   5.586   3.320  12.596  0.0629  0.8463  0.7046
18878TIP3   OH278048   0.177   1.672  12.099  0.0360  0.3198 -0.2742
18878TIP3    H178049   0.237   1.656  12.027  0.4160 -0.7260  0.2539
18878TIP3    H278050   0.118   1.740  12.067  0.3236  0.0143 -1.4930
18879TIP3   OH278051   0.979   2.038   1.053  0.3508  0.2843  0.6675
18879TIP3    H178052   1.031   1.967   1.092 -0.8522 -1.2641 -0.4222
18879TIP3    H278053   0.907   2.051   1.114 -2.2618 -3.0273 -1.3252
18880TIP3   OH278054   5.242   1.179  12.633  0.5110 -0.1530  0.0435
18880TIP3    H178055   5.267   1.248  12.572  0.1621 -1.8184 -2.1364
18880TIP3    H278056   5.231   1.101  12.577 -3.7863 -0.9340  1.6344
18881TIP3   OH278057   3.137   4.381   0.939 -0.3353  0.3260  0.2696
18881TIP3    H178058   3.111   4.334   1.018 -1.7676 -0.5974 -0.7288
18881TIP3    H278059   3.227   4.409   0.957 -1.0730  1.3634  2.7853
18882TIP3   OH278060   0.953   2.955  11.811  0.6939 -0.7873 -0.1638
18882TIP3    H178061   0.984   3.046  11.806 -0.8204 -0.1752  1.0753
18882TIP3    H278062   0.969   2.929  11.902 -2.7214 -0.2670  0.7105
18883TIP3   OH278063   1.558   3.447  12.160 -0.1180 -0.6241  1.0242
18883TIP3    H178064   1.605   3.408  12.234  1.1203 -0.6504  0.2502
18883TIP3    H278065   1.542   3.375  12.100 -1.1661 -0.6107  1.2596
18884TIP3   OH278066   6.588   6.656  13.754  0.1194  0.2776  1.0919
18884TIP3    H178067   6.546   6.689  13.675  0.3457  2.6779  1.8991
18884TIP3    H278068   6.553   6.567  13.765 -1.0449  0.4577 -0.8554
18885TIP3   OH278069   1.847   5.114  13.178  0.2223 -0.1372  0.9835
18885TIP3    H178070   1.910   5.099  13.108 -0.4087  0.9553  0.1480
18885TIP3    H278071   1.762   5.120  13.133 -0.1189  1.2397  1.7518
18886TIP3   OH278072   2.959   1.376  11.354  0.6012  0.5461 -0.5993
18886TIP3    H178073   2.916   1.427  11.422  1.2902  1.1659 -0.6120
18886TIP3    H278074   2.899   1.304  11.336 -0.1164  1.0249 -0.1609
18887TIP3   OH278075   1.366   6.116  17.177 -0.0719 -0.2507 -0.3330
18887TIP3    H178076   1.352   6.081  17.089  0.3162  0.4168 -0.6686
18887TIP3    H278077   1.349   6.209  17.169  4.3809  0.7642 -0.8504
18888TIP3   OH278078   5.471   5.756  12.525  0.3809  0.0312 -0.0002
18888TIP3    H178079   5.441   5.738  12.614 -0.5377  0.3324 -0.2380
18888TIP3    H278080   5.398   5.803  12.484  0.7660 -0.1673 -0.9336
18889TIP3   OH278081   2.530   1.122  11.573 -0.1053  0.9046  0.1898
18889TIP3    H178082   2.588   1.068  11.519 -0.8158  0.4412 -0.1329
18889TIP3    H278083   2.580   1.201  11.590 -0.2209  1.5067 -2.0129
18890TIP3   OH278084   3.939   4.583  15.652  0.2657  0.0968  0.4352
18890TIP3    H178085   3.959   4.666  15.609 -1.1733  0.9925  1.4225
18890TIP3    H278086   4.023   4.555  15.689  0.9145  0.7305 -0.4915
18891TIP3   OH278087   0.756   3.014  12.291 -0.0707  0.1373 -0.5882
18891TIP3    H178088   0.700   3.076  12.338 -3.2534 -2.4252 -0.5691
18891TIP3    H278089   0.742   3.033  12.199 -1.4570 -0.7896 -0.5936
18892TIP3   OH278090   3.145   5.245  13.046 -0.3956 -0.0072  0.4520
18892TIP3    H178091   3.080   5.316  13.044  0.5680  0.9110  0.8521
18892TIP3    H278092   3.161   5.230  13.139  0.0140 -0.1799  0.3530
18893TIP3   OH278093   0.000   1.477  13.246 -0.0261 -0.0946  0.3008
18893TIP3    H178094   0.091   1.448  13.256  0.0211  0.2726  0.9826
18893TIP3    H278095  -0.025   1.445  13.159  0.2869 -1.4402  0.6838
18894TIP3   OH278096   3.080   5.273   6.070 -0.4318 -0.1432 -0.1692
18894TIP3    H178097   3.120   5.360   6.074  0.6813 -0.6757  1.3843
18894TIP3    H278098   2.999   5.282   6.120 -0.0732 -0.1099  0.4163
18895TIP3   OH278099   2.726   1.193   3.199 -0.1958  0.1711  0.5629
18895TIP3    H178100   2.665   1.131   3.240 -1.1212  0.2273 -0.6857
18895TIP3    H278101   2.703   1.193   3.106  2.1494 -0.2974 -0.0924
18896TIP3   OH278102   5.826   5.842  12.337  0.5919  0.0934 -0.0912
18896TIP3    H178103   5.860   5.876  12.420  1.5819 -0.4721 -0.2443
18896TIP3    H278104   5.843   5.748  12.341 -5.5439 -1.3974  2.0129
18897TIP3   OH278105   1.188   4.844   3.059 -0.1588 -0.3267  0.3247
18897TIP3    H178106   1.215   4.933   3.037  1.7062 -1.0197 -0.4296
18897TIP3    H278107   1.256   4.788   3.021 -2.0061 -2.1878 -0.4688
18898TIP3   OH278108   0.060   4.212   6.736  0.0186 -0.0713  0.6848
18898TIP3    H178109   0.136   4.157   6.756 -0.2428 -0.4096  0.7442
18898TIP3    H278110   0.012   4.217   6.818  0.0018  0.1860  0.6599
18899TIP3   OH278111   2.396   5.889   4.920 -0.8470 -0.0657 -0.1649
18899TIP3    H178112   2.306   5.860   4.935 -0.7419  0.1965  1.0934
18899TIP3    H278113   2.387   5.969   4.867 -1.3934  0.3144  0.4976
18900TIP3   OH278114   4.316   1.946   3.740  0.2382 -0.3629 -0.3262
18900TIP3    H178115   4.341   2.018   3.682  1.0155 -0.2102  0.1811
18900TIP3    H278116   4.382   1.947   3.809 -0.5273 -0.6886  0.4370
18901TIP3   OH278117   2.718   2.955   1.257  0.3931 -0.6229 -0.6231
18901TIP3    H178118   2.710   3.037   1.209 -0.8738 -0.5333 -0.2740
18901TIP3    H278119   2.793   2.911   1.216  1.1671  0.7459 -0.7211
18902TIP3   OH278120   3.245   5.581  14.937  0.2038  0.2537 -0.3592
18902TIP3    H178121   3.265   5.576  15.030 -1.4274 -2.2855 -0.0611
18902TIP3    H278122   3.172   5.644  14.932  1.2085  1.4784 -0.1588
18903TIP3   OH278123   0.423   0.861   3.932 -0.6281 -0.0657 -0.2516
18903TIP3    H178124   0.463   0.942   3.961  1.9473 -0.8562 -1.2697
18903TIP3    H278125   0.428   0.803   4.008 -1.0833  0.2406  0.0184
18904TIP3   OH278126   1.579   3.166   1.404  0.0413  0.2352 -0.0336
18904TIP3    H178127   1.658   3.174   1.459  0.3790 -1.0090 -0.3024
18904TIP3    H278128   1.603   3.209   1.322 -0.2696  1.6127  0.5820
18905TIP3   OH278129   4.613   5.929  12.102  0.4291  0.1446  0.0533
18905TIP3    H178130   4.558   5.958  12.175 -0.5658  0.0291 -0.6358
18905TIP3    H278131   4.651   5.847  12.132  0.5319  0.4185  0.6884
18906TIP3   OH278132   5.752   2.439   0.705 -0.3521 -0.5417 -0.3643
18906TIP3    H178133   5.711   2.472   0.784  0.6366 -0.0309 -0.0461
18906TIP3    H278134   5.838   2.407   0.734  0.2709  0.1940 -1.3041
18907TIP3   OH278135   1.577   2.180   3.190 -0.1822  0.1060 -0.0652
18907TIP3    H178136   1.515   2.200   3.260 -1.2298 -0.0721 -0.8954
18907TIP3    H278137   1.600   2.265   3.153  0.6083  0.2214  0.6787
18908TIP3   OH278138   1.236   5.733  12.373  0.2118  0.7079 -0.3545
18908TIP3    H178139   1.287   5.690  12.441  3.2939  2.1701 -1.5793
18908TIP3    H278140   1.166   5.778  12.420  1.1105  0.1418  1.6109
18909TIP3   OH278141   2.118   3.104   0.397 -0.1706 -0.2265  0.2561
18909TIP3    H178142   2.039   3.085   0.446 -1.3107  1.6534 -0.7379
18909TIP3    H278143   2.141   3.194   0.421  1.4835 -0.6123  0.2677
18910TIP3   OH278144   4.423   3.270  11.184 -0.7416  0.6953 -0.4081
18910TIP3    H178145   4.482   3.235  11.251 -1.9660  0.8722  0.7832
18910TIP3    H278146   4.479   3.328  11.132  0.7431 -1.0453 -0.9070
18911TIP3   OH278147   0.066   0.393   4.479  0.3895 -0.2405  0.2308
18911TIP3    H178148  -0.004   0.397   4.544  0.4549 -0.2116  0.2991
18911TIP3    H278149   0.038   0.324   4.418 -1.4040  2.0643 -1.7396
18912TIP3   OH278150   5.030   0.960  10.652 -0.6831  0.0654 -0.0893
18912TIP3    H178151   4.991   1.021  10.590  2.0388 -0.7540 -2.8643
18912TIP3    H278152   5.020   0.874  10.611  3.1563 -0.2564 -0.7326
18913TIP3   OH278153   1.490   1.389   5.705  0.2406 -0.0322 -0.4033
18913TIP3    H178154   1.460   1.456   5.767  1.3787  0.0180  0.1253
18913TIP3    H278155   1.552   1.435   5.649 -2.4538  0.5325 -3.1891
18914TIP3   OH278156   6.062   1.565   6.032 -0.4756 -0.0455  0.3636
18914TIP3    H178157   6.125   1.621   5.986 -2.1999  1.9344  0.2549
18914TIP3    H278158   6.116   1.501   6.079  1.5208  0.6162 -0.9005
18915TIP3   OH278159   3.613   2.123  12.483 -0.3879 -0.0900 -0.7596
18915TIP3    H178160   3.627   2.186  12.554 -0.5541 -0.5617 -0.2941
18915TIP3    H278161   3.519   2.128  12.464 -0.0835  1.1518 -2.0312
18916TIP3   OH278162   5.816   4.173   3.343  1.1452 -0.0751  0.0728
18916TIP3    H178163   5.836   4.093   3.392 -0.8925  0.3543  1.6948
18916TIP3    H278164   5.834   4.244   3.403  0.7212  0.5843 -0.5605
18917TIP3   OH278165   3.150   0.882   2.352  0.2018 -0.3647 -0.4999
18917TIP3    H178166   3.235   0.883   2.308 -0.1252 -0.5738 -1.1416
18917TIP3    H278167   3.106   0.961   2.321  0.1066 -0.3228 -0.2632
18918TIP3   OH278168   4.914   4.116  14.079  0.3005 -0.3388  0.2498
18918TIP3    H178169   4.917   4.126  13.984 -2.0285 -3.1580 -0.2550
18918TIP3    H278170   4.839   4.170  14.106  2.5378  2.6616  1.0168
18919TIP3   OH278171   6.092   6.240  15.574 -0.0218 -0.2467  0.1567
18919TIP3    H178172   6.071   6.245  15.481  1.4253 -0.2039 -0.1945
18919TIP3    H278173   6.071   6.327  15.609  0.3545  0.0465 -0.3404
18920TIP3   OH278174   2.578   3.688   1.242  0.0099  0.3845 -0.3997
18920TIP3    H178175   2.629   3.728   1.313 -2.3235  2.3898  0.3002
18920TIP3    H278176   2.631   3.615   1.212  1.0012 -0.8064  3.6559
18921TIP3   OH278177   0.833   3.612   1.373 -0.1421 -0.5365  0.4863
18921TIP3    H178178   0.858   3.679   1.310  0.9375  0.0189  1.4602
18921TIP3    H278179   0.778   3.658   1.437 -0.5249 -0.8994  0.4246
18922TIP3   OH278180   0.086   5.885   2.174 -0.7366 -0.0844  0.3306
18922TIP3    H178181   0.132   5.936   2.241 -1.4422 -0.6528  1.2582
18922TIP3    H278182   0.142   5.894   2.096  2.6873 -3.1553  2.1127
18923TIP3   OH278183   0.322   2.651  11.700 -0.1314  0.1907  0.3391
18923TIP3    H178184   0.348   2.698  11.621 -1.0231 -0.2355 -0.2162
18923TIP3    H278185   0.287   2.568  11.668  0.2454 -0.3251  1.2349
18924TIP3   OH278186   3.780   1.063   0.996  0.9216 -0.3521 -0.1723
18924TIP3    H178187   3.791   0.968   0.989  1.5731 -0.2508 -0.5175
18924TIP3    H278188   3.852   1.092   1.051 -0.0168 -0.2106  1.0118
18925TIP3   OH278189   6.679   5.138   6.690 -0.3168  0.0988  0.1609
18925TIP3    H178190   6.672   5.077   6.763 -2.2139  0.4211  0.3026
18925TIP3    H278191   6.686   5.224   6.731  0.1556  0.1626 -0.0440
18926TIP3   OH278192   6.426   3.086   5.059  0.3556 -0.0373  0.0587
18926TIP3    H178193   6.443   3.044   4.975  1.0485  0.5631 -0.1089
18926TIP3    H278194   6.380   3.167   5.036  0.9728  0.3627  0.2203
18927TIP3   OH278195   6.560   2.870   2.067 -0.4174 -0.1080  0.2477
18927TIP3    H178196   6.490   2.814   2.031  0.9314 -1.5430 -0.2510
18927TIP3    H278197   6.565   2.943   2.005 -1.2978 -0.1184  0.1475
18928TIP3   OH278198   2.398   4.602   1.446 -0.7762 -0.2335 -0.3015
18928TIP3    H178199   2.486   4.618   1.480 -1.2770  1.1858  0.3950
18928TIP3    H278200   2.353   4.685   1.457 -2.3906 -1.1028 -0.0973
18929TIP3   OH278201   2.386   5.552   3.112  0.3280  0.4255  0.1130
18929TIP3    H178202   2.418   5.620   3.052  0.2599 -0.2720 -0.7252
18929TIP3    H278203   2.293   5.543   3.091  0.5725 -0.6866 -0.5266
18930TIP3   OH278204   3.895   6.043  16.406  0.2636 -0.4264 -0.1433
18930TIP3    H178205   3.962   6.102  16.372  1.5336 -1.4257  0.5158
18930TIP3    H278206   3.901   6.050  16.501 -2.6703  1.6973  0.0306
18931TIP3   OH278207   5.447   4.637   2.977 -0.1815 -0.0866 -0.3213
18931TIP3    H178208   5.364   4.608   3.015  0.9610 -1.1889  1.4671
18931TIP3    H278209   5.440   4.733   2.977 -1.2123 -0.1390  0.3644
18932TIP3   OH278210   2.913   3.705   4.545  0.0782  0.1343 -0.1848
18932TIP3    H178211   2.940   3.796   4.553 -0.5442  0.4140 -1.1305
18932TIP3    H278212   2.994   3.658   4.523  0.5347  0.3272  0.9881
18933TIP3   OH278213   3.344   4.033   3.606  0.0775  0.3124 -0.7266
18933TIP3    H178214   3.430   3.997   3.583  0.0515 -0.7316  0.7106
18933TIP3    H278215   3.289   4.012   3.531 -0.1223 -3.4212  0.3110
18934TIP3   OH278216   5.660   3.412  13.743  0.3896  0.1626 -0.1174
18934TIP3    H178217   5.673   3.331  13.792  2.3813  2.9476  4.7041
18934TIP3    H278218   5.734   3.415  13.682  0.0003 -1.7708 -0.7522
18935TIP3   OH278219   2.179   0.165   2.676  0.3247  0.3557  0.5145
18935TIP3    H178220   2.188   0.183   2.582  0.4206 -1.2137  0.1813
18935TIP3    H278221   2.223   0.238   2.719 -0.9698  1.8677 -0.5953
18936TIP3   OH278222   5.891   0.192   4.220  0.2154  0.2592  0.3037
18936TIP3    H178223   5.932   0.131   4.159 -0.7732 -1.3870  1.2060
18936TIP3    H278224   5.815   0.145   4.254  0.4327  1.2911  2.4127
18937TIP3   OH278225   5.027   4.803  14.091  0.2670 -0.9061 -0.3701
18937TIP3    H178226   5.068   4.816  14.177 -0.0906 -1.3838 -0.1182
18937TIP3    H278227   5.033   4.889  14.048 -0.9993 -0.1879  0.7800
18938TIP3   OH278228   6.460   3.086   4.166 -0.2341 -0.7206  0.6127
18938TIP3    H178229   6.529   3.117   4.225 -0.0208 -3.0112  1.6801
18938TIP3    H278230   6.508   3.045   4.094 -0.5085 -0.0619  0.0425
18939TIP3   OH278231   4.221   5.116  13.106 -0.1034  0.0578 -0.2415
18939TIP3    H178232   4.195   5.192  13.053  0.9524  0.6015 -0.0039
18939TIP3    H278233   4.235   5.046  13.042 -0.1172  0.3345 -0.5525
18940TIP3   OH278234   5.381   1.507  15.530 -0.0068  0.1566  0.0514
18940TIP3    H178235   5.327   1.536  15.456  0.2707 -0.2816 -0.3345
18940TIP3    H278236   5.437   1.439  15.492 -0.5065 -0.7460  0.8780
18941TIP3   OH278237   3.022   6.013  16.375 -0.0527  0.9496  0.5130
18941TIP3    H178238   2.931   6.035  16.395 -0.4396  0.7305 -0.9235
18941TIP3    H278239   3.067   6.020  16.459 -1.2768  1.6182  1.1395
18942TIP3   OH278240   4.886   4.568   0.217 -0.0282  0.2393 -0.1271
18942TIP3    H178241   4.841   4.561   0.133 -1.6122 -0.9162  0.7650
18942TIP3    H278242   4.831   4.519   0.278  2.0862 -0.6449  1.1976
18943TIP3   OH278243   4.322   1.588  13.747 -0.5315 -0.0205 -0.8693
18943TIP3    H178244   4.402   1.640  13.751 -0.6211  0.2663 -2.3269
18943TIP3    H278245   4.350   1.499  13.766  0.0487  0.1631 -0.8325
18944TIP3   OH278246   4.178   1.078   5.220 -0.5683 -0.5449  0.2394
18944TIP3    H178247   4.209   1.150   5.274 -2.8501 -0.8407  2.1216
18944TIP3    H278248   4.155   1.118   5.136  0.5985  0.4003  0.3470
18945TIP3   OH278249   4.843   4.087   4.686 -0.1942 -0.6804  0.1951
18945TIP3    H178250   4.888   4.158   4.639 -0.8982 -0.7533 -0.6183
18945TIP3    H278251   4.793   4.132   4.755 -1.2065 -0.2835 -0.7624
18946TIP3   OH278252   2.491   5.045   0.370  0.1794 -0.3813 -0.3174
18946TIP3    H178253   2.542   5.035   0.450 -0.2573  0.0480  0.0200
18946TIP3    H278254   2.428   5.114   0.390  1.4780  1.3260 -1.7219
18947TIP3   OH278255   5.187   3.355   3.323 -0.3916  0.2157 -0.2555
18947TIP3    H178256   5.121   3.420   3.298  1.0806  1.7020 -0.4970
18947TIP3    H278257   5.136   3.278   3.350 -2.1841  1.0825 -0.9686
18948TIP3   OH278258   6.132   5.620  13.013  0.0761 -0.6184 -0.1623
18948TIP3    H178259   6.149   5.525  13.009  0.7681 -0.4817 -0.5754
18948TIP3    H278260   6.165   5.647  13.098 -2.0656 -1.1008  0.9050
18949TIP3   OH278261   1.113   4.539  12.609 -0.1904  0.0527 -0.1069
18949TIP3    H178262   1.103   4.447  12.584 -0.3093 -0.1413  0.6236
18949TIP3    H278263   1.033   4.560  12.657  0.9494 -0.2624  2.0529
18950TIP3   OH278264   1.969   0.291  13.255  0.6438 -0.5424  0.9905
18950TIP3    H178265   1.952   0.246  13.172  1.8314 -1.5275  1.2557
18950TIP3    H278266   1.901   0.259  13.314  0.6792 -0.9918  0.7978
18951TIP3   OH278267   3.376   6.292   1.588 -0.2388 -0.4411  0.7755
18951TIP3    H178268   3.391   6.254   1.675 -0.3387  0.3601  1.1479
18951TIP3    H278269   3.438   6.246   1.531 -1.5967 -2.4811  0.8263
18952TIP3   OH278270   6.294   4.716  16.794  0.3643  0.0336 -1.2983
18952TIP3    H178271   6.387   4.737  16.792 -0.1753  2.8695 -0.9284
18952TIP3    H278272   6.286   4.640  16.737  2.7607  0.3926 -2.2572
18953TIP3   OH278273   1.158   1.726  15.438 -0.3399  0.5763  0.1918
18953TIP3    H178274   1.107   1.671  15.498 -0.8647 -1.9575 -2.3132
18953TIP3    H278275   1.100   1.738  15.362  2.3717 -2.0273 -2.5847
18954TIP3   OH278276   2.967   2.197   0.856  0.1453 -0.4866 -0.0123
18954TIP3    H178277   2.897   2.170   0.914  0.6334  0.0321  0.8339
18954TIP3    H278278   3.046   2.198   0.911 -0.1171  4.8661  0.7989
18955TIP3   OH278279   4.272   3.170  14.296 -0.0647 -0.1313 -0.2085
18955TIP3    H178280   4.200   3.111  14.275  1.4516 -2.5280  0.8130
18955TIP3    H278281   4.331   3.165  14.221  0.9147 -1.3891  0.6010
18956TIP3   OH278282   0.140   6.113   0.116 -0.6710 -0.2935 -0.1257
18956TIP3    H178283   0.193   6.178   0.163 -1.2116  0.6090 -0.7411
18956TIP3    H278284   0.120   6.047   0.182  0.2231 -0.0517  0.4162
18957TIP3   OH278285   6.494   0.833  12.817 -0.1656 -0.4319 -0.0780
18957TIP3    H178286   6.447   0.751  12.804 -0.8585 -0.1339  0.4748
18957TIP3    H278287   6.566   0.811  12.876  0.5001 -0.9253 -1.0615
18958TIP3   OH278288   0.044   2.132  12.027  0.1822 -0.0295 -0.5172
18958TIP3    H178289  -0.031   2.142  12.086  0.5968 -2.4896  0.5342
18958TIP3    H278290   0.120   2.158  12.080  0.5905 -2.5281  0.2477
18959TIP3   OH278291   1.867   5.127   0.894  0.0745 -0.0405  0.0137
18959TIP3    H178292   1.814   5.065   0.944 -1.3226 -1.0634 -2.5355
18959TIP3    H278293   1.805   5.194   0.866 -0.0654 -1.2773 -3.0605
18960TIP3   OH278294   0.508   6.048  15.481  0.6158 -0.1309  0.1917
18960TIP3    H178295   0.434   6.089  15.525  0.2228 -0.0669 -0.5234
18960TIP3    H278296   0.565   6.121  15.456  0.5151 -0.1161  0.0059
18961TIP3   OH278297   5.639   2.129   2.490 -0.2305 -0.6969  0.1552
18961TIP3    H178298   5.589   2.172   2.420  1.1785  1.4965  0.3923
18961TIP3    H278299   5.573   2.106   2.556 -1.2245 -0.1998 -0.6291
18962TIP3   OH278300   5.733   4.594   5.879  0.3131 -0.4792 -0.2700
18962TIP3    H178301   5.760   4.513   5.923  2.1170  0.6148  0.7399
18962TIP3    H278302   5.803   4.656   5.897 -2.0431  2.0465  0.9831
18963TIP3   OH278303   5.302   4.571  12.443 -0.6059 -0.1743 -0.9306
18963TIP3    H178304   5.234   4.584  12.509 -1.0797 -0.3420 -1.3805
18963TIP3    H278305   5.361   4.506  12.482 -0.2291  0.5803 -0.1947
18964TIP3   OH278306   0.106   2.557   0.708  0.3151  0.3469  0.5410
18964TIP3    H178307   0.016   2.541   0.737 -0.1141 -1.4578 -1.5282
18964TIP3    H278308   0.105   2.647   0.676 -1.3661 -0.2550 -1.3141
18965TIP3   OH278309   2.828   2.038  12.043 -0.8512  0.0776  0.6382
18965TIP3    H178310   2.893   1.992  12.095 -1.7010  0.0731  1.7414
18965TIP3    H278311   2.746   1.992  12.061 -0.9098 -1.2491 -2.3109
18966TIP3   OH278312   4.968   4.702  15.640  0.2589 -0.2043  0.0764
18966TIP3    H178313   5.023   4.705  15.718  0.0295 -0.1802  0.2387
18966TIP3    H278314   4.905   4.773  15.652  1.0249  0.6378 -0.7427
18967TIP3   OH278315   2.403   1.530   6.495 -0.1522  0.3792  0.4316
18967TIP3    H178316   2.478   1.589   6.501 -0.1387  0.4988 -0.8211
18967TIP3    H278317   2.339   1.568   6.556  0.9425  0.0151  1.8776
18968TIP3   OH278318   0.174   2.913   1.661 -0.1060 -0.3608  0.6624
18968TIP3    H178319   0.186   2.951   1.747 -0.0002 -2.2976  1.5565
18968TIP3    H278320   0.084   2.881   1.661  0.4797 -2.1138  0.8351
18969TIP3   OH278321   4.132   1.430   4.032  0.0110  0.2451  0.1362
18969TIP3    H178322   4.135   1.349   3.980  0.1380 -0.2142  0.8502
18969TIP3    H278323   4.222   1.443   4.062  0.5282  1.9784 -1.9476
18970TIP3   OH278324   0.639   0.627   2.319 -0.4838  0.3691 -1.1049
18970TIP3    H178325   0.570   0.577   2.274  1.1048 -0.5746 -2.6071
18970TIP3    H278326   0.692   0.662   2.248 -0.7040  3.0805 -0.0562
18971TIP3   OH278327   6.059   5.436  12.339 -0.3409 -0.2371 -0.0169
18971TIP3    H178328   5.982   5.380  12.321 -0.6136  0.1830 -0.1743
18971TIP3    H278329   6.023   5.513  12.381 -0.1460  0.4507 -1.0633
18972TIP3   OH278330   1.815   0.977   0.096  0.4979 -0.3559 -0.1095
18972TIP3    H178331   1.751   1.004   0.163  1.3296 -1.4459  1.1947
18972TIP3    H278332   1.898   0.974   0.143  0.9088 -2.3756 -0.8599
18973TIP3   OH278333   3.640   5.152  14.853  0.5145  0.1901 -0.7580
18973TIP3    H178334   3.672   5.073  14.896  1.3046  0.3028 -1.1125
18973TIP3    H278335   3.550   5.161  14.883  0.5758 -0.5621 -0.3166
18974TIP3   OH278336   6.382   6.199   4.238 -0.1122  0.1811 -0.7592
18974TIP3    H178337   6.451   6.224   4.176  0.4628 -0.0919 -0.2428
18974TIP3    H278338   6.316   6.268   4.230  0.6634  0.9513 -0.5826
18975TIP3   OH278339   0.850   6.742  17.209 -0.1403 -0.5920 -0.2316
18975TIP3    H178340   0.774   6.747  17.267  1.5196  0.0032  2.0452
18975TIP3    H278341   0.895   6.826  17.222  1.0122 -1.0083 -1.3332
18976TIP3   OH278342   4.593   1.665  13.838  0.1120 -0.3948 -0.4654
18976TIP3    H178343   4.635   1.585  13.871 -0.2188 -0.6043 -0.5494
18976TIP3    H278344   4.540   1.697  13.911 -2.7956 -2.3303 -1.5292
18977TIP3   OH278345   4.468   2.040   5.048  0.4495 -0.1174  0.0049
18977TIP3    H178346   4.421   2.091   5.114  0.9707 -0.6124  0.7822
18977TIP3    H278347   4.559   2.067   5.058  0.4913  0.0307 -0.7361
18978TIP3   OH278348   4.315   3.757   0.359 -0.2653 -0.3233  0.0297
18978TIP3    H178349   4.400   3.727   0.328  1.4579  2.5076  1.5330
18978TIP3    H278350   4.303   3.714   0.444 -0.5635 -1.1008 -0.4088
18979TIP3   OH278351   3.635   6.104   5.335  0.2911  0.0747  0.4685
18979TIP3    H178352   3.715   6.156   5.336 -0.0764  0.6305  1.2716
18979TIP3    H278353   3.582   6.138   5.406 -0.2736 -0.9133  0.5474
18980TIP3   OH278354   6.485   6.250  16.546 -0.1989 -0.1437  0.2161
18980TIP3    H178355   6.399   6.242  16.505 -0.0440 -0.7187 -0.0097
18980TIP3    H278356   6.512   6.340  16.528 -1.6467  0.7351  2.0939
18981TIP3   OH278357   4.821   6.123  15.760 -0.1178  0.9089  0.0895
18981TIP3    H178358   4.783   6.080  15.837  1.1692 -0.5454 -0.0097
18981TIP3    H278359   4.750   6.126  15.696 -0.2376 -1.3605  0.0322
18982TIP3   OH278360   6.125   1.451   2.764 -0.0966  0.9289 -0.2561
18982TIP3    H178361   6.104   1.447   2.671  0.5036  4.1366 -0.6386
18982TIP3    H278362   6.221   1.448   2.766 -0.1399 -0.5645  0.4104
18983TIP3   OH278363   4.066   0.599  15.430 -0.1640 -0.1371 -0.6165
18983TIP3    H178364   3.989   0.652  15.409 -0.2026  0.1823  0.2615
18983TIP3    H278365   4.037   0.543  15.502  0.6769  0.6400  0.3554
18984TIP3   OH278366   6.149   2.308  16.477  0.1924  0.2951  0.0322
18984TIP3    H178367   6.230   2.359  16.464  0.2108  0.5044  0.9394
18984TIP3    H278368   6.084   2.373  16.502  0.2143 -0.1176  1.2003
18985TIP3   OH278369   5.449   4.780  17.054  0.9009 -0.4204 -0.2455
18985TIP3    H178370   5.484   4.749  17.137  1.4917 -0.5794 -0.5464
18985TIP3    H278371   5.525   4.780  16.995  0.4110 -0.6466 -0.8783
18986TIP3   OH278372   5.061   2.994   2.522  0.6984 -0.2636 -0.0865
18986TIP3    H178373   5.008   2.942   2.460  1.1890  0.0041 -0.7485
18986TIP3    H278374   5.122   3.042   2.466 -0.1071  1.4691  0.4758
18987TIP3   OH278375   2.503   4.142   5.115  0.3721  0.3895  0.4616
18987TIP3    H178376   2.563   4.119   5.044  0.4165  0.2711  0.5368
18987TIP3    H278377   2.487   4.059   5.160  2.4549  0.8838  2.2681
18988TIP3   OH278378   3.710   2.623   5.793 -0.7246 -0.3938  0.1916
18988TIP3    H178379   3.785   2.567   5.776 -0.7693 -0.3845 -0.0433
18988TIP3    H278380   3.637   2.562   5.806 -0.6438 -0.4074  0.5856
18989TIP3   OH278381   4.174   4.265  11.819  0.1755 -0.3095 -0.1709
18989TIP3    H178382   4.091   4.237  11.780 -0.8636 -0.2049  1.8389
18989TIP3    H278383   4.214   4.183  11.849 -1.1197 -0.1197  2.3704
18990TIP3   OH278384   5.893   5.812  14.639 -0.2922 -0.4251  0.0383
18990TIP3    H178385   5.960   5.758  14.598 -0.3048 -0.7754  0.4617
18990TIP3    H278386   5.927   5.831  14.727  0.3407  1.4471 -0.5792
18991TIP3   OH278387   1.492   3.094  11.762  0.3325 -0.4541  0.6211
18991TIP3    H178388   1.477   3.012  11.715 -0.7158 -0.3453  0.7452
18991TIP3    H278389   1.471   3.162  11.698 -2.1143 -0.2969  1.4830
18992TIP3   OH278390   2.958   3.426  12.097  0.0228 -0.8818 -0.1045
18992TIP3    H178391   2.892   3.436  12.165  1.3967 -1.2672  1.3636
18992TIP3    H278392   2.963   3.511  12.055 -1.6470 -0.9598 -0.4907
18993TIP3   OH278393   2.928   6.129  14.451 -0.0605 -0.4323 -0.0957
18993TIP3    H178394   2.861   6.128  14.383  0.1807  0.1804 -0.3462
18993TIP3    H278395   2.881   6.108  14.532 -0.5284 -0.1499 -0.2943
18994TIP3   OH278396   5.459   1.990   0.008  0.2396  0.2637  0.1170
18994TIP3    H178397   5.475   1.932  -0.067  1.1094  1.6155 -0.7722
18994TIP3    H278398   5.527   1.966   0.071  0.9182  0.6489 -0.4564
18995TIP3   OH278399   4.548   6.604  13.062  0.3087 -0.0916 -0.1275
18995TIP3    H178400   4.624   6.624  13.117  0.8734 -0.9900 -0.5654
18995TIP3    H278401   4.556   6.665  12.988  0.0771  0.4586  0.2937
18996TIP3   OH278402   0.477   6.743  15.628 -0.3190  0.0805 -0.1599
18996TIP3    H178403   0.533   6.681  15.675 -0.8353 -0.7401 -0.6138
18996TIP3    H278404   0.455   6.699  15.546 -1.7943  0.3013  0.0954
18997TIP3   OH278405   6.458   6.545   2.473 -0.2906 -0.0404  0.1857
18997TIP3    H178406   6.518   6.620   2.473  0.0903 -0.3390 -0.3046
18997TIP3    H278407   6.489   6.490   2.401 -0.5794 -0.6563  0.5285
18998TIP3   OH278408   1.733   6.673  15.258  0.3077  0.3090  0.3165
18998TIP3    H178409   1.737   6.709  15.169 -0.9357  1.2156  0.5915
18998TIP3    H278410   1.726   6.579  15.246  0.4212  0.4050 -0.5394
18999TIP3   OH278411   3.125   3.354   2.903 -0.6732  0.6864 -0.0947
18999TIP3    H178412   3.124   3.408   2.983  2.9792  1.0119 -0.1053
18999TIP3    H278413   3.153   3.414   2.834  0.3726 -0.4968 -0.7422
19000TIP3   OH278414   1.825   3.251  12.862 -0.1037 -0.1028 -0.0276
19000TIP3    H178415   1.756   3.271  12.926 -0.3215  1.0520 -0.5994
19000TIP3    H278416   1.894   3.313  12.880  0.2100 -0.3527 -0.3504
19001TIP3   OH278417   0.788   5.757  15.984 -0.3904  0.5863  0.3616
19001TIP3    H178418   0.753   5.847  15.978 -1.6753  0.0690 -0.3334
19001TIP3    H278419   0.873   5.768  16.026  1.5566  2.6950 -3.5190
19002TIP3   OH278420   0.457   5.940   3.451 -0.3749 -0.4706  0.1771
19002TIP3    H178421   0.474   6.028   3.416 -4.7414  0.7716  0.5943
19002TIP3    H278422   0.370   5.947   3.491 -0.8279 -4.9874  0.4020
19003TIP3   OH278423   2.213   2.499  16.698  0.0396  0.4917 -0.0040
19003TIP3    H178424   2.176   2.582  16.728 -1.9385 -0.5390  0.6069
19003TIP3    H278425   2.230   2.450  16.779  0.2229 -0.0891 -0.3823
19004TIP3   OH278426   2.141   4.868   3.962 -0.1895 -0.4127 -0.4872
19004TIP3    H178427   2.169   4.780   3.985 -0.5337 -0.6394 -0.9098
19004TIP3    H278428   2.046   4.861   3.950 -0.5307  0.4539  1.4269
19005TIP3   OH278429   3.577   2.803  13.111 -0.4129  0.1208  0.3873
19005TIP3    H178430   3.522   2.726  13.127 -0.1710 -0.1706 -0.1427
19005TIP3    H278431   3.579   2.811  13.016 -0.0945  0.5354  0.4267
19006TIP3   OH278432   5.327   5.893   4.110 -0.7562  0.1758 -0.6918
19006TIP3    H178433   5.387   5.834   4.155 -1.5962 -0.6739 -0.6531
19006TIP3    H278434   5.379   5.928   4.037 -0.4115 -1.0990 -1.0957
19007TIP3   OH278435   1.981   5.234   6.481  0.0098  0.1850  0.2128
19007TIP3    H178436   2.010   5.324   6.466  0.5769  0.0934  0.7194
19007TIP3    H278437   1.962   5.200   6.394 -0.1759  0.7857  0.0176
19008TIP3   OH278438   6.497   5.519   4.132 -0.5243  0.2934  0.1877
19008TIP3    H178439   6.528   5.560   4.212 -0.6702  1.4056 -0.3068
19008TIP3    H278440   6.513   5.426   4.145 -1.1916  0.3663  1.7858
19009TIP3   OH278441   6.617   0.496   4.173  0.8110 -0.6431 -0.1259
19009TIP3    H178442   6.665   0.472   4.094  0.5188 -1.0949 -0.1682
19009TIP3    H278443   6.593   0.413   4.214 -1.5474 -0.5050 -1.0857
19010TIP3   OH278444   5.386   3.472   0.491 -0.2828 -0.3233  0.8170
19010TIP3    H178445   5.403   3.516   0.407 -0.7874 -0.6667  0.5322
19010TIP3    H278446   5.321   3.527   0.534 -0.2389 -0.3055  0.8613
19011TIP3   OH278447   4.975   0.697  10.600  0.2989 -0.5169  0.1775
19011TIP3    H178448   5.000   0.614  10.639 -0.2393 -0.9847 -0.4472
19011TIP3    H278449   4.897   0.677  10.548 -1.1049  0.7829  1.6688
19012TIP3   OH278450   1.763   2.155  16.129  0.1319  0.1649  0.3217
19012TIP3    H178451   1.685   2.138  16.182 -0.5198 -2.4442 -1.2523
19012TIP3    H278452   1.768   2.080  16.070  2.4345  1.4970 -1.3519
19013TIP3   OH278453   3.476   2.397  16.402 -0.1016  0.1034  0.4562
19013TIP3    H178454   3.385   2.380  16.426 -0.0890 -1.4592 -0.4687
19013TIP3    H278455   3.522   2.400  16.486 -0.8877  0.2373  0.8992
19014TIP3   OH278456   4.592   0.871  15.395  0.1481  0.1989  0.2134
19014TIP3    H178457   4.679   0.895  15.362 -0.2829 -0.4994 -1.5657
19014TIP3    H278458   4.608   0.798  15.455  0.6239 -2.1846 -2.5797
19015TIP3   OH278459   2.916   3.656  17.166 -0.3886  0.5613  0.1592
19015TIP3    H178460   2.829   3.640  17.129  0.0303 -0.1661 -0.5323
19015TIP3    H278461   2.900   3.717  17.239 -1.2782  1.7496 -0.9772
19016TIP3   OH278462   5.214   4.836  16.545 -0.4205  0.3785 -0.0672
19016TIP3    H178463   5.278   4.770  16.521 -0.3473  0.7419 -0.9031
19016TIP3    H278464   5.226   4.848  16.639 -0.0667 -0.3980 -0.0096
19017TIP3   OH278465   1.000   6.149  11.866 -0.3686 -0.2042 -0.0881
19017TIP3    H178466   1.079   6.171  11.914  0.5943 -0.4191 -1.4938
19017TIP3    H278467   1.020   6.065  11.824 -0.7230  0.4793 -1.7195
19018TIP3   OH278468   6.232   3.519  15.409 -0.1895  0.2883 -0.2485
19018TIP3    H178469   6.220   3.613  15.427  2.3041  0.6936 -0.3055
19018TIP3    H278470   6.198   3.508  15.320 -2.6523  0.5841  0.5838
19019TIP3   OH278471   2.599   3.093  15.835 -0.0829 -0.2817  0.6642
19019TIP3    H178472   2.559   3.125  15.754  0.5564 -0.7821  0.1436
19019TIP3    H278473   2.586   3.165  15.898  0.4258  0.5896 -0.2002
19020TIP3   OH278474   1.572   5.285  13.743 -0.2864 -0.1696  0.2812
19020TIP3    H178475   1.611   5.262  13.828  0.7289 -0.1820 -0.1736
19020TIP3    H278476   1.612   5.369  13.720 -0.9871  0.1175  0.0683
19021TIP3   OH278477   1.553   5.538  16.338  0.4204 -0.0317 -0.4717
19021TIP3    H178478   1.506   5.586  16.406  1.0357  0.4489 -0.3730
19021TIP3    H278479   1.637   5.583  16.331  1.4138 -1.6737  0.3014
19022TIP3   OH278480   6.056   3.764   2.479  0.2242 -0.5169 -0.3718
19022TIP3    H178481   6.143   3.775   2.442 -0.4341  3.2182 -1.2993
19022TIP3    H278482   6.063   3.797   2.568  0.0602 -1.6367  0.0644
19023TIP3   OH278483   3.450   0.200  14.993  0.2163 -0.3236  0.0060
19023TIP3    H178484   3.432   0.223  14.902  0.6029 -1.0595 -0.2672
19023TIP3    H278485   3.515   0.130  14.987  2.2674  1.3650  0.9008
19024TIP3   OH278486   1.031   3.331  11.074  0.2136  0.0280 -0.0178
19024TIP3    H178487   1.047   3.404  11.014  1.8157  0.0402  0.3823
19024TIP3    H278488   1.112   3.322  11.123 -0.6368 -0.7865  1.3096
19025TIP3   OH278489   1.942   4.105  13.966  0.4325  0.5517  0.1914
19025TIP3    H178490   1.847   4.098  13.961  0.3704  1.1973  0.3452
19025TIP3    H278491   1.973   4.014  13.974 -0.1095  0.2846 -0.7023
19026TIP3   OH278492   2.697   5.709  11.893 -0.5084 -0.1251 -0.1041
19026TIP3    H178493   2.636   5.652  11.939 -2.6530  3.0030  1.3328
19026TIP3    H278494   2.722   5.775  11.957  4.0622 -0.8025 -0.8356
19027TIP3   OH278495   3.560   5.294  12.765  0.2885 -0.2692 -0.4176
19027TIP3    H178496   3.475   5.289  12.809  0.5006 -2.2677 -0.1404
19027TIP3    H278497   3.538   5.296  12.671 -0.0647  0.3023 -0.3310
19028TIP3   OH278498   3.211   6.036   6.767 -0.4300  0.3851  0.3656
19028TIP3    H178499   3.199   6.016   6.675  1.9719  1.1865 -0.1820
19028TIP3    H278500   3.222   6.131   6.770 -0.6330  0.3881  1.4928
19029TIP3   OH278501   6.036   6.330  15.311 -0.4010  0.6941  0.0834
19029TIP3    H178502   6.105   6.333  15.245 -0.2145  0.0121  0.2383
19029TIP3    H278503   5.958   6.360  15.266 -0.2946  0.1597 -0.4768
19030TIP3   OH278504   0.094   3.859  17.046  0.0426  0.2076 -0.2742
19030TIP3    H178505   0.117   3.806  17.122 -0.3031 -0.5469 -0.6782
19030TIP3    H278506   0.025   3.809  17.002 -2.2560  2.2201  0.7663
19031TIP3   OH278507   0.287   2.226   0.190  0.2204 -0.3011 -0.2550
19031TIP3    H178508   0.252   2.248   0.104 -1.5421 -0.3722  0.4021
19031TIP3    H278509   0.235   2.278   0.251  1.9890  0.3925  0.7505
19032TIP3   OH278510   0.211   1.565   2.071  0.5499 -0.3556 -0.0332
19032TIP3    H178511   0.222   1.653   2.109  1.8021 -1.0543  1.3349
19032TIP3    H278512   0.149   1.577   2.000 -1.2927  1.2276  1.7066
19033TIP3   OH278513   5.891   4.166   6.276 -0.7682  0.1792  0.0682
19033TIP3    H178514   5.819   4.194   6.332 -0.0512  0.0665  1.0837
19033TIP3    H278515   5.940   4.104   6.330 -0.1964 -0.1219 -0.7803
19034TIP3   OH278516   0.500   2.606  15.915 -0.2583  0.1516 -0.3569
19034TIP3    H178517   0.558   2.673  15.880  2.6881 -2.7283 -1.5210
19034TIP3    H278518   0.439   2.587  15.844  1.1201 -0.6824 -1.3815
19035TIP3   OH278519   3.421   4.249   4.287 -0.2320 -0.0148  0.4764
19035TIP3    H178520   3.507   4.237   4.247 -1.1347  2.9959 -2.8490
19035TIP3    H278521   3.366   4.183   4.246 -0.1060 -0.2571  0.6866
19036TIP3   OH278522   6.248   3.271  16.342 -0.2296 -0.5961  0.5503
19036TIP3    H178523   6.203   3.238  16.264 -2.2482 -2.0788  2.2203
19036TIP3    H278524   6.203   3.228  16.415  0.4515  1.9802  2.6295
19037TIP3   OH278525   4.498   4.840   1.482  0.5082  0.2350 -0.2788
19037TIP3    H178526   4.572   4.819   1.539  1.1838  1.1786 -0.7916
19037TIP3    H278527   4.473   4.929   1.507  1.4368  1.0468 -2.0819
19038TIP3   OH278528   2.362   1.339   3.825  0.1196 -0.1811 -0.1750
19038TIP3    H178529   2.375   1.404   3.756 -2.2103 -1.9904 -2.4836
19038TIP3    H278530   2.319   1.388   3.895 -0.3152  1.0817 -1.2758
19039TIP3   OH278531   0.281   0.180  15.005  0.6470  0.8601 -0.5149
19039TIP3    H178532   0.376   0.188  15.006  0.8244 -0.5528  1.7012
19039TIP3    H278533   0.262   0.128  14.926  1.7835  0.5473 -0.5989
19040TIP3   OH278534   3.454   3.420   2.128  0.3057 -0.2193  0.4679
19040TIP3    H178535   3.517   3.414   2.057 -0.2022  0.6744 -0.0738
19040TIP3    H278536   3.413   3.506   2.118 -0.0768 -0.2438  1.5853
19041TIP3   OH278537   0.416   6.666   1.746 -0.5592 -0.2281 -0.2181
19041TIP3    H178538   0.350   6.701   1.686 -0.4540 -0.7559 -0.6513
19041TIP3    H278539   0.389   6.698   1.832 -0.6005  0.6986 -0.5636
19042TIP3   OH278540   3.196   5.960  12.756  0.4354  0.4905 -0.7365
19042TIP3    H178541   3.220   5.873  12.785 -1.6822  0.6060  1.6627
19042TIP3    H278542   3.155   5.946  12.670 -0.4171 -0.9612 -0.1186
19043TIP3   OH278543   0.949   6.578  13.021 -0.0965 -0.1485  0.3170
19043TIP3    H178544   0.889   6.594  12.948  0.0462  0.6768  0.3616
19043TIP3    H278545   1.027   6.630  13.000  0.4006 -0.8148  0.5026
19044TIP3   OH278546   4.763   4.136  13.576  0.4249  0.1625  0.4181
19044TIP3    H178547   4.673   4.106  13.586 -0.0821  1.0500 -1.1529
19044TIP3    H278548   4.756   4.229  13.557  1.7263  0.4139  1.0571
19045TIP3   OH278549   5.881   4.042  16.107 -0.0972 -0.4555 -0.2048
19045TIP3    H178550   5.822   4.028  16.181  1.4236  1.4993  1.4904
19045TIP3    H278551   5.964   4.003  16.135  0.8484  1.3756 -0.2858
19046TIP3   OH278552   1.900   4.833  14.370  0.6547 -0.7416 -0.5668
19046TIP3    H178553   1.871   4.838  14.280  0.0817  1.0594 -0.3214
19046TIP3    H278554   1.830   4.875  14.421  1.0028 -1.6374  0.7095
19047TIP3   OH278555   5.838   5.455   1.135  0.5517  0.6976 -0.0633
19047TIP3    H178556   5.796   5.434   1.051  0.7813  0.6641 -0.1701
19047TIP3    H278557   5.775   5.511   1.180  1.1327  2.1392 -0.9607
19048TIP3   OH278558   5.162   1.520   5.081  0.2387  0.0266  0.4153
19048TIP3    H178559   5.085   1.575   5.079  0.8843  0.9549  0.7502
19048TIP3    H278560   5.133   1.438   5.122 -1.2057 -0.6728 -1.8379
19049TIP3   OH278561   4.817   3.103  17.338  0.6756  0.9363  0.1033
19049TIP3    H178562   4.872   3.115  17.261  1.3578  1.5493  0.6734
19049TIP3    H278563   4.769   3.185  17.346  0.3041  0.7241  0.1110
19050TIP3   OH278564   2.405   4.069  12.896 -0.6605  0.1490 -0.1504
19050TIP3    H178565   2.436   4.081  12.807  0.1553 -1.9362 -0.1996
19050TIP3    H278566   2.396   4.158  12.930  0.5095  0.9589 -1.8020
19051TIP3   OH278567   1.692   5.985  12.150 -0.1652  0.0221 -0.1054
19051TIP3    H178568   1.708   5.893  12.132  1.9160 -0.2461  2.4202
19051TIP3    H278569   1.754   6.032  12.094  0.8555 -0.3250  0.7073
19052TIP3   OH278570   2.341   6.655   3.166 -0.0706  0.3103 -0.2600
19052TIP3    H178571   2.421   6.618   3.204 -0.3831  0.6020  0.7183
19052TIP3    H278572   2.371   6.734   3.120  0.3526 -0.1899 -0.8459
19053TIP3   OH278573   0.525   4.568   4.467  0.5028 -0.1041 -0.3146
19053TIP3    H178574   0.573   4.576   4.550 -0.9575 -0.1837  0.5653
19053TIP3    H278575   0.499   4.476   4.464  0.7354 -0.1481 -0.9775
19054TIP3   OH278576   3.915   5.615  12.098  0.2367  0.3865  0.0697
19054TIP3    H178577   3.878   5.591  12.013  1.3130 -0.9501 -0.0494
19054TIP3    H278578   3.839   5.639  12.151 -0.5057  0.6358 -1.0736
19055TIP3   OH278579   4.403   4.197   1.992  0.0746 -0.1466 -0.3481
19055TIP3    H178580   4.329   4.236   2.038  1.4018  1.0643  0.8626
19055TIP3    H278581   4.363   4.141   1.925 -1.9067  0.7131  0.0476
19056TIP3   OH278582   4.422   4.367  16.836  0.5611  0.0980  0.2861
19056TIP3    H178583   4.408   4.274  16.816  2.2811  0.3169 -2.6034
19056TIP3    H278584   4.405   4.412  16.753  1.7970  2.0933  1.0405
19057TIP3   OH278585   4.382   5.304  12.769  0.3877  0.0608 -0.4746
19057TIP3    H178586   4.450   5.359  12.809 -0.0994  0.0438  0.3943
19057TIP3    H278587   4.411   5.293  12.678  0.5317  1.7170 -0.6654
19058TIP3   OH278588   0.308   1.405  16.419  0.1432  0.6986 -0.0289
19058TIP3    H178589   0.325   1.495  16.390  2.8358  0.4306  0.4852
19058TIP3    H278590   0.312   1.353  16.339  0.1012  0.8323 -0.1201
19059TIP3   OH278591   5.931   1.327  11.270 -0.0432 -0.1358  0.3218
19059TIP3    H178592   5.853   1.272  11.276  0.1616 -0.6151 -1.0514
19059TIP3    H278593   6.002   1.269  11.298  0.0047 -0.1555  0.1584
19060TIP3   OH278594   2.839   4.532  11.768 -0.5728  0.1631 -0.5321
19060TIP3    H178595   2.820   4.558  11.858 -0.7789 -0.5769 -0.3529
19060TIP3    H278596   2.763   4.479  11.742 -0.9709  1.1603 -1.4729
19061TIP3   OH278597   4.689   2.580   6.478 -0.1087 -0.2980  0.1697
19061TIP3    H178598   4.782   2.566   6.496  0.2133  0.0489 -1.1165
19061TIP3    H278599   4.676   2.549   6.388 -1.4935 -1.3954  0.7068
19062TIP3   OH278600   3.019   4.362  16.809 -0.5471  0.2419  0.6622
19062TIP3    H178601   2.952   4.323  16.753 -0.6905  0.9384  0.3279
19062TIP3    H278602   3.099   4.315  16.787 -0.6221  0.4446 -0.0716
19063TIP3   OH278603   2.306   2.599   4.458 -0.5057 -0.1370  0.0446
19063TIP3    H178604   2.258   2.587   4.377 -0.5573 -1.1247  0.2041
19063TIP3    H278605   2.265   2.538   4.520  1.4435 -1.6624 -0.0556
19064TIP3   OH278606   0.974   6.249  13.351  0.0969 -0.0502  0.0639
19064TIP3    H178607   1.065   6.218  13.359 -0.3464 -1.4789 -0.1780
19064TIP3    H278608   0.958   6.252  13.257  0.2813  1.4737  0.0526
19065TIP3   OH278609   5.982   2.509   5.619  0.4982  0.0922 -0.1031
19065TIP3    H178610   5.901   2.506   5.568 -0.0199 -0.5045  0.7311
19065TIP3    H278611   5.974   2.589   5.671  1.0594  0.7401 -0.9821
19066TIP3   OH278612   5.235   5.492   3.674  0.0480 -0.0017  0.5322
19066TIP3    H178613   5.282   5.441   3.609  0.1067  0.2667  0.3648
19066TIP3    H278614   5.228   5.433   3.750 -0.1317 -0.3556  0.2413
19067TIP3   OH278615   3.233   0.498  13.471 -0.0753  0.1160  0.1751
19067TIP3    H178616   3.291   0.499  13.547 -1.0660  0.1655  0.9517
19067TIP3    H278617   3.224   0.405  13.448 -0.5126  0.0263  0.7021
19068TIP3   OH278618   0.586   0.225   1.105 -0.0990 -0.3824 -0.1462
19068TIP3    H178619   0.616   0.284   1.036 -0.1091 -2.9153 -2.4920
19068TIP3    H278620   0.549   0.150   1.058  0.4671 -2.5467  2.5999
19069TIP3   OH278621   2.379   6.412   0.762 -0.5585  0.3473  0.0055
19069TIP3    H178622   2.397   6.349   0.832 -1.2380  0.4871  0.3152
19069TIP3    H278623   2.417   6.372   0.683 -4.1197 -2.3350 -0.6186
19070TIP3   OH278624   6.582   1.222  14.104 -0.8546  0.0666 -0.1002
19070TIP3    H178625   6.571   1.287  14.174  1.5389 -1.5012  1.9280
19070TIP3    H278626   6.498   1.177  14.100 -1.6346  1.4214  0.4517
19071TIP3   OH278627   1.817   3.110   3.347  0.4714 -0.2633 -0.7728
19071TIP3    H178628   1.832   3.034   3.403 -0.4096 -0.3889 -0.6930
19071TIP3    H278629   1.823   3.185   3.406  0.5646 -0.3265 -0.7025
19072TIP3   OH278630   4.014   3.946   5.921 -0.0562  0.4254  0.3456
19072TIP3    H178631   4.023   4.039   5.900  1.5540  0.5887  1.5380
19072TIP3    H278632   4.068   3.901   5.856  0.4113  0.4751  0.6893
19073TIP3   OH278633   3.327   2.056   0.295 -0.3539 -0.2211  0.8405
19073TIP3    H178634   3.263   2.127   0.295  0.3627  0.4386  0.4378
19073TIP3    H278635   3.299   1.999   0.366 -2.6551 -1.1142 -0.6837
19074TIP3   OH278636   6.592   6.193   3.622  0.2732 -0.1314  0.2509
19074TIP3    H178637   6.617   6.144   3.543  1.0110  1.8737 -0.8452
19074TIP3    H278638   6.667   6.250   3.640 -0.7066  0.9532  1.1398
19075TIP3   OH278639   6.511   0.766  13.807  0.1383  0.0123  0.2496
19075TIP3    H178640   6.473   0.845  13.767  0.2838  1.1891  2.2685
19075TIP3    H278641   6.606   0.783  13.807  0.2382 -0.5334 -0.0333
19076TIP3   OH278642   4.608   5.240   3.890 -0.8267 -0.0382  0.5500
19076TIP3    H178643   4.556   5.278   3.961 -0.6058 -0.1000  0.7471
19076TIP3    H278644   4.698   5.269   3.909 -0.6400 -0.7242  0.7496
19077TIP3   OH278645   3.906   5.107  15.670 -0.3446  0.2225  0.8256
19077TIP3    H178646   3.844   5.037  15.691  0.5360 -0.7346  0.3189
19077TIP3    H278647   3.893   5.123  15.577  0.7225 -0.5854  0.5098
19078TIP3   OH278648   5.113   3.362   1.572 -0.1361 -0.3426 -0.2885
19078TIP3    H178649   5.098   3.417   1.496 -0.2917  1.2338  0.8447
19078TIP3    H278650   5.028   3.320   1.588  0.0346 -1.1141 -1.2610
19079TIP3   OH278651   5.249   5.478  17.159  0.4661 -0.1715  0.7791
19079TIP3    H178652   5.163   5.504  17.128  1.2591  1.8821  0.1835
19079TIP3    H278653   5.275   5.407  17.101  0.0988  0.6989 -0.4935
19080TIP3   OH278654   0.664   4.035   6.349 -0.0957  0.6152  0.9883
19080TIP3    H178655   0.622   4.115   6.319 -1.1275 -0.7209 -1.3961
19080TIP3    H278656   0.602   3.997   6.412 -1.4918 -0.2090 -0.8121
19081TIP3   OH278657   1.629   4.104   5.456  0.2020  0.1593 -0.2577
19081TIP3    H178658   1.721   4.103   5.430  0.1954 -0.3212 -0.2709
19081TIP3    H278659   1.626   4.166   5.529  0.4068  0.7056 -0.7102
19082TIP3   OH278660   6.162   2.588   3.741 -0.1050  0.3147 -0.6110
19082TIP3    H178661   6.185   2.496   3.760  4.6447  1.4708  0.5887
19082TIP3    H278662   6.109   2.615   3.817  0.6520 -0.7915  0.3542
19083TIP3   OH278663   4.290   2.267  16.037  0.6243 -0.1105  0.5161
19083TIP3    H178664   4.247   2.201  16.091  1.8184 -1.0042  0.4388
19083TIP3    H278665   4.343   2.216  15.975  1.1748  0.9159  0.1094
19084TIP3   OH278666   3.040   4.377   3.037 -0.5724 -0.1456  0.0546
19084TIP3    H178667   2.984   4.364   2.961 -0.0567 -1.1349 -0.1720
19084TIP3    H278668   3.118   4.325   3.019 -0.5164 -0.5403  1.3393
19085TIP3   OH278669   1.330   3.483   3.886 -0.8017  0.5286 -0.1225
19085TIP3    H178670   1.355   3.420   3.954  1.4397  0.2125 -1.1598
19085TIP3    H278671   1.255   3.442   3.842  0.4242 -1.3497 -0.5910
19086TIP3   OH278672   0.145   0.863  13.805 -0.4063 -0.2006  0.3637
19086TIP3    H178673   0.108   0.869  13.893  1.0010 -0.1491  0.9811
19086TIP3    H278674   0.133   0.951  13.768  1.6263  0.6719  1.6400
19087TIP3   OH278675   5.848   0.836  14.374  0.5882 -0.6162 -0.4481
19087TIP3    H178676   5.877   0.825  14.464 -1.6073  0.1468  0.4257
19087TIP3    H278677   5.883   0.920  14.347  0.0083 -0.1293  0.2627
19088TIP3   OH278678   2.880   6.026  17.334 -0.5009  0.2989 -0.0037
19088TIP3    H178679   2.948   5.963  17.358 -1.4855 -0.9504 -0.3915
19088TIP3    H278680   2.894   6.100  17.393  2.5396  1.0786 -1.4993
19089TIP3   OH278681   6.233   3.258   0.810  0.2445  0.3590  0.5482
19089TIP3    H178682   6.286   3.295   0.739 -0.8571  0.7584 -0.0880
19089TIP3    H278683   6.261   3.306   0.888 -0.0885  1.4758 -0.0057
19090TIP3   OH278684   5.689   1.635   3.453  0.1502 -0.3913 -0.1786
19090TIP3    H178685   5.638   1.644   3.372  0.4133  0.1300 -0.2918
19090TIP3    H278686   5.625   1.648   3.523  0.1340  0.3918 -0.3219
19091TIP3   OH278687   5.114   2.200   0.800 -0.0643  0.3144  0.0750
19091TIP3    H178688   5.140   2.108   0.793  0.0302  0.4048 -1.0347
19091TIP3    H278689   5.188   2.243   0.843  0.1219 -0.0408  0.1098
19092TIP3   OH278690   2.165   6.320  14.812 -0.0122 -0.7587 -0.0581
19092TIP3    H178691   2.115   6.385  14.763  1.0887 -0.0500 -0.2958
19092TIP3    H278692   2.231   6.371  14.859  0.9954 -1.7025 -0.3863
19093TIP3   OH278693   0.814   3.010   5.424  0.3517 -0.5318  0.1550
19093TIP3    H178694   0.806   3.101   5.451  0.8674 -0.2644 -0.5457
19093TIP3    H278695   0.769   2.960   5.492  0.5550  0.2011  0.8368
19094TIP3   OH278696   6.135   0.598   1.914  0.5602  0.8087  0.3830
19094TIP3    H178697   6.112   0.689   1.894  1.4686  1.0065  0.1879
19094TIP3    H278698   6.057   0.563   1.957 -0.5379  1.1158 -1.2537
19095TIP3   OH278699   4.193   2.185   4.045  0.2476 -0.4319 -0.5796
19095TIP3    H178700   4.193   2.098   4.087  0.2318  0.4218  1.2801
19095TIP3    H278701   4.101   2.207   4.035  0.1398  0.7897  2.1941
19096TIP3   OH278702   4.578   0.121  11.981 -0.1841 -0.6419  0.0651
19096TIP3    H178703   4.587   0.061  12.055  0.1225  1.7938  2.1287
19096TIP3    H278704   4.668   0.139  11.954 -0.1710  0.2148  0.6345
19097TIP3   OH278705   6.113   5.317  12.011  0.0083  0.1827  0.2285
19097TIP3    H178706   6.096   5.366  11.930 -2.1302  0.5996  0.8821
19097TIP3    H278707   6.028   5.309  12.053  0.4750 -2.9433  0.8578
19098TIP3   OH278708   3.921   5.400  13.217  0.2937 -0.6782  0.2763
19098TIP3    H178709   3.858   5.397  13.145  0.2714 -0.5813  0.2902
19098TIP3    H278710   3.874   5.363  13.292  0.1467 -0.3134  0.3655
19099TIP3   OH278711   6.462   2.748  15.841 -0.0692 -0.1733  0.1218
19099TIP3    H178712   6.409   2.669  15.852 -0.5115  0.0593 -0.2793
19099TIP3    H278713   6.545   2.727  15.883 -0.7019 -0.3159  1.3658
19100TIP3   OH278714   1.022   5.575   2.493  0.1854  0.2591 -0.2461
19100TIP3    H178715   0.963   5.517   2.540  0.0645  0.5168 -0.0797
19100TIP3    H278716   0.965   5.629   2.438  0.2013  0.9783  0.4241
19101TIP3   OH278717   6.282   4.489   2.188 -0.8234 -0.0913 -0.5260
19101TIP3    H178718   6.320   4.406   2.160  1.3107 -0.0780  1.9500
19101TIP3    H278719   6.216   4.509   2.122  0.4859 -2.3732 -2.6787
19102TIP3   OH278720   2.660   3.115   5.404  0.7015 -0.4551  0.4020
19102TIP3    H178721   2.581   3.086   5.450  0.3495  1.1406  0.8556
19102TIP3    H278722   2.627   3.146   5.320  0.4534  2.4533  1.4846
19103TIP3   OH278723   6.272   1.376  14.024  0.2172 -0.2185  0.1268
19103TIP3    H178724   6.306   1.460  13.991  0.3297 -0.1748  0.3523
19103TIP3    H278725   6.277   1.384  14.119  1.1045 -0.8378  0.1466
19104TIP3   OH278726   3.127   2.779   1.957 -0.1749  0.5178 -0.2332
19104TIP3    H178727   3.179   2.785   1.876  0.1609 -1.8607 -0.2527
19104TIP3    H278728   3.191   2.758   2.025 -0.6859  0.8212  0.3504
19105TIP3   OH278729   5.110   2.782   1.839 -0.0285  0.1212 -0.0658
19105TIP3    H178730   5.121   2.690   1.864 -1.4220 -0.0682 -0.0671
19105TIP3    H278731   5.120   2.830   1.921  0.9947  0.0170 -0.1103
19106TIP3   OH278732   6.547   4.148  16.803 -0.1709  0.3111  0.3311
19106TIP3    H178733   6.503   4.233  16.796 -1.7211 -0.3882  1.0838
19106TIP3    H278734   6.577   4.144  16.894 -2.0429 -0.8076  0.9462
19107TIP3   OH278735   3.974   2.853   2.581  0.4755 -0.0966  0.2697
19107TIP3    H178736   3.939   2.929   2.627 -0.3875  0.1902 -0.8267
19107TIP3    H278737   4.062   2.842   2.617  0.8112  1.7319  0.1007
19108TIP3   OH278738   1.016   6.540  11.313 -0.3201  0.0318 -0.1092
19108TIP3    H178739   1.099   6.504  11.343 -0.0132  0.1407 -0.8148
19108TIP3    H278740   1.020   6.535  11.218 -1.7987 -1.5184 -0.1508
19109TIP3   OH278741   5.759   1.777   4.567  0.2705  0.0619 -0.6969
19109TIP3    H178742   5.825   1.741   4.509  0.4985 -1.4712  0.4644
19109TIP3    H278743   5.798   1.858   4.601  0.2217  0.8571 -2.4470
19110TIP3   OH278744   0.693   5.166  16.662 -0.5324 -0.4275 -0.4020
19110TIP3    H178745   0.786   5.148  16.652 -0.5804 -0.8961 -0.0389
19110TIP3    H278746   0.690   5.244  16.717 -0.3376  0.2968 -1.3932
19111TIP3   OH278747   2.404   1.260   5.975  0.2882  0.3044 -0.3700
19111TIP3    H178748   2.345   1.241   6.048  0.5308 -0.0302 -0.2621
19111TIP3    H278749   2.478   1.305   6.016  1.1474 -1.2367 -0.1734
19112TIP3   OH278750   1.372   5.281  15.578 -0.1129  0.6194  0.3451
19112TIP3    H178751   1.390   5.311  15.488  0.2720  0.6633  0.4333
19112TIP3    H278752   1.383   5.360  15.631 -1.8875  0.9694  0.2674
19113TIP3   OH278753   3.460   3.780  17.307  0.2769  0.1379 -0.0242
19113TIP3    H178754   3.443   3.874  17.304 -1.1209 -0.0958  0.0859
19113TIP3    H278755   3.374   3.740  17.304  0.6350 -1.0768  2.7617
19114TIP3   OH278756   4.067   4.563   0.209 -0.0890 -0.2105  0.5957
19114TIP3    H178757   4.152   4.570   0.251 -0.1374  0.3162  0.6080
19114TIP3    H278758   4.068   4.631   0.141 -0.7253  0.1992  0.9926
19115TIP3   OH278759   3.030   0.597   2.282  0.0347 -0.8759  0.1612
19115TIP3    H178760   2.954   0.583   2.339  1.0593 -0.3960  1.7160
19115TIP3    H278761   3.055   0.688   2.296  0.9699 -1.0531 -0.2306
19116TIP3   OH278762   1.082   5.008  14.496  0.1996 -0.2934 -0.2603
19116TIP3    H178763   1.027   5.051  14.562  0.3386  1.0939 -1.0149
19116TIP3    H278764   1.162   4.984  14.543 -0.5222 -1.2040  0.5484
19117TIP3   OH278765   6.561   1.373   1.505 -0.8420  0.0512 -0.2054
19117TIP3    H178766   6.651   1.340   1.505 -0.6075  0.6136 -1.8930
19117TIP3    H278767   6.540   1.386   1.598  1.2303  1.0343  0.1785
19118TIP3   OH278768   2.952   5.449   2.694  0.7426  0.0060  0.1989
19118TIP3    H178769   2.966   5.458   2.599  0.3986 -0.6406  0.0830
19118TIP3    H278770   2.884   5.513   2.714  1.8291  1.1749  0.2729
19119TIP3   OH278771   0.563   3.861   6.535 -0.4896 -0.0285 -0.4057
19119TIP3    H178772   0.638   3.837   6.590 -0.6432 -0.2924 -0.3063
19119TIP3    H278773   0.486   3.837   6.588 -0.6370 -0.5670 -0.8556
19120TIP3   OH278774   6.514   0.673   3.762 -0.2959  0.1348 -0.0569
19120TIP3    H178775   6.447   0.646   3.825 -0.4045 -0.4213 -0.3983
19120TIP3    H278776   6.508   0.608   3.691  2.0184 -1.2517  0.8757
19121TIP3   OH278777   3.148   4.327  10.984 -0.0975 -0.1019  0.1988
19121TIP3    H178778   3.218   4.276  11.025  1.2461  0.4724 -1.2487
19121TIP3    H278779   3.169   4.418  11.008 -1.0911 -0.0187  0.7846
19122TIP3   OH278780   0.652   2.010   4.245  0.4073  0.4564  0.2687
19122TIP3    H178781   0.597   1.977   4.175  1.6608 -3.0097  0.7443
19122TIP3    H278782   0.592   2.030   4.316 -0.5287  0.2466 -0.4493
19123TIP3   OH278783   5.482   2.766   1.784  0.4448  0.0446 -0.4403
19123TIP3    H178784   5.433   2.836   1.828  0.3003  0.5863 -1.4246
19123TIP3    H278785   5.416   2.720   1.733  0.9345  0.8159 -1.8230
19124TIP3   OH278786   1.000   5.102   1.113 -0.5631  0.2355  0.6318
19124TIP3    H178787   1.059   5.166   1.074 -0.6098  0.1252  0.3818
19124TIP3    H278788   0.964   5.146   1.190 -1.2961  0.8433 -0.0445
19125TIP3   OH278789   2.285   1.664  16.670  0.2377  0.1851 -0.0221
19125TIP3    H178790   2.277   1.758  16.682  1.8070  0.5273 -1.2036
19125TIP3    H278791   2.218   1.626  16.726  2.0691  1.8134  3.6074
19126TIP3   OH278792   4.281   3.991  14.295 -0.2577  0.5024 -0.6947
19126TIP3    H178793   4.233   3.909  14.282 -0.1014  0.4389 -0.8868
19126TIP3    H278794   4.215   4.059  14.281 -0.6227  0.3990  0.4868
19127TIP3   OH278795   4.608   2.191   2.501  0.3099  0.7090 -0.3143
19127TIP3    H178796   4.557   2.118   2.536 -0.2246  0.8966 -0.6777
19127TIP3    H278797   4.615   2.173   2.408 -1.2499  1.9175 -0.7124
19128TIP3   OH278798   4.174   4.953  12.771 -0.8675  1.0900  0.1241
19128TIP3    H178799   4.161   4.892  12.698 -0.7666  0.3080  0.7384
19128TIP3    H278800   4.258   4.995  12.752  0.5310 -1.0807  1.1035
19129TIP3   OH278801   4.766   1.189   4.291  0.3118 -0.3268 -0.5112
19129TIP3    H178802   4.766   1.275   4.332  0.6742 -0.4971 -0.1421
19129TIP3    H278803   4.675   1.161   4.294  0.4878 -0.8852  1.3910
19130TIP3   OH278804   2.399   4.564   3.422 -0.2225 -0.0260 -0.0531
19130TIP3    H178805   2.463   4.580   3.352  0.3665  2.1552  0.8709
19130TIP3    H278806   2.445   4.591   3.502 -1.6810 -0.1772  0.8693
19131TIP3   OH278807   5.127   1.281   3.353  0.4868  0.0858  0.2416
19131TIP3    H178808   5.211   1.318   3.384  0.4649  0.0156  0.3886
19131TIP3    H278809   5.105   1.215   3.419  0.8357 -0.6290 -0.3508
19132TIP3   OH278810   6.627   4.105   3.588 -0.2637  0.1559  0.3877
19132TIP3    H178811   6.538   4.137   3.573 -0.1214 -0.1492 -1.4038
19132TIP3    H278812   6.683   4.181   3.575 -0.2099  0.1892  0.7969
19133TIP3   OH278813   1.862   0.324   6.128 -0.1701  0.1568 -0.3164
19133TIP3    H178814   1.936   0.384   6.135 -0.7351  0.8728 -0.3377
19133TIP3    H278815   1.900   0.237   6.138  0.4145  0.6042  1.8448
19134TIP3   OH278816   4.249   6.384   5.557  0.0980  0.0570  0.4759
19134TIP3    H178817   4.189   6.442   5.511  1.2673  0.5671 -0.4622
19134TIP3    H278818   4.280   6.323   5.489  1.9166  0.8755  0.5133
19135TIP3   OH278819   6.713   1.875   3.751 -0.2650 -0.1232  0.0962
19135TIP3    H178820   6.798   1.851   3.788 -0.6819 -2.6811 -0.4636
19135TIP3    H278821   6.650   1.849   3.818 -0.6530  2.2147  0.7201
19136TIP3   OH278822   4.253   6.159  16.053 -0.2843  0.1684 -0.3983
19136TIP3    H178823   4.260   6.240  16.105  1.0954  1.7071 -2.7808
19136TIP3    H278824   4.166   6.164  16.013 -1.1362 -0.7526  1.2678
19137TIP3   OH278825   6.443   6.518  13.493 -0.0110 -0.6216  0.2517
19137TIP3    H178826   6.423   6.500  13.585  0.8129  1.9295  1.0074
19137TIP3    H278827   6.506   6.450  13.468  0.6903 -0.6433  1.9555
19138TIP3   OH278828   0.508   4.997   4.171  0.0656  0.1024 -0.6553
19138TIP3    H178829   0.482   4.985   4.079 -4.0588 -0.9648  0.4444
19138TIP3    H278830   0.544   4.912   4.196  0.2172  0.0578 -1.0105
19139TIP3   OH278831   6.001   4.583  16.729 -0.2182  0.4237 -0.2488
19139TIP3    H178832   6.093   4.563  16.715 -0.4649 -1.2651  0.2564
19139TIP3    H278833   5.994   4.677  16.716  1.4854  0.5094 -0.7400
19140TIP3   OH278834   1.246   4.300   2.357 -0.1663  0.0987 -0.0630
19140TIP3    H178835   1.174   4.323   2.298 -0.9080 -1.5611  0.1480
19140TIP3    H278836   1.313   4.263   2.300 -0.7966 -1.3074  0.0848
19141TIP3   OH278837   3.472   4.365   2.767  0.0071 -0.4050 -0.0576
19141TIP3    H178838   3.535   4.321   2.823 -1.4005 -2.0860  0.2934
19141TIP3    H278839   3.408   4.404   2.828 -0.3353 -0.3502 -0.4460
19142TIP3   OH278840   5.329   1.456  11.794 -0.4481  0.4556  0.3930
19142TIP3    H178841   5.305   1.374  11.838  2.8052 -0.9103 -0.0045
19142TIP3    H278842   5.246   1.499  11.775 -2.3171 -2.5528  1.0010
19143TIP3   OH278843   3.460   1.007   3.027  0.4006 -0.0948 -0.1788
19143TIP3    H178844   3.466   1.088   3.077  1.7261 -1.1633  1.5506
19143TIP3    H278845   3.547   0.997   2.988  0.5239 -1.0374  0.2977
19144TIP3   OH278846   3.046   0.319   2.574  0.1296 -0.3994 -0.1439
19144TIP3    H178847   3.122   0.347   2.625  0.2184  2.2665 -1.5633
19144TIP3    H278848   2.973   0.323   2.637  0.3183  2.3173  0.0239
19145TIP3   OH278849   1.700   3.993  12.397  0.2708 -0.1766 -0.0554
19145TIP3    H178850   1.686   3.902  12.373  2.1488 -0.6551  0.5002
19145TIP3    H278851   1.764   4.025  12.333 -0.6102  0.8890 -0.4560
19146TIP3   OH278852   4.852   3.811   4.623  0.0654  0.2146 -0.0563
19146TIP3    H178853   4.851   3.907   4.618  1.1232  0.1964 -0.9908
19146TIP3    H278854   4.875   3.792   4.714 -0.0848  0.8464  0.1183
19147TIP3   OH278855   1.024   5.405   5.038 -0.3902 -0.1649 -0.2885
19147TIP3    H178856   1.066   5.319   5.034  0.0315  0.0814 -1.3424
19147TIP3    H278857   0.952   5.400   4.975 -1.6764 -0.4116  1.1273
19148TIP3   OH278858   6.124   2.876  13.207  0.6207  0.4999  0.0803
19148TIP3    H178859   6.105   2.892  13.300 -0.6585 -0.6847  0.0452
19148TIP3    H278860   6.039   2.873  13.165  1.1391  0.0064 -0.9618
19149TIP3   OH278861   4.192   0.598  13.876  0.0738  0.0307 -0.1943
19149TIP3    H178862   4.155   0.527  13.824 -0.2358  0.1560 -0.1505
19149TIP3    H278863   4.264   0.632  13.823 -0.2821  0.1984 -0.5784
19150TIP3   OH278864   2.173   4.571   3.211  0.1170 -0.0687 -0.6817
19150TIP3    H178865   2.247   4.527   3.253  0.0802  0.8887  0.4523
19150TIP3    H278866   2.099   4.511   3.223  0.3909 -0.3754 -0.5097
19151TIP3   OH278867   0.942   6.209   5.181  0.1246  0.8232  0.3284
19151TIP3    H178868   0.890   6.234   5.257 -1.2176  1.9978 -0.8977
19151TIP3    H278869   0.969   6.119   5.198 -1.0390  0.7041  1.7081
19152TIP3   OH278870   2.019   6.230  13.906 -0.3503 -0.1867  0.3416
19152TIP3    H178871   1.924   6.236  13.895 -0.3985  0.5849  1.1308
19152TIP3    H278872   2.034   6.138  13.929 -0.8740 -0.3622  0.0139
19153TIP3   OH278873   6.629   1.768   5.306 -0.0169  0.0656 -0.1113
19153TIP3    H178874   6.642   1.709   5.232 -2.0159 -1.0184  0.3199
19153TIP3    H278875   6.602   1.710   5.378 -0.7143  1.3622  0.7125
19154TIP3   OH278876   2.493   6.079   0.272 -0.2879 -0.2585 -0.4280
19154TIP3    H178877   2.426   6.134   0.312 -0.2258 -0.7338  0.3445
19154TIP3    H278878   2.519   6.126   0.193  0.7943  1.5215  0.9347
19155TIP3   OH278879   0.580   5.865  15.184 -0.3783  0.1587 -0.6612
19155TIP3    H178880   0.674   5.881  15.184 -0.1632 -0.7541  1.2112
19155TIP3    H278881   0.569   5.779  15.143 -0.4728  0.5758 -1.5133
19156TIP3   OH278882   0.882   3.342   2.703 -0.0084  0.1410  0.0555
19156TIP3    H178883   0.873   3.247   2.710 -0.5496  0.1924  0.1061
19156TIP3    H278884   0.941   3.355   2.629  0.5287 -0.2472  0.4140
19157TIP3   OH278885   3.444   6.748   3.250 -0.5062  0.4190 -0.3482
19157TIP3    H178886   3.452   6.840   3.276 -1.4817  0.3575  0.2281
19157TIP3    H278887   3.467   6.699   3.329  0.6383  0.1314 -0.8288
19158TIP3   OH278888   3.818   5.668   6.164  1.0578  0.1172 -0.6396
19158TIP3    H178889   3.837   5.682   6.257  0.5311  1.0472 -0.6591
19158TIP3    H278890   3.868   5.736   6.119  2.0988 -0.9355 -1.1368
19159TIP3   OH278891   1.410   2.870   2.344 -0.6065  0.1433  0.1074
19159TIP3    H178892   1.399   2.965   2.356 -1.1169 -0.0795  1.6684
19159TIP3    H278893   1.331   2.832   2.384  0.1276 -0.9903  0.5133
19160TIP3   OH278894   3.419   0.985  13.695  0.5418  0.2311  0.4915
19160TIP3    H178895   3.506   0.971  13.731  0.6116  2.6057  1.4257
19160TIP3    H278896   3.361   0.990  13.771 -0.4558 -1.2878 -0.1114
19161TIP3   OH278897   5.616   3.529   3.209  0.0925  0.1264  0.6200
19161TIP3    H178898   5.579   3.491   3.288 -0.0592 -1.0359  0.0208
19161TIP3    H278899   5.711   3.519   3.219  0.1644  1.3247  1.2895
19162TIP3   OH278900   4.630   6.075   4.196  0.0034  0.7800  0.1269
19162TIP3    H178901   4.720   6.043   4.207 -0.3967 -0.1325  0.8918
19162TIP3    H278902   4.588   6.058   4.280 -0.7987  1.5229 -0.1056
19163TIP3   OH278903   2.205   4.257  15.470 -0.2455  0.1032 -0.0197
19163TIP3    H178904   2.224   4.239  15.562 -0.7523 -0.2399  0.0215
19163TIP3    H278905   2.254   4.189  15.422  0.1946  0.4135 -0.0228
19164TIP3   OH278906   4.788   1.273  14.445  0.2189 -0.5686  0.2775
19164TIP3    H178907   4.771   1.284  14.351 -0.4686  1.8202  0.6044
19164TIP3    H278908   4.883   1.274  14.452  0.2773 -0.7630 -0.3931
19165TIP3   OH278909   5.165   2.524  15.998  0.1791 -0.5020  0.6807
19165TIP3    H178910   5.209   2.558  16.076 -0.8607 -0.6343  1.3518
19165TIP3    H278911   5.107   2.456  16.032  1.6269 -2.4411 -0.5249
19166TIP3   OH278912   5.446   2.319   0.174 -0.3676  0.0678 -0.3875
19166TIP3    H178913   5.522   2.365   0.210 -1.2089 -0.1148  1.7615
19166TIP3    H278914   5.469   2.302   0.083  0.9545  2.6104 -0.6149
19167TIP3   OH278915   6.429   4.333  11.708  0.3881 -0.6953 -0.5687
19167TIP3    H178916   6.381   4.258  11.744 -0.3423 -0.3527 -0.8171
19167TIP3    H278917   6.363   4.384  11.661  1.0971 -0.4951 -1.3757
19168TIP3   OH278918   1.477   1.068  14.839 -0.0232 -0.1475  0.3164
19168TIP3    H178919   1.420   0.991  14.830 -0.8254  0.2897  1.4919
19168TIP3    H278920   1.417   1.141  14.852  0.7880  0.2800  1.9209
19169TIP3   OH278921   3.123   0.882  13.128  0.2552  0.0723  0.5792
19169TIP3    H178922   3.054   0.816  13.121  0.6668 -0.2405 -1.0433
19169TIP3    H278923   3.089   0.947  13.189 -2.2690  0.8293 -1.4431
19170TIP3   OH278924   5.773   5.810   1.328 -0.2143 -0.6890 -0.1505
19170TIP3    H178925   5.760   5.844   1.239 -1.0462 -2.3185 -0.7014
19170TIP3    H278926   5.741   5.720   1.324  1.5898 -1.4776  1.2938
19171TIP3   OH278927   5.155   0.575  13.005 -0.3023  0.8386  0.2396
19171TIP3    H178928   5.092   0.518  13.049  1.4563 -0.9669  0.5808
19171TIP3    H278929   5.178   0.527  12.925  1.5422  0.8142  0.7403
19172TIP3   OH278930   2.608   3.705  11.954  0.2284  0.1150 -0.5040
19172TIP3    H178931   2.680   3.738  11.901  0.1036  0.4376 -0.4782
19172TIP3    H278932   2.647   3.637  12.009  0.1654 -0.9070 -1.6815
19173TIP3   OH278933   2.151   5.295   3.028 -0.0356  0.2001 -0.3938
19173TIP3    H178934   2.137   5.215   2.978 -0.4498  1.2318 -2.0187
19173TIP3    H278935   2.230   5.278   3.080 -1.4040 -2.0707  1.1099
19174TIP3   OH278936   0.923   0.273  14.534 -0.0674 -0.1878  0.3799
19174TIP3    H178937   0.909   0.180  14.519  0.5585 -0.0019 -1.5181
19174TIP3    H278938   0.982   0.276  14.610  0.2587 -1.3392  0.1936
19175TIP3   OH278939   2.027   3.560   1.152  0.4120  0.4172 -0.0672
19175TIP3    H178940   1.974   3.601   1.220  1.0594  1.8763 -0.3860
19175TIP3    H278941   1.980   3.576   1.070 -1.5381 -3.2878  0.1290
19176TIP3   OH278942   5.501   2.927   6.453  0.9578 -0.2444  0.3376
19176TIP3    H178943   5.504   2.976   6.371 -2.8702 -1.1669 -0.5642
19176TIP3    H278944   5.520   2.837   6.428  2.5113 -0.1386  1.0224
19177TIP3   OH278945   2.103   3.817  11.641  0.1207  0.1390 -0.2076
19177TIP3    H178946   2.074   3.727  11.625 -1.3950  0.4403  0.6561
19177TIP3    H278947   2.182   3.826  11.588  1.1459 -2.1560  0.7633
19178TIP3   OH278948   5.281   2.384  17.253 -0.0199  1.0682 -0.6515
19178TIP3    H178949   5.201   2.435  17.237 -0.6177  0.5319  0.4914
19178TIP3    H278950   5.264   2.299  17.212 -0.3551  0.7008  0.2248
19179TIP3   OH278951   6.233   2.182   4.943 -0.4279  0.0989 -0.0123
19179TIP3    H178952   6.305   2.120   4.933 -0.2193  0.4620 -0.7953
19179TIP3    H278953   6.259   2.235   5.019  0.0588  0.1251 -0.1922
19180TIP3   OH278954   4.205   2.797  12.792 -0.9079  0.1829 -0.0835
19180TIP3    H178955   4.254   2.740  12.733 -0.6737  0.9994 -0.7016
19180TIP3    H278956   4.211   2.755  12.877  1.0558  0.3396 -0.0959
19181TIP3   OH278957   4.911   2.969   5.869  0.2220 -0.4221 -0.0718
19181TIP3    H178958   4.906   2.970   5.773 -0.5086  0.6081 -0.0398
19181TIP3    H278959   4.821   2.984   5.897  0.6636  0.7250  0.7639
19182TIP3   OH278960   2.298   1.706  11.837 -0.3290  0.0099 -0.2353
19182TIP3    H178961   2.227   1.719  11.775 -0.0931  0.4573 -0.4135
19182TIP3    H278962   2.284   1.618  11.872 -0.7551 -0.0434 -0.5415
19183TIP3   OH278963   3.607   5.427  10.921 -0.0273 -0.0230 -0.2621
19183TIP3    H178964   3.592   5.519  10.898  0.3306  0.4397  1.2206
19183TIP3    H278965   3.677   5.399  10.862  0.4022  0.9015 -0.2148
19184TIP3   OH278966   0.479   6.323   0.515  0.3835 -0.2028  0.2927
19184TIP3    H178967   0.536   6.388   0.557  0.7052 -0.7979  0.8038
19184TIP3    H278968   0.417   6.297   0.583  0.0895 -0.2419  0.0145
19185TIP3   OH278969   4.075   0.568  16.482  0.2934 -0.0302 -0.4068
19185TIP3    H178970   4.103   0.658  16.466  1.9456 -0.2397  0.9921
19185TIP3    H278971   4.155   0.522  16.506 -0.6468 -1.6964 -0.3143
19186TIP3   OH278972   0.470   1.999  16.181  0.4192 -0.4598  0.2151
19186TIP3    H178973   0.442   2.053  16.256  1.6872  1.5135 -0.6432
19186TIP3    H278974   0.478   2.061  16.109  0.6942 -2.0681 -1.1943
19187TIP3   OH278975   2.423   1.586   1.896  0.6902  0.0269  0.5050
19187TIP3    H178976   2.329   1.566   1.894  0.6742 -0.1259 -2.5915
19187TIP3    H278977   2.428   1.677   1.924 -0.5200  0.4647 -0.6267
19188TIP3   OH278978   2.619   3.279  14.730  0.2566  0.3146 -0.4174
19188TIP3    H178979   2.534   3.265  14.772  0.5052 -0.0537 -0.0266
19188TIP3    H278980   2.658   3.352  14.778  0.0434  0.6647 -0.7783
19189TIP3   OH278981   0.714   5.118   0.958  0.5845  0.3854  0.8804
19189TIP3    H178982   0.624   5.098   0.984  0.9475 -1.6617  0.7023
19189TIP3    H278983   0.761   5.126   1.041  0.7380 -1.1724  0.9697
19190TIP3   OH278984   0.451   2.608   3.920  0.1808 -0.7179 -0.2401
19190TIP3    H178985   0.540   2.620   3.887 -0.2430  0.6030 -1.0000
19190TIP3    H278986   0.461   2.592   4.013  1.2440 -1.2595 -0.4355
19191TIP3   OH278987   5.553   5.127  16.372 -0.2870 -0.2861 -0.1760
19191TIP3    H178988   5.556   5.084  16.286 -3.4146 -0.7657 -0.1665
19191TIP3    H278989   5.565   5.055  16.434  0.0037 -0.2588 -0.2007
19192TIP3   OH278990   0.456   1.662   5.005  0.0786  0.1563 -0.2182
19192TIP3    H178991   0.461   1.616   4.921  1.4835 -1.2822  0.5872
19192TIP3    H278992   0.430   1.751   4.983  0.7037 -0.1178 -2.2070
19193TIP3   OH278993   6.260   3.559   1.037 -0.1820 -0.1767 -0.1132
19193TIP3    H178994   6.240   3.611   1.115  0.3680 -1.0188  0.6136
19193TIP3    H278995   6.306   3.620   0.979 -1.4967  0.7355 -0.2361
19194TIP3   OH278996   4.418   1.044   1.705 -0.1272 -0.4696  0.0499
19194TIP3    H178997   4.428   1.118   1.764  1.0511 -0.4584 -0.1471
19194TIP3    H278998   4.348   1.070   1.646 -0.4506  0.0407  0.6446
19195TIP3   OH278999   0.500   1.364   3.109 -0.0056  0.0755  0.4804
19195TIP3    H179000   0.408   1.355   3.085  0.2613 -2.1529  0.0758
19195TIP3    H279001   0.502   1.345   3.203 -0.0112  0.6812  0.6082
19196TIP3   OH279002   4.139   1.124   4.917  0.0925  0.0635 -0.3368
19196TIP3    H179003   4.044   1.117   4.928  0.1634 -1.2883 -0.4234
19196TIP3    H279004   4.151   1.139   4.823 -0.0307  0.0773 -0.3501
19197TIP3   OH279005   6.390   6.281  11.517 -0.0198  0.3310 -0.5443
19197TIP3    H179006   6.341   6.199  11.505  0.0220  0.4114 -1.2998
19197TIP3    H279007   6.461   6.257  11.576  1.3407 -0.7523 -2.5065
19198TIP3   OH279008   4.152   4.037  14.909  0.0346 -0.0250 -0.1113
19198TIP3    H179009   4.200   4.101  14.961 -1.5010 -0.4586  1.9530
19198TIP3    H279010   4.075   4.015  14.962 -0.9670 -1.4543 -2.0269
19199TIP3   OH279011   4.063   0.143  15.931 -0.1929 -0.2426  0.5624
19199TIP3    H179012   3.975   0.139  15.895 -0.1751 -2.8896  0.6472
19199TIP3    H279013   4.121   0.134  15.855  0.2360  3.6122  0.1800
19200TIP3   OH279014   2.118   2.413  14.093  0.2673 -0.1143  0.5282
19200TIP3    H179015   2.191   2.423  14.032 -0.7744  1.8336 -0.4763
19200TIP3    H279016   2.155   2.437  14.178  1.0045  0.0294  0.1808
19201TIP3   OH279017   2.496   6.434  10.992  0.1526  0.1514 -0.4869
19201TIP3    H179018   2.586   6.465  11.000 -0.4224  1.4566  2.2818
19201TIP3    H279019   2.443   6.502  11.036 -2.2115 -0.5142 -2.1017
19202TIP3   OH279020   3.764   1.694   4.382  0.3833  0.2955 -0.6077
19202TIP3    H179021   3.755   1.789   4.383  0.8985  0.3461  0.1643
19202TIP3    H279022   3.858   1.678   4.389  0.3080 -0.2670 -0.8174
19203TIP3   OH279023   1.411   2.721  13.196  0.5324 -0.1946 -0.2239
19203TIP3    H179024   1.384   2.793  13.253  0.9686  0.7703 -1.1988
19203TIP3    H279025   1.374   2.743  13.110 -0.8130 -2.0343 -0.1795
19204TIP3   OH279026   2.055   0.442   3.250 -0.6005 -0.4421 -0.3737
19204TIP3    H179027   2.051   0.526   3.204 -1.0806 -0.7094 -0.8298
19204TIP3    H279028   2.130   0.397   3.211 -0.8842 -0.5856 -0.7658
19205TIP3   OH279029   5.187   2.410  14.793 -0.4359 -0.7125 -0.3697
19205TIP3    H179030   5.139   2.328  14.798  1.0841 -1.5849  0.5502
19205TIP3    H279031   5.209   2.431  14.884  2.2830 -1.2422 -0.8090
19206TIP3   OH279032   3.277   0.511   0.798 -0.3636  1.1365  0.7475
19206TIP3    H179033   3.371   0.506   0.783 -0.3609  0.1731  1.0162
19206TIP3    H279034   3.250   0.595   0.759  0.4286  0.9487 -0.2353
19207TIP3   OH279035   4.351   4.862   6.220  0.0414  0.1593  0.3800
19207TIP3    H179036   4.284   4.925   6.247  0.3057  0.1264  1.1447
19207TIP3    H279037   4.387   4.828   6.303 -0.9926 -1.9643  0.0270
19208TIP3   OH279038   4.515   2.823   1.720  0.2367  0.0671  0.2311
19208TIP3    H179039   4.448   2.869   1.669 -0.5616 -1.1826  0.0950
19208TIP3    H279040   4.589   2.884   1.723 -1.0438  1.6829  0.7493
19209TIP3   OH279041   3.345   3.668   2.123 -0.2757 -0.1220  0.7247
19209TIP3    H179042   3.320   3.719   2.046 -2.0048  1.6162  2.3167
19209TIP3    H279043   3.400   3.728   2.175  1.0101 -1.3212  0.8134
19210TIP3   OH279044   4.295   4.452  11.981  0.3443  0.0843 -0.1638
19210TIP3    H179045   4.262   4.378  11.930 -1.9059  1.0685 -0.2116
19210TIP3    H279046   4.301   4.524  11.918  3.1372 -0.1080 -0.2715
19211TIP3   OH279047   2.361   1.530  14.325 -0.5200  0.0760  0.4356
19211TIP3    H179048   2.437   1.554  14.377  0.5940 -1.8218 -0.2349
19211TIP3    H279049   2.395   1.475  14.254 -2.2233  1.0327 -1.2324
19212TIP3   OH279050   3.341   0.350   3.033  0.1457  0.2502 -0.5983
19212TIP3    H179051   3.338   0.403   3.113  0.0442  0.0139 -0.4440
19212TIP3    H279052   3.431   0.358   3.002 -0.0425  1.0827 -0.9628
19213TIP3   OH279053   6.008   5.782   5.185  0.1939 -0.3336 -0.4201
19213TIP3    H179054   5.997   5.691   5.210 -0.8817 -0.2894 -0.6694
19213TIP3    H279055   5.921   5.821   5.197 -0.0158  0.0531 -2.6647
19214TIP3   OH279056   3.642   3.452   2.412  0.1925  0.4469  0.0197
19214TIP3    H179057   3.549   3.432   2.419  0.1209  0.3913 -0.9586
19214TIP3    H279058   3.659   3.510   2.485 -0.9538  1.6725 -0.6447
19215TIP3   OH279059   5.653   0.545   0.457 -0.5196 -0.2613  0.1020
19215TIP3    H179060   5.568   0.501   0.455  0.2128 -1.7532 -1.6871
19215TIP3    H279061   5.710   0.490   0.402  1.1862  1.5141 -0.0322
19216TIP3   OH279062   5.538   1.245   0.380  0.2410  0.2455  0.7156
19216TIP3    H179063   5.584   1.212   0.302 -2.6935 -1.5208 -0.4148
19216TIP3    H279064   5.543   1.174   0.443  1.0794  0.9881  1.5096
19217TIP3   OH279065   3.467   3.928   6.065 -0.1510  0.2919  0.1195
19217TIP3    H179066   3.562   3.928   6.076 -0.0837 -0.6397 -0.3485
19217TIP3    H279067   3.435   3.983   6.136  0.7200  0.3788  0.4629
19218TIP3   OH279068   0.929   4.965   3.555 -0.1478 -0.3077 -0.2797
19218TIP3    H179069   0.935   5.059   3.536 -0.9194 -0.5322 -1.7428
19218TIP3    H279070   1.003   4.927   3.508 -0.2852 -0.5217 -0.3219
19219TIP3   OH279071   6.543   6.516  10.997 -0.4846  0.0158  0.1831
19219TIP3    H179072   6.496   6.438  11.026 -0.8935  1.1456  2.8549
19219TIP3    H279073   6.502   6.539  10.914  0.2042 -3.0146 -1.1221
19220TIP3   OH279074   0.805   2.927  14.656 -0.1557 -0.0645 -0.0427
19220TIP3    H179075   0.796   2.856  14.592 -0.5512 -0.5204  0.5101
19220TIP3    H279076   0.772   3.004  14.610  0.5698 -0.1584 -0.7620
19221TIP3   OH279077   1.021   4.173   1.511 -0.3492  0.0255  0.3711
19221TIP3    H179078   1.036   4.142   1.422  0.1628  2.3207 -0.4061
19221TIP3    H279079   1.012   4.268   1.503 -0.3409  0.3013  2.7534
19222TIP3   OH279080   5.556   5.387   1.517  0.1261  0.1796  0.3063
19222TIP3    H179081   5.624   5.404   1.581  0.9464 -0.4994 -0.3651
19222TIP3    H279082   5.582   5.305   1.474 -0.6835  0.3274 -0.5118
19223TIP3   OH279083   5.339   3.998  11.098  0.3606 -0.9227  0.4643
19223TIP3    H179084   5.390   4.078  11.101  0.6006 -0.9444 -1.5551
19223TIP3    H279085   5.250   4.026  11.076 -0.2454 -1.0193  2.5166
19224TIP3   OH279086   6.729   6.192  13.682 -0.4956 -0.1792  0.0383
19224TIP3    H179087   6.663   6.174  13.616 -0.6022 -0.1808  0.1442
19224TIP3    H279088   6.771   6.273  13.653  1.7509 -1.9016 -1.8255
19225TIP3   OH279089   1.333   6.165   2.654 -0.2297 -0.0763 -0.5763
19225TIP3    H179090   1.397   6.104   2.691  0.8609  1.7767  0.7541
19225TIP3    H279091   1.386   6.235   2.616 -1.4371  0.8443 -0.6179
19226TIP3   OH279092   1.978   5.170   6.214  0.4443 -0.1394 -0.1088
19226TIP3    H179093   1.924   5.217   6.151  1.1134  0.1344 -0.4857
19226TIP3    H279094   1.938   5.083   6.219 -0.5837  0.3444  0.3279
19227TIP3   OH279095   5.592   1.667  12.575 -0.1966  0.3860 -0.3712
19227TIP3    H179096   5.585   1.642  12.667 -0.4122  1.6139 -0.0356
19227TIP3    H279097   5.603   1.584  12.529 -1.3387 -0.3581  0.6314
19228TIP3   OH279098   0.270   2.888  14.566 -0.0530  0.1835 -0.3081
19228TIP3    H179099   0.275   2.793  14.578 -0.9609  0.0819 -0.6637
19228TIP3    H279100   0.295   2.924  14.651 -1.3209 -0.4128  0.3441
19229TIP3   OH279101   4.542   3.551   5.486 -0.3630  0.1109  0.0176
19229TIP3    H179102   4.630   3.582   5.468 -0.8360  2.4532  1.3054
19229TIP3    H279103   4.552   3.494   5.563  0.1052 -0.1889 -0.2650
19230TIP3   OH279104   5.402   6.151   3.343 -0.0558 -0.0604  0.1882
19230TIP3    H179105   5.314   6.121   3.366  0.2390  0.8295  2.7311
19230TIP3    H279106   5.434   6.086   3.281 -2.0366 -1.0683  0.1500
19231TIP3   OH279107   3.353   4.728   6.394  0.3948 -0.6878 -0.3138
19231TIP3    H179108   3.448   4.721   6.381  0.4481 -2.9515  0.7404
19231TIP3    H279109   3.340   4.698   6.484 -1.4598 -2.1284 -1.0017
19232TIP3   OH279110   4.658   5.744  14.868  0.0495  0.7170 -0.5015
19232TIP3    H179111   4.708   5.773  14.792  1.8027 -1.1195 -0.1545
19232TIP3    H279112   4.598   5.678  14.834  0.3706  0.3747 -0.4177
19233TIP3   OH279113   0.628   0.734   4.619  0.5839  0.4287 -0.3454
19233TIP3    H179114   0.712   0.688   4.619 -0.1350 -0.9597 -0.7062
19233TIP3    H279115   0.620   0.768   4.708  2.0582  1.6396 -0.6408
19234TIP3   OH279116   2.176   0.715   1.105  0.0419  0.0873 -0.2424
19234TIP3    H179117   2.101   0.725   1.164  0.2219  0.9113 -0.1487
19234TIP3    H279118   2.225   0.641   1.141  0.9509  1.4864  1.5343
19235TIP3   OH279119   5.508   5.498  11.735 -0.1015  0.0610 -0.4891
19235TIP3    H179120   5.500   5.403  11.743 -1.1987 -0.0463 -2.2730
19235TIP3    H279121   5.420   5.532  11.747 -0.5034  0.4448 -3.5397
19236TIP3   OH279122   2.215   0.514   4.858 -0.6332  0.3095  0.5187
19236TIP3    H179123   2.182   0.603   4.844  0.3625  0.9043  1.6779
19236TIP3    H279124   2.307   0.527   4.881 -0.4127 -1.0535  0.4468
19237TIP3   OH279125   6.746   3.630   6.539  0.5761  0.3204 -0.2119
19237TIP3    H179126   6.791   3.700   6.587 -0.0530  0.4017  0.2715
19237TIP3    H279127   6.816   3.570   6.512  0.8839 -0.0791  1.3931
19238TIP3   OH279128   4.388   2.660  15.521 -0.0077  0.2153  0.5270
19238TIP3    H179129   4.462   2.653  15.461 -0.2531  0.0120  0.2498
19238TIP3    H279130   4.320   2.603  15.484 -0.8206  1.4669  0.0069
19239TIP3   OH279131   4.392   2.819  10.964  0.3214 -0.6472  0.1840
19239TIP3    H179132   4.420   2.859  10.882  0.7841 -0.6720  0.3240
19239TIP3    H279133   4.356   2.892  11.015  1.4515 -0.3265  0.5643
19240TIP3   OH279134   5.395   0.607  11.831 -0.1170  0.3013 -0.6257
19240TIP3    H179135   5.363   0.651  11.752 -0.5517 -0.6643 -1.0036
19240TIP3    H279136   5.329   0.541  11.850  0.6285 -0.3429 -0.2115
19241TIP3   OH279137   0.336   4.344  12.526  0.3199  0.1548 -0.4881
19241TIP3    H179138   0.371   4.258  12.507 -2.3224 -1.1594  0.0752
19241TIP3    H279139   0.296   4.335  12.613  0.9949  2.3064  0.1175
19242TIP3   OH279140   0.180   0.046  14.003 -0.2830  0.1678  0.3492
19242TIP3    H179141   0.157   0.041  13.911  0.0386  0.9191  0.2230
19242TIP3    H279142   0.262  -0.004  14.010 -1.1473 -1.3021  0.5479
19243TIP3   OH279143   0.570   6.282   1.285  0.0683  0.2423 -0.1789
19243TIP3    H179144   0.634   6.260   1.352 -0.7874 -0.7526  0.3396
19243TIP3    H279145   0.512   6.346   1.327 -1.0721 -1.1339  0.4123
19244TIP3   OH279146   2.785   6.320   1.604 -0.6254 -0.6618 -1.2871
19244TIP3    H179147   2.801   6.261   1.678 -1.1490  0.5611 -0.1734
19244TIP3    H279148   2.808   6.268   1.527 -1.1768 -2.3616 -0.3494
19245TIP3   OH279149   4.236   4.720  15.832 -0.1261 -0.8024 -0.2822
19245TIP3    H179150   4.309   4.757  15.782  0.4758 -1.7519 -0.1430
19245TIP3    H279151   4.170   4.788  15.832  1.6705  1.0665  1.6298
19246TIP3   OH279152   5.066   4.001  16.492 -0.0507 -0.3336  0.0143
19246TIP3    H179153   5.055   4.095  16.480  0.4949 -0.0895  1.3044
19246TIP3    H279154   4.979   3.964  16.478 -0.9628  0.7006  2.4910
19247TIP3   OH279155   5.011   5.163   1.125  0.0053  0.1525 -0.0750
19247TIP3    H179156   4.984   5.095   1.186 -1.4236  0.7769  0.0455
19247TIP3    H279157   5.059   5.117   1.056  1.3376 -0.6107  1.3099
19248TIP3   OH279158   3.967   4.593   1.459 -0.1687 -0.1381  0.6687
19248TIP3    H179159   3.998   4.571   1.372  0.1370 -0.4859  0.8621
19248TIP3    H279160   4.036   4.649   1.495  0.6809 -1.6247  1.4277
19249TIP3   OH279161   0.732   5.307  12.317  0.6558 -0.0613  0.4111
19249TIP3    H179162   0.722   5.246  12.390 -0.5189 -0.4706 -0.0774
19249TIP3    H279163   0.700   5.391  12.351  1.5372  0.1199  0.8316
19250TIP3   OH279164   2.419   4.410   6.245 -0.2067  0.4873 -0.2385
19250TIP3    H179165   2.482   4.481   6.236 -0.5853  0.8477 -0.0630
19250TIP3    H279166   2.363   4.437   6.318  1.3166 -1.2375  1.7109
19251TIP3   OH279167   3.314   3.061   4.413  0.0184 -0.0805 -0.1851
19251TIP3    H179168   3.408   3.044   4.409 -0.3109 -2.6111  0.6988
19251TIP3    H279169   3.288   3.073   4.322  0.9673 -1.1754 -0.6311
19252TIP3   OH279170   5.062   4.713  12.574  0.6872  0.1524 -0.3673
19252TIP3    H179171   5.079   4.803  12.546  2.7192 -0.0485  0.0667
19252TIP3    H279172   5.035   4.721  12.666 -0.2005  0.3812 -0.6401
19253TIP3   OH279173   4.986   1.222   4.829 -0.6183  0.7353  0.5018
19253TIP3    H179174   4.956   1.181   4.748 -1.4841 -0.1117  1.2373
19253TIP3    H279175   5.076   1.190   4.840 -0.7133  0.3661  0.2036
19254TIP3   OH279176   4.438   2.559  11.020 -0.2089  0.0752  0.3005
19254TIP3    H179177   4.358   2.532  10.974 -0.1809  1.1916 -0.4348
19254TIP3    H279178   4.444   2.653  11.006  0.3905  0.2741  1.7110
19255TIP3   OH279179   5.958   2.530   1.928 -0.0637  0.3451 -0.0315
19255TIP3    H179180   5.968   2.625   1.939  2.3630  0.1354  0.0424
19255TIP3    H279181   5.983   2.514   1.837  0.1136 -0.3036  0.1308
19256TIP3   OH279182   5.473   6.454  13.314  0.6768 -0.4531 -0.7448
19256TIP3    H179183   5.495   6.483  13.402 -0.2050 -3.2427  0.4879
19256TIP3    H279184   5.501   6.363  13.311  0.0566 -0.6293 -3.1294
19257TIP3   OH279185   5.843   5.568  15.976 -0.7805 -0.2676 -0.0861
19257TIP3    H179186   5.925   5.527  15.948 -1.0747 -1.2948  0.4615
19257TIP3    H279187   5.863   5.602  16.064 -0.5831  0.6411 -0.4765
19258TIP3   OH279188   1.964   1.887  16.495 -0.4241 -0.2877 -0.3058
19258TIP3    H179189   1.965   1.818  16.430 -1.7327  1.4185 -2.2830
19258TIP3    H279190   1.889   1.941  16.471 -1.6350 -0.1081  3.2732
19259TIP3   OH279191   2.851   0.568  17.090 -0.0933  0.4186 -0.0354
19259TIP3    H179192   2.913   0.584  17.162  0.6014  1.4593 -0.8344
19259TIP3    H279193   2.765   0.578  17.131  0.1975 -1.3483  1.1627
19260TIP3   OH279194   6.390   3.551  13.928  0.2745  0.6363  0.4739
19260TIP3    H179195   6.306   3.598  13.926  0.0306  0.2137  0.6061
19260TIP3    H279196   6.435   3.579  13.849 -1.7297 -2.2769 -1.8977
19261TIP3   OH279197   2.383   0.886   2.035 -0.0306  0.5002  0.1026
19261TIP3    H179198   2.367   0.954   1.969  2.4338  1.0220 -0.0770
19261TIP3    H279199   2.474   0.859   2.020 -0.5628 -2.0419  0.9292
19262TIP3   OH279200   4.829   2.481  16.107  0.3959 -0.1769 -0.0880
19262TIP3    H179201   4.771   2.444  16.041 -0.9281  0.3160  0.7482
19262TIP3    H279202   4.839   2.572  16.082  0.7635 -0.2483 -0.1999
19263TIP3   OH279203   6.404   1.992   2.383  0.1778  0.1373  0.6324
19263TIP3    H179204   6.377   1.920   2.326  0.6979 -0.8965  1.6584
19263TIP3    H279205   6.322   2.038   2.404 -0.2520 -0.5333  0.4628
19264TIP3   OH279206   0.409   6.121   5.974 -0.1175 -0.4331  0.0072
19264TIP3    H179207   0.451   6.098   6.057  0.9691  0.8706 -0.1378
19264TIP3    H279208   0.374   6.209   5.990 -3.0919 -1.5259  0.1924
19265TIP3   OH279209   6.176   2.967  15.365 -0.8529 -0.6513  0.1145
19265TIP3    H179210   6.151   3.059  15.354  0.5991 -0.2966 -0.4221
19265TIP3    H279211   6.259   2.959  15.320 -1.2731 -2.4105 -0.4306
19266TIP3   OH279212   5.288   4.906  16.818 -0.0865  0.3943  0.2622
19266TIP3    H179213   5.203   4.927  16.855 -1.2682 -0.5620 -1.7577
19266TIP3    H279214   5.329   4.847  16.882 -1.3676  0.0596  0.7904
19267TIP3   OH279215   3.169   0.616   5.424 -0.0464  0.4395 -0.1997
19267TIP3    H179216   3.210   0.635   5.339  0.5763  1.5724  0.3295
19267TIP3    H279217   3.210   0.535   5.452 -1.8987 -1.2343 -1.9790
19268TIP3   OH279218   1.776   5.471  15.226 -0.3170  0.5242  0.5595
19268TIP3    H179219   1.785   5.482  15.131 -0.6357  1.2711  0.6076
19268TIP3    H279220   1.682   5.456  15.239 -0.0294 -1.5673  0.5880
19269TIP3   OH279221   3.065   4.566   4.386 -0.0584  0.1340  0.1844
19269TIP3    H179222   3.081   4.551   4.479 -1.4868 -0.0219  0.4271
19269TIP3    H279223   3.152   4.578   4.348  0.5267  0.4762  1.5795
19270TIP3   OH279224   3.331   3.342   4.446  0.2087 -0.5011  0.2515
19270TIP3    H179225   3.399   3.351   4.513 -0.6430  1.1157  0.9518
19270TIP3    H279226   3.309   3.249   4.448 -0.4851 -0.3621  2.9573
19271TIP3   OH279227   1.594   6.644   1.328  0.4314 -0.9194  0.6035
19271TIP3    H179228   1.652   6.584   1.281  2.1140  2.1569 -1.5745
19271TIP3    H279229   1.650   6.684   1.395 -0.9037 -2.3019  2.6608
19272TIP3   OH279230   5.082   5.644   1.386 -0.2070  0.5083  0.2778
19272TIP3    H179231   5.018   5.626   1.455  0.0590 -0.4520  0.2917
19272TIP3    H279232   5.092   5.560   1.340  0.2293  0.9246 -0.4078
19273TIP3   OH279233   4.920   4.716   3.618  0.2192  0.1493 -0.1601
19273TIP3    H179234   4.959   4.737   3.702  2.9156  2.4228 -1.7925
19273TIP3    H279235   4.851   4.782   3.605 -1.3192 -1.1772  0.8359
19274TIP3   OH279236   6.184   2.245   0.185  0.1868  0.1266  0.1877
19274TIP3    H179237   6.136   2.257   0.268  0.6961  0.3583  0.4553
19274TIP3    H279238   6.181   2.331   0.143  1.8686  0.6520  1.0350
19275TIP3   OH279239   4.966   4.646  10.601 -0.3225  0.0423 -0.4413
19275TIP3    H179240   5.031   4.625  10.668  0.3080  0.6709 -0.8402
19275TIP3    H279241   4.918   4.565  10.587  0.3474 -0.4172 -0.1075
19276TIP3   OH279242   3.115   6.289  12.445 -0.0054 -0.4531 -0.2546
19276TIP3    H179243   3.079   6.350  12.509 -0.3611 -1.4023  0.4669
19276TIP3    H279244   3.079   6.204  12.470  1.9828 -1.2864 -0.0894
19277TIP3   OH279245   6.619   2.106  13.852  0.1378 -0.4785  0.1770
19277TIP3    H179246   6.706   2.072  13.873  0.2885  0.4579  1.1612
19277TIP3    H279247   6.618   2.194  13.890 -0.7178  0.1023 -1.1082
19278TIP3   OH279248   2.426   1.051  12.642  0.2869  0.3634  0.6120
19278TIP3    H179249   2.468   0.965  12.646 -0.7813 -0.1811  0.4051
19278TIP3    H279250   2.342   1.035  12.600 -0.0217  1.4764  0.7759
19279TIP3   OH279251   3.442   5.479   4.927  0.3273 -0.0624 -0.1299
19279TIP3    H179252   3.513   5.417   4.948  0.9259  0.2880 -1.0446
19279TIP3    H279253   3.434   5.475   4.832 -0.2989  0.5442 -0.1103
19280TIP3   OH279254   5.971   4.071  14.402  0.0664  0.4474  0.1684
19280TIP3    H179255   6.057   4.034  14.422 -1.2911 -2.8933  0.4237
19280TIP3    H279256   5.949   4.037  14.315 -2.0051 -0.9652  1.1657
19281TIP3   OH279257   4.385   3.328  12.515 -0.1486  0.1319  0.1741
19281TIP3    H179258   4.430   3.273  12.578 -1.5332 -1.3789 -0.1028
19281TIP3    H279259   4.296   3.335  12.549 -1.4399 -2.1826 -2.4016
19282TIP3   OH279260   1.347   3.016   4.848 -0.0623  0.1342 -0.0114
19282TIP3    H179261   1.295   2.974   4.779  0.5071  0.7814 -0.8622
19282TIP3    H279262   1.332   2.962   4.925 -1.2043 -0.2653 -0.4787
19283TIP3   OH279263   5.042   6.260   1.931  0.6209  0.2673 -0.1030
19283TIP3    H179264   4.973   6.321   1.958  0.5726  0.2180 -0.1146
19283TIP3    H279265   5.004   6.211   1.858 -0.0717 -1.1288  1.1280
19284TIP3   OH279266   0.811   2.705  14.477  0.2854 -0.5471 -0.8521
19284TIP3    H179267   0.847   2.676  14.560 -0.2516 -0.0864 -0.4487
19284TIP3    H279268   0.883   2.750  14.433 -0.1726  1.7804  0.6228
19285TIP3   OH279269   2.048   0.057  13.563  0.2194  0.4275  0.5069
19285TIP3    H179270   2.036   0.043  13.470 -0.1188  0.3488  0.5608
19285TIP3    H279271   2.050  -0.031  13.601 -0.3862  0.4736  0.6606
19286TIP3   OH279272   3.018   1.158   4.039 -0.4717 -0.2833  0.2682
19286TIP3    H179273   3.046   1.203   3.959  0.3902  0.6310  1.0566
19286TIP3    H279274   3.073   1.080   4.044  0.6676  0.5215  0.8126
19287TIP3   OH279275   6.537   5.516   2.187  0.5200 -0.4039 -0.5357
19287TIP3    H179276   6.526   5.555   2.100 -0.6284  0.6913  0.0672
19287TIP3    H279277   6.632   5.513   2.200  0.6879  0.0098 -1.5804
19288TIP3   OH279278   0.681   3.124  11.452 -0.3354 -0.4175  0.0156
19288TIP3    H179279   0.725   3.154  11.372 -0.6928 -1.7156 -0.6969
19288TIP3    H279280   0.752   3.104  11.513 -0.0699  1.5928  0.4596
19289TIP3   OH279281   2.591   6.574  12.315 -0.1036  0.0440 -0.6021
19289TIP3    H179282   2.514   6.628  12.332  1.4062  2.9116 -2.2203
19289TIP3    H279283   2.556   6.484  12.311 -3.2469  1.1459 -0.7901
19290TIP3   OH279284   1.815   6.038   0.447  0.4307  0.0699 -0.1041
19290TIP3    H179285   1.825   5.947   0.474  0.0064  0.2034  0.5158
19290TIP3    H279286   1.816   6.088   0.529  0.5296  0.6099 -0.4287
19291TIP3   OH279287   2.278   1.597  14.948 -0.4294  0.3129 -0.0492
19291TIP3    H179288   2.332   1.646  14.886  0.3751  0.4221  0.7337
19291TIP3    H279289   2.299   1.634  15.033 -0.5874 -0.7044  0.4398
19292TIP3   OH279290   2.221   3.041  13.245 -0.3547  0.3467 -0.2291
19292TIP3    H179291   2.134   3.079  13.232 -0.1287  0.2231 -2.4282
19292TIP3    H279292   2.280   3.116  13.239 -0.0163 -0.0738 -3.1814
19293TIP3   OH279293   0.688   6.533   0.541 -0.2483  0.4763 -0.5320
19293TIP3    H179294   0.706   6.621   0.509 -1.2609  0.8197 -0.2185
19293TIP3    H279295   0.677   6.543   0.636  3.4606 -0.6382  0.1921
19294TIP3   OH279296   3.657   6.085  16.928 -0.1276 -0.2728 -0.8737
19294TIP3    H179297   3.643   6.126  16.843 -1.3136 -1.8691 -1.4893
19294TIP3    H279298   3.575   6.099  16.975  0.2282 -0.1202 -0.2862
19295TIP3   OH279299   2.126   0.879  12.077  0.6199 -0.3043  0.0915
19295TIP3    H179300   2.080   0.906  12.156  0.9947 -0.6626  0.4402
19295TIP3    H279301   2.214   0.857  12.107  0.6853 -0.7067 -0.3808
19296TIP3   OH279302   4.004   0.637   3.124  0.1556 -0.3467 -0.7675
19296TIP3    H179303   3.989   0.723   3.164  0.2068  0.0037 -1.4761
19296TIP3    H279304   3.916   0.606   3.102  0.1860 -0.0808 -1.2928
19297TIP3   OH279305   1.240   2.631  11.411 -0.0802 -0.2897  0.1230
19297TIP3    H179306   1.199   2.554  11.449  0.2087 -0.4080  0.2008
19297TIP3    H279307   1.228   2.621  11.317 -1.9379  0.6499  0.2250
19298TIP3   OH279308   4.648   4.713   2.433 -0.1362 -0.3815  0.1058
19298TIP3    H179309   4.651   4.739   2.341 -1.6201  2.0304  0.6547
19298TIP3    H279310   4.734   4.674   2.450  0.5621  0.1246 -2.0201
19299TIP3   OH279311   2.396   1.198  14.193  0.0150 -0.2703 -0.2196
19299TIP3    H179312   2.415   1.254  14.118  0.3080  0.5568  0.4486
19299TIP3    H279313   2.327   1.139  14.162  0.2774 -0.0850 -1.1952
19300TIP3   OH279314   4.235   4.836  13.144  0.0160  0.1002  0.6856
19300TIP3    H179315   4.210   4.795  13.227 -0.0720  1.2986  1.2677
19300TIP3    H279316   4.264   4.924  13.169 -0.6164  0.6949 -0.6181
19301TIP3   OH279317   2.616   0.654  16.948  0.2580  0.3133 -0.1042
19301TIP3    H179318   2.646   0.564  16.955  1.5385  0.7423  0.1178
19301TIP3    H279319   2.521   0.647  16.940  0.2894 -1.0205  0.4818
19302TIP3   OH279320   2.990   4.692   4.037  0.2706  0.3729 -0.5444
19302TIP3    H179321   2.937   4.717   4.113 -0.7257 -0.3119 -0.9950
19302TIP3    H279322   3.024   4.775   4.003 -1.5704  0.9933 -0.9938
19303TIP3   OH279323   0.051   3.163  16.243 -0.2131 -0.1085  0.0512
19303TIP3    H179324   0.134   3.175  16.288  0.9005 -0.4172 -1.7965
19303TIP3    H279325   0.013   3.085  16.283  1.2174 -0.9656 -0.1861
19304TIP3   OH279326   3.596   3.116  17.252 -0.6975 -0.3301 -0.2065
19304TIP3    H179327   3.616   3.108  17.345 -0.3386 -1.0851 -0.3422
19304TIP3    H279328   3.527   3.183  17.248 -0.6966 -0.2696  0.5920
19305TIP3   OH279329   1.950   0.083   0.501 -0.7182 -0.1203 -0.4405
19305TIP3    H179330   2.000   0.055   0.424 -2.1864 -0.9846 -1.1197
19305TIP3    H279331   1.947   0.005   0.557 -0.6706  0.1557 -0.0467
19306TIP3   OH279332   1.704   3.227  11.511 -0.6048 -1.1122  0.5467
19306TIP3    H179333   1.611   3.212  11.528 -0.9864 -0.8268 -1.1168
19306TIP3    H279334   1.711   3.321  11.494 -0.3671 -1.4187 -1.2059
19307TIP3   OH279335   2.876   6.516  11.036  0.4613  0.0470 -0.0440
19307TIP3    H179336   2.896   6.428  11.003  1.0122 -0.0371  0.5088
19307TIP3    H279337   2.817   6.500  11.110  2.1815 -0.0104  1.3821
19308TIP3   OH279338   4.633   5.162  14.513  0.4866 -0.4103 -0.0401
19308TIP3    H179339   4.582   5.117  14.445  2.0450 -1.4395 -0.5740
19308TIP3    H279340   4.572   5.171  14.586 -1.0109  0.0648 -1.2822
19309TIP3   OH279341   2.284   1.931  11.986 -0.0487  0.4936  0.6474
19309TIP3    H179342   2.268   1.846  11.944 -1.5304  1.3194 -0.5400
19309TIP3    H279343   2.336   1.910  12.063  2.0432 -1.2201 -1.0891
19310TIP3   OH279344   3.190   4.408  12.289 -0.2816 -0.0490 -0.6654
19310TIP3    H179345   3.249   4.484  12.298  1.0032 -1.0465 -0.4271
19310TIP3    H279346   3.106   4.440  12.323  0.5490  0.9108  0.6133
19311TIP3   OH279347   5.145   6.215  16.556 -0.9366 -0.1898  0.1600
19311TIP3    H179348   5.203   6.177  16.490  1.5760  1.9371  0.9785
19311TIP3    H279349   5.139   6.148  16.624  0.7623 -0.3981  0.1341
19312TIP3   OH279350   5.624   3.817  11.825 -0.1554  0.2717 -0.3688
19312TIP3    H179351   5.556   3.884  11.833  0.8885  1.2708  0.6634
19312TIP3    H279352   5.702   3.866  11.799  0.0182 -0.9586 -2.3544
19313TIP3   OH279353   5.690   5.605  11.540 -0.4363 -0.3415 -0.0719
19313TIP3    H179354   5.641   5.609  11.622 -0.2513 -0.4916  0.0474
19313TIP3    H279355   5.635   5.555  11.481 -1.0235  0.6312 -0.3536
19314TIP3   OH279356   1.867   3.343  15.657 -0.2891 -0.0696 -0.2245
19314TIP3    H179357   1.880   3.278  15.726  1.5817 -0.0247 -0.5013
19314TIP3    H279358   1.782   3.382  15.677  0.5804  0.5797  2.5739
19315TIP3   OH279359   2.415   1.432   3.041 -0.5688  0.4326  0.1382
19315TIP3    H179360   2.321   1.424   3.059 -0.7537 -0.8317 -1.1891
19315TIP3    H279361   2.449   1.344   3.052  0.4457  0.8473  0.4217
19316TIP3   OH279362   5.553   0.773  14.737 -0.3472  0.0144 -0.0952
19316TIP3    H179363   5.482   0.804  14.681 -0.9998 -0.2631  0.5633
19316TIP3    H279364   5.624   0.751  14.677 -0.4040  1.3624 -0.6879
19317TIP3   OH279365   2.406   3.815   3.714 -0.3101 -0.0106 -0.1603
19317TIP3    H179366   2.446   3.735   3.679 -0.8230 -0.1876 -0.3562
19317TIP3    H279367   2.477   3.878   3.718 -0.1816 -0.0690 -1.2817
19318TIP3   OH279368   1.973   6.064   0.195  0.5074  0.2183  0.0380
19318TIP3    H179369   2.062   6.052   0.226  0.4725 -2.5394 -0.7352
19318TIP3    H279370   1.924   6.089   0.274  1.6022 -0.0712  0.8335
19319TIP3   OH279371   1.646   6.710  14.665  0.1081  0.0033  0.0000
19319TIP3    H179372   1.593   6.783  14.698 -0.7302 -0.7390  0.3324
19319TIP3    H279373   1.597   6.632  14.689  0.2896 -0.6338 -1.6030
19320TIP3   OH279374   3.451   1.401   3.086  0.0847 -0.6510  0.8273
19320TIP3    H179375   3.487   1.350   3.013 -1.9541 -1.1236  0.0619
19320TIP3    H279376   3.508   1.477   3.094  1.1046 -1.2520 -0.4096
19321TIP3   OH279377   4.262   1.566   0.825  0.0811 -0.5190  0.9461
19321TIP3    H179378   4.249   1.548   0.919 -0.2157 -1.0209  0.8144
19321TIP3    H279379   4.328   1.502   0.798  1.3401  0.6485  1.1459
19322TIP3   OH279380   3.586   6.226   6.666  0.4932 -0.2720  0.2735
19322TIP3    H179381   3.603   6.317   6.688 -1.2346  0.3604 -0.7773
19322TIP3    H279382   3.535   6.192   6.739 -1.2225  0.4524 -0.5356
19323TIP3   OH279383   0.414   2.165   1.419  0.3020  0.7020 -0.8994
19323TIP3    H179384   0.391   2.106   1.491 -2.8622  0.0811 -2.2603
19323TIP3    H279385   0.415   2.252   1.459  0.9544  0.1547  0.3258
19324TIP3   OH279386   2.859   5.877  16.613  0.0014 -0.0212 -0.0876
19324TIP3    H179387   2.810   5.906  16.536 -0.3921  0.1273  0.2110
19324TIP3    H279388   2.791   5.850  16.675  0.3347 -0.8903 -0.0824
19325TIP3   OH279389   2.739   6.587   2.916  0.1578  0.4326 -0.6036
19325TIP3    H179390   2.762   6.604   3.008 -0.1160 -2.9961  0.2375
19325TIP3    H279391   2.752   6.492   2.906  0.4938  0.7481 -4.2382
19326TIP3   OH279392   4.802   3.371   2.817  0.2658  0.8052 -0.5137
19326TIP3    H179393   4.872   3.351   2.755  1.0395  2.1449 -0.1132
19326TIP3    H279394   4.797   3.294   2.874  0.1148 -0.0855 -1.6985
19327TIP3   OH279395   6.308   2.888  14.011 -0.2374 -0.0094  0.2494
19327TIP3    H179396   6.239   2.834  13.972 -0.1705  1.4408 -2.0602
19327TIP3    H279397   6.269   2.975  14.017  0.6947  0.3753  0.9481
19328TIP3   OH279398   4.365   4.772   5.467 -0.0734  0.2047  0.0281
19328TIP3    H179399   4.355   4.687   5.509  3.7616 -0.7936 -0.6453
19328TIP3    H279400   4.376   4.834   5.539 -0.3127 -0.3050  0.5086
19329TIP3   OH279401   0.668   1.898  11.943  0.0387  0.2371  0.0914
19329TIP3    H179402   0.582   1.915  11.906  0.1006  1.1743  0.3637
19329TIP3    H279403   0.684   1.971  12.002  0.8553 -0.1341  0.3467
19330TIP3   OH279404   6.626   0.890  10.390  0.0377 -0.1013 -0.3345
19330TIP3    H179405   6.629   0.794  10.397 -0.5512  0.0200  2.3265
19330TIP3    H279406   6.534   0.912  10.403  0.5571  0.9463  1.9732
19331TIP3   OH279407   2.616   4.906  15.584  0.0741 -0.0564  0.1723
19331TIP3    H179408   2.540   4.848  15.583 -0.2140  0.3161  0.0828
19331TIP3    H279409   2.593   4.977  15.524  0.0816  0.5767  0.9038
19332TIP3   OH279410   0.229   5.092   4.222 -0.3305  0.1727  0.2326
19332TIP3    H179411   0.177   5.042   4.158  0.8689 -0.3942 -0.3183
19332TIP3    H279412   0.302   5.127   4.172 -0.0417  0.7702  1.0567
19333TIP3   OH279413   1.277   2.433  15.339  0.5378 -0.1699  0.7246
19333TIP3    H179414   1.274   2.529  15.342  2.1915 -0.0531 -0.2924
19333TIP3    H279415   1.267   2.406  15.430  1.6927  1.0425  1.2363
19334TIP3   OH279416   3.993   2.642  13.371 -0.8892 -0.0861 -0.1835
19334TIP3    H179417   3.981   2.705  13.300 -0.6913 -1.5194 -1.5392
19334TIP3    H279418   3.910   2.643  13.418 -1.1786  0.5621 -0.6929
19335TIP3   OH279419   2.617   2.983  15.002  0.5236  0.2436 -0.4126
19335TIP3    H179420   2.644   2.907  15.053  2.3652 -0.2479 -2.0033
19335TIP3    H279421   2.698   3.028  14.980 -0.0937  0.2052 -3.1691
19336TIP3   OH279422   3.141   3.376  17.336 -0.2278 -0.2667  0.2241
19336TIP3    H179423   3.055   3.413  17.350  0.2380  0.7418  0.4820
19336TIP3    H279424   3.156   3.320  17.412 -0.2751  0.2924  0.6467
19337TIP3   OH279425   0.189   5.604  14.838 -0.2576 -0.9506 -0.7000
19337TIP3    H179426   0.167   5.626  14.747  2.2046 -1.7746 -1.5851
19337TIP3    H279427   0.197   5.509  14.838 -0.7906 -1.0131  0.5549
19338TIP3   OH279428   3.207   1.401   0.414  0.2125 -0.0152 -0.8543
19338TIP3    H179429   3.266   1.397   0.339  0.8939 -2.0571 -0.2632
19338TIP3    H279430   3.136   1.341   0.393  0.4896 -0.7283  0.1769
19339TIP3   OH279431   5.107   0.371   4.334  0.3025  0.1554  0.7924
19339TIP3    H179432   5.179   0.420   4.296  2.7318 -3.0620  0.8082
19339TIP3    H279433   5.031   0.391   4.279  1.8767  1.5176 -0.9838
19340TIP3   OH279434   4.512   4.432   0.585  0.0948 -0.0921 -0.2633
19340TIP3    H179435   4.453   4.356   0.580  0.5061 -0.4100 -0.3446
19340TIP3    H279436   4.588   4.401   0.635  0.2918  0.2483 -0.3464
19341TIP3   OH279437   6.282   3.194  11.591  0.4891  0.2036  0.1469
19341TIP3    H179438   6.242   3.117  11.550  0.5923  0.3778 -0.2909
19341TIP3    H279439   6.376   3.177  11.586  0.6337  1.2869 -1.8834
19342TIP3   OH279440   6.276   5.543  11.637  0.1051  0.2818 -0.2990
19342TIP3    H179441   6.204   5.480  11.638  0.2268  0.1523  0.8167
19342TIP3    H279442   6.286   5.570  11.728  1.4472  0.3188 -0.4384
19343TIP3   OH279443   6.063   1.139  12.366  0.5548  0.2394 -0.2774
19343TIP3    H179444   6.004   1.129  12.441 -1.6086 -2.7959 -2.1538
19343TIP3    H279445   6.070   1.233  12.354 -2.5530  0.7904  1.1731
19344TIP3   OH279446   2.299   2.806   6.029 -0.0898  0.2478  0.2099
19344TIP3    H179447   2.311   2.851   6.113  1.8019 -1.0330  0.7010
19344TIP3    H279448   2.296   2.713   6.052 -1.3893 -0.0397 -1.0067
19345TIP3   OH279449   2.579   5.712  16.499 -0.1349  0.3923 -0.1350
19345TIP3    H179450   2.671   5.707  16.473  0.4641  1.7845  1.4926
19345TIP3    H279451   2.543   5.627  16.476  1.5898 -0.2256 -0.7220
19346TIP3   OH279452   5.641   5.197   5.788 -0.3333  0.3605  0.0183
19346TIP3    H179453   5.579   5.125   5.803  0.7615 -0.0464  3.6267
19346TIP3    H279454   5.645   5.243   5.872  1.7014  2.4654 -1.1129
19347TIP3   OH279455   3.650   0.787   5.723 -0.1967 -0.3768  0.3391
19347TIP3    H179456   3.732   0.761   5.766 -0.5214 -0.6604  0.8088
19347TIP3    H279457   3.600   0.831   5.792 -1.4958 -2.4539  0.8313
19348TIP3   OH279458   3.995   1.644  16.572  0.1711  0.1811  0.2891
19348TIP3    H179459   3.927   1.614  16.631 -0.5252  3.1303  1.1276
19348TIP3    H279460   4.075   1.641  16.625 -0.2251  1.5647  0.9984
19349TIP3   OH279461   4.226   6.010   1.493 -0.0093 -0.2273  0.0840
19349TIP3    H179462   4.163   5.943   1.466  0.4619 -0.1290 -1.3643
19349TIP3    H279463   4.254   6.051   1.411 -1.7873  3.1684  0.9665
19350TIP3   OH279464   1.235   3.951   0.077 -0.1265 -0.4199  0.2998
19350TIP3    H179465   1.242   3.933  -0.017 -1.3488 -0.0562  0.1176
19350TIP3    H279466   1.195   3.872   0.113 -1.0918  0.0435  0.2597
19351TIP3   OH279467   3.620   4.014   5.038 -0.3973  0.0812 -0.5937
19351TIP3    H179468   3.622   3.918   5.040  0.7760  0.1041  0.3790
19351TIP3    H279469   3.584   4.040   5.123  1.8583  0.5017  0.3059
19352TIP3   OH279470   4.821   6.504  17.204  0.1436  0.1478  0.3713
19352TIP3    H179471   4.865   6.534  17.283  1.7164 -0.6181 -0.1717
19352TIP3    H279472   4.854   6.415  17.190 -1.1065 -0.2242 -0.4363
19353TIP3   OH279473   6.112   0.513   3.745 -0.6438  0.0463 -0.0982
19353TIP3    H179474   6.132   0.575   3.675  2.4124 -0.1811  0.4237
19353TIP3    H279475   6.132   0.561   3.826 -0.4881 -0.8540  0.4188
19354TIP3   OH279476   4.712   2.905   0.706 -0.0756 -0.5595 -0.0680
19354TIP3    H179477   4.760   2.917   0.624  1.4904 -1.6930  0.6182
19354TIP3    H279478   4.671   2.819   0.698  0.5373 -0.9174  0.5261
19355TIP3   OH279479   4.567   0.405  14.972  0.2404 -0.2828  0.0954
19355TIP3    H179480   4.611   0.407  14.888  0.8992  1.6713  0.4522
19355TIP3    H279481   4.491   0.461  14.961 -0.5141 -1.2084  0.3912
19356TIP3   OH279482   3.758   0.772   5.478 -0.1546  0.4372 -0.0392
19356TIP3    H179483   3.762   0.710   5.405  2.6617  0.1824  0.2092
19356TIP3    H279484   3.695   0.735   5.538  0.5870 -1.5968 -0.4542
19357TIP3   OH279485   3.404   1.411   4.467  0.7150 -0.3032 -0.5691
19357TIP3    H179486   3.378   1.470   4.537  0.1979 -0.3609 -0.7098
19357TIP3    H279487   3.322   1.386   4.425  1.1002  1.0513 -2.2624
19358TIP3   OH279488   5.905   1.902  13.052  0.2767 -0.5190 -0.6371
19358TIP3    H179489   5.893   1.864  13.139  0.5660 -0.3825 -0.5318
19358TIP3    H279490   5.831   1.962  13.041  0.3544 -0.3737 -0.3916
19359TIP3   OH279491   3.975   1.671  14.836  0.0539 -0.2168  0.1992
19359TIP3    H179492   4.059   1.700  14.873  0.1939 -2.0437  1.4592
19359TIP3    H279493   3.911   1.686  14.905 -0.4341  0.0144 -0.2955
19360TIP3   OH279494   2.479   0.593  12.477 -0.1108 -0.3200  0.6584
19360TIP3    H179495   2.457   0.545  12.397  2.1593 -0.5767  0.1455
19360TIP3    H279496   2.457   0.684  12.457  0.4790 -0.3722 -0.2853
19361TIP3   OH279497   3.340   3.839   1.001 -0.0712 -0.0931  0.3751
19361TIP3    H179498   3.426   3.876   0.982  0.7949 -2.4557 -0.6844
19361TIP3    H279499   3.281   3.885   0.942  0.4899  1.2610  0.8158
19362TIP3   OH279500   0.763   6.366   3.582  0.1515 -0.2020  0.3091
19362TIP3    H179501   0.795   6.455   3.592  1.6219 -0.7109  0.4350
19362TIP3    H279502   0.668   6.374   3.584  0.2067  1.0336  3.2993
19363TIP3   OH279503   3.531   4.407   1.236  0.0341 -0.0955  0.2085
19363TIP3    H179504   3.544   4.324   1.190 -0.1565  0.1727 -0.3470
19363TIP3    H279505   3.606   4.415   1.294 -0.7538 -1.4293  1.4757
19364TIP3   OH279506   3.915   2.912  14.926  0.0630  0.1846  0.0144
19364TIP3    H179507   3.918   3.008  14.929  0.8248  0.1447  1.5634
19364TIP3    H279508   4.007   2.885  14.919 -0.1501 -0.4472 -0.5058
19365TIP3   OH279509   4.350   0.357   3.564  0.0383  0.4182  0.1385
19365TIP3    H179510   4.408   0.293   3.523  0.4051 -0.1839  1.5647
19365TIP3    H279511   4.271   0.354   3.511  0.7706  0.2234 -0.9874
19366TIP3   OH279512   1.491   0.193  14.445  0.1917  0.2924 -0.6376
19366TIP3    H179513   1.404   0.231  14.431  0.4624  0.8947 -0.7118
19366TIP3    H279514   1.474   0.110  14.489 -0.3475  1.2077  0.9825
19367TIP3   OH279515   4.226   5.216  10.872  0.3575 -0.8020 -0.6691
19367TIP3    H179516   4.189   5.136  10.909  0.6416 -0.2829  0.8070
19367TIP3    H279517   4.154   5.279  10.874  0.2558 -0.8801 -1.4315
19368TIP3   OH279518   0.773   5.374  11.559  0.3809  0.4988  0.5728
19368TIP3    H179519   0.775   5.322  11.639  0.3585  0.5020  0.5759
19368TIP3    H279520   0.773   5.465  11.590 -0.6149  0.4988  0.5973
19369TIP3   OH279521   2.308   6.346   0.221 -0.2779 -0.5372  0.0567
19369TIP3    H179522   2.257   6.341   0.140 -1.2688  0.8578  0.5704
19369TIP3    H279523   2.371   6.416   0.206  0.3451 -1.0814  0.0715
19370TIP3   OH279524   5.463   0.270  12.628  0.7166  0.4750 -0.2868
19370TIP3    H179525   5.539   0.224  12.664  0.6484  0.2857 -0.3781
19370TIP3    H279526   5.496   0.356  12.602  0.3881  1.2974  1.8291
19371TIP3   OH279527   1.623   3.150   3.136 -0.2739  0.4777  0.0873
19371TIP3    H179528   1.700   3.152   3.193 -0.1352  0.5186 -0.1018
19371TIP3    H279529   1.558   3.203   3.182 -1.9531 -3.4191  2.7689
19372TIP3   OH279530   5.944   0.246   1.223 -0.3876 -0.0817  0.1714
19372TIP3    H179531   5.991   0.293   1.155 -1.1301  0.3708 -0.0269
19372TIP3    H279532   5.979   0.157   1.219  0.9338  0.4019  0.4715
19373TIP3   OH279533   5.967   1.988   3.695 -0.3123  0.6370 -0.1580
19373TIP3    H179534   6.045   1.967   3.644  1.3773  1.9624  1.7405
19373TIP3    H279535   5.998   1.993   3.785 -2.7886  0.3696  0.7703
19374TIP3   OH279536   2.792   4.565   4.541 -0.6501  0.1713  0.0745
19374TIP3    H179537   2.833   4.486   4.505 -0.8063  0.4344 -0.7154
19374TIP3    H279538   2.784   4.548   4.635  0.2666 -0.3250  0.0692
19375TIP3   OH279539   0.024   2.047  10.615 -0.2463 -0.3316 -0.0289
19375TIP3    H179540   0.038   1.965  10.568 -0.2805  0.3608 -1.2971
19375TIP3    H279541  -0.062   2.038  10.655 -0.8085 -0.4463 -1.2217
19376TIP3   OH279542   6.399   0.345   5.046 -0.6232  0.0791 -0.6041
19376TIP3    H179543   6.404   0.441   5.042 -0.3327  0.1803  1.2631
19376TIP3    H279544   6.377   0.326   5.138 -0.2377 -1.6586 -0.8438
19377TIP3   OH279545   5.695   0.891   1.292  0.6051  0.1738  0.3823
19377TIP3    H179546   5.719   0.799   1.291  1.3068  0.3534  0.0510
19377TIP3    H279547   5.621   0.898   1.232  1.0499 -0.0464 -0.1929
19378TIP3   OH279548   2.987   5.915   4.384  0.0635 -0.2229 -0.0528
19378TIP3    H179549   2.963   5.951   4.470  2.5586 -0.6649  0.9186
19378TIP3    H279550   3.022   5.990   4.337 -0.1411 -0.2326 -0.2208
19379TIP3   OH279551   3.985   6.475  14.603 -1.0116  0.6023 -0.4484
19379TIP3    H179552   4.045   6.402  14.591 -1.7503  0.0415 -0.7610
19379TIP3    H279553   3.956   6.497  14.515 -2.7953 -0.4358 -0.1603
19380TIP3   OH279554   3.398   1.541  16.534 -0.0388  0.1459  0.0974
19380TIP3    H179555   3.444   1.518  16.615  1.4729  0.7759 -0.5418
19380TIP3    H279556   3.443   1.492  16.466 -1.4030 -0.5001 -0.3602
19381TIP3   OH279557   3.954   0.235  14.774 -0.4485 -0.0582 -0.1330
19381TIP3    H179558   4.028   0.177  14.794 -1.1285 -0.8741  0.0672
19381TIP3    H279559   3.950   0.236  14.679  0.5901  0.9941 -0.1813
19382TIP3   OH279560   2.196   4.919  11.673  0.2327  0.8618 -0.2887
19382TIP3    H179561   2.166   5.010  11.683 -1.4224  0.3403 -0.2001
19382TIP3    H279562   2.249   4.902  11.751  1.2695  1.9854 -0.7070
19383TIP3   OH279563   2.680   4.407  14.332  0.0440  0.1913 -0.4781
19383TIP3    H179564   2.724   4.335  14.377 -1.5490 -0.1178  0.6462
19383TIP3    H279565   2.651   4.369  14.249  1.0890  0.1663 -0.8520
19384TIP3   OH279566   1.832   6.572   1.880  0.5323  0.1810  0.1257
19384TIP3    H179567   1.779   6.492   1.877 -0.5521  0.8757 -2.8134
19384TIP3    H279568   1.784   6.630   1.938 -0.5873 -0.1205 -0.4598
19385TIP3   OH279569   1.172   1.442   5.643  0.0589 -0.1741  0.4349
19385TIP3    H179570   1.244   1.459   5.705 -0.3141  0.1052  0.7975
19385TIP3    H279571   1.142   1.354   5.665 -0.6373  0.2532  1.2334
19386TIP3   OH279572   5.428   1.965   5.294 -0.2633  0.7191  0.1041
19386TIP3    H179573   5.387   1.927   5.372  0.4764  0.9883  0.6355
19386TIP3    H279574   5.522   1.960   5.312  0.0854 -1.3760 -1.7503
19387TIP3   OH279575   1.387   6.596   0.550 -0.1039 -0.3923 -0.2477
19387TIP3    H179576   1.314   6.583   0.489  1.0606 -0.6684 -1.6556
19387TIP3    H279577   1.462   6.613   0.493  1.3678 -2.2323  1.0006
19388TIP3   OH279578   4.912   1.243   1.670 -0.2850 -0.4548  0.0874
19388TIP3    H179579   4.976   1.222   1.738 -1.1214  0.0272  1.0598
19388TIP3    H279580   4.841   1.179   1.684 -1.0935  0.5178  0.5995
19389TIP3   OH279581   2.717   6.594  15.280  0.8454 -0.4950  0.3502
19389TIP3    H179582   2.647   6.659  15.269  1.9230  0.7725  0.7686
19389TIP3    H279583   2.673   6.518  15.320 -0.7807 -0.7394 -1.7435
19390TIP3   OH279584   5.917   0.292  15.062  0.0752  0.1196 -0.3631
19390TIP3    H179585   5.961   0.289  14.977 -0.5172  0.6119 -0.7004
19390TIP3    H279586   5.824   0.303  15.040 -0.2385 -0.9790  0.3270
19391TIP3   OH279587   2.327   3.795   2.706 -0.6220  0.4052 -0.0146
19391TIP3    H179588   2.233   3.793   2.686 -0.3398  0.5226 -1.5360
19391TIP3    H279589   2.359   3.873   2.661  0.5533 -0.8365 -1.4378
19392TIP3   OH279590   0.035   6.390   4.039 -0.0329 -0.3497 -0.1796
19392TIP3    H179591  -0.005   6.363   4.121 -0.2998  1.6435  0.4072
19392TIP3    H279592  -0.033   6.376   3.973 -0.8168  0.5446  0.3997
19393TIP3   OH279593   3.106   5.815   6.259 -0.3478  1.2453  0.0720
19393TIP3    H179594   3.197   5.842   6.246  0.0818 -0.6075 -1.2622
19393TIP3    H279595   3.095   5.814   6.354  1.2533  0.8874  0.2859
19394TIP3   OH279596   1.546   5.353   5.415  0.7423 -0.5901 -0.0959
19394TIP3    H179597   1.485   5.329   5.345  0.5537  2.8736 -1.3246
19394TIP3    H279598   1.490   5.367   5.492  0.3567 -0.2763 -0.4283
19395TIP3   OH279599   5.064   1.059  12.302 -0.6787 -0.8083  0.5737
19395TIP3    H179600   5.088   1.148  12.275 -0.6380 -1.2601 -0.9990
19395TIP3    H279601   5.123   1.039  12.375 -0.5383  0.3624  0.7935
19396TIP3   OH279602   1.631   1.334   1.007  0.2444  0.0073  0.3759
19396TIP3    H179603   1.542   1.367   0.995  1.0263  2.3385  0.5282
19396TIP3    H279604   1.678   1.406   1.048  2.6067 -0.6066 -1.0971
19397TIP3   OH279605   0.155   5.191   6.005 -0.6445  0.6100  0.0616
19397TIP3    H179606   0.198   5.131   6.066 -4.2176 -0.8305  1.4320
19397TIP3    H279607   0.206   5.183   5.924  3.1869  1.2245  2.1789
19398TIP3   OH279608   1.657   1.431  16.267  0.1116 -0.1853  0.1714
19398TIP3    H179609   1.567   1.398  16.267 -0.5050  1.4350  0.0971
19398TIP3    H279610   1.705   1.369  16.212 -0.9308 -1.1072  0.2593
19399TIP3   OH279611   6.129   5.303  12.608  0.2683  0.6892 -0.9216
19399TIP3    H179612   6.128   5.304  12.512  1.2258 -2.0497 -1.0375
19399TIP3    H279613   6.198   5.366  12.632  2.4850 -1.0613 -2.2518
19400TIP3   OH279614   1.407   2.839   5.702  0.7477  0.0713 -0.1383
19400TIP3    H179615   1.440   2.795   5.624 -0.0685  1.3109 -1.2277
19400TIP3    H279616   1.384   2.769   5.762  1.8674 -0.8943 -0.8074
19401TIP3   OH279617   5.593   1.592  15.679  0.7592  0.0158 -0.3268
19401TIP3    H179618   5.512   1.560  15.638  1.2346  1.0580 -2.2168
19401TIP3    H279619   5.622   1.662  15.621  1.7161  1.3518  1.6600
19402TIP3   OH279620   0.572   0.545   1.363 -0.5234  0.2911 -0.2808
19402TIP3    H179621   0.582   0.506   1.450 -0.6552  1.7131  0.4008
19402TIP3    H279622   0.493   0.598   1.370 -0.3405  0.6895 -1.1567
19403TIP3   OH279623   5.381   6.489   4.722  0.2383  0.2568 -0.1610
19403TIP3    H179624   5.443   6.547   4.766  0.2483  0.0252  0.1344
19403TIP3    H279625   5.321   6.460   4.792  0.8030 -0.8380 -0.1011
19404TIP3   OH279626   0.081   0.122  12.727  0.1706 -0.0567 -0.4512
19404TIP3    H179627   0.070   0.105  12.634 -0.5142  1.1425 -0.6014
19404TIP3    H279628   0.006   0.176  12.751  0.3007 -0.4071  0.8162
19405TIP3   OH279629   0.501   2.113   2.280 -0.5058 -0.5796 -0.2317
19405TIP3    H179630   0.443   2.137   2.352 -0.0068  2.3481 -0.6750
19405TIP3    H279631   0.534   2.026   2.303 -2.2522 -0.7761  1.8013
19406TIP3   OH279632   2.908   3.699  11.906  0.5487 -0.1013 -0.5599
19406TIP3    H179633   2.914   3.779  11.959  0.7224  0.0233 -0.7611
19406TIP3    H279634   2.963   3.718  11.829 -1.4104  0.5576 -1.8686
19407TIP3   OH279635   1.157   6.140   1.179  0.0844  0.2469 -0.1703
19407TIP3    H179636   1.121   6.228   1.168  0.3364  0.1595 -2.1029
19407TIP3    H279637   1.242   6.154   1.221  0.1326  0.9289 -0.4797
19408TIP3   OH279638   3.345   2.736  11.182  0.4134 -0.0094  0.0378
19408TIP3    H179639   3.395   2.808  11.142  2.7276 -0.5293  1.7960
19408TIP3    H279640   3.336   2.672  11.112 -0.5645  1.3834 -1.1905
19409TIP3   OH279641   2.858   2.113  12.852 -0.1118 -0.2575  0.4666
19409TIP3    H179642   2.928   2.170  12.882 -0.2993 -0.3852  1.1684
19409TIP3    H279643   2.887   2.083  12.765 -0.8061  2.2747 -0.7529
19410TIP3   OH279644   2.867   2.086   3.065  0.4137  0.4616  0.9479
19410TIP3    H179645   2.805   2.063   3.134  0.0741  0.8172  0.7606
19410TIP3    H279646   2.857   2.016   3.000 -0.9562  1.3421  0.1594
19411TIP3   OH279647   1.095   1.020   3.598  0.1709  0.3617 -0.2251
19411TIP3    H179648   1.057   1.055   3.517 -3.1317 -1.3562  0.4139
19411TIP3    H279649   1.053   1.070   3.668  0.1934 -0.6317  0.5230
19412TIP3   OH279650   0.496   5.862  10.879 -0.0834 -0.4514 -0.4492
19412TIP3    H179651   0.407   5.846  10.910  0.5124  0.9182  2.2966
19412TIP3    H279652   0.503   5.813  10.797 -2.5324 -2.6988  0.5664
19413TIP3   OH279653   4.048   4.946   5.024  0.0633  0.9987 -0.3036
19413TIP3    H179654   3.989   4.931   5.098 -1.7683  1.8951 -1.5029
19413TIP3    H279655   4.136   4.946   5.062 -0.6813 -0.4126  1.5507
19414TIP3   OH279656   3.976   6.218  14.694 -0.3442 -0.0842  0.1506
19414TIP3    H179657   3.975   6.188  14.603  0.7105  1.0679 -0.2690
19414TIP3    H279658   4.012   6.145  14.744 -0.1578 -0.4221 -0.4715
19415TIP3   OH279659   3.775   6.430  11.212  0.2997  0.1329  0.2751
19415TIP3    H179660   3.841   6.495  11.191 -0.3701  1.4469  1.9971
19415TIP3    H279661   3.777   6.369  11.138  2.3950  0.9277 -0.3965
19416TIP3   OH279662   6.727   1.457  15.040  0.5964  0.1800 -0.0794
19416TIP3    H179663   6.790   1.402  14.995  0.2476 -1.5049  1.3867
19416TIP3    H279664   6.762   1.468  15.128 -1.2259 -1.0146  0.8476
19417TIP3   OH279665   2.185   3.579   4.277  0.0747  0.0340 -0.5744
19417TIP3    H179666   2.100   3.584   4.234  0.1256 -1.3190 -0.8911
19417TIP3    H279667   2.165   3.568   4.370 -0.1109 -0.3287 -0.6547
19418TIP3   OH279668   2.290   1.314  13.273  0.0390 -0.1662  0.3271
19418TIP3    H179669   2.217   1.323  13.334 -0.7705  2.2982 -0.8546
19418TIP3    H279670   2.295   1.399  13.229  1.5703 -1.3112 -1.9248
19419TIP3   OH279671   3.134   1.499   4.728  0.2383 -0.1215 -0.0523
19419TIP3    H179672   3.051   1.452   4.718  0.1726  0.3413 -2.0313
19419TIP3    H279673   3.174   1.460   4.806 -2.3909  0.5480  1.7686
19420TIP3   OH279674   6.705   5.789  17.252  0.0278  0.2080  0.0674
19420TIP3    H179675   6.668   5.863  17.300  0.4183 -0.5543  1.5848
19420TIP3    H279676   6.693   5.714  17.310  1.4908 -0.5512 -0.5645
19421TIP3   OH279677   4.716   3.819  13.294 -0.0253 -0.7575  0.1363
19421TIP3    H179678   4.793   3.847  13.344 -1.0698  0.0749  1.3512
19421TIP3    H279679   4.740   3.833  13.202  1.1353 -0.1887  0.5137
19422TIP3   OH279680   0.380   0.355   4.418 -0.5991 -0.5474 -0.1225
19422TIP3    H179681   0.328   0.280   4.448 -0.1831 -0.2067  1.5603
19422TIP3    H279682   0.458   0.317   4.380 -1.2770 -1.0104 -1.0967
19423TIP3   OH279683   1.398   6.492   0.794  0.9748  0.5312  0.0076
19423TIP3    H179684   1.382   6.537   0.711  1.7108  0.7602 -0.0190
19423TIP3    H279685   1.467   6.543   0.836 -0.2390  1.1303  1.3423
19424TIP3   OH279686   4.638   5.685  11.868 -0.4074  0.0003  0.1731
19424TIP3    H179687   4.582   5.608  11.862 -0.6497  0.1260  0.7626
19424TIP3    H279688   4.581   5.758  11.844 -1.0296  0.3528  2.5031
19425TIP3   OH279689   2.469   6.372   6.009 -0.0452 -0.0897  0.9402
19425TIP3    H179690   2.377   6.388   6.028 -0.8215 -1.7357 -1.0664
19425TIP3    H279691   2.512   6.455   6.029 -2.3090  1.4265 -0.0814
19426TIP3   OH279692   0.034   2.576   2.998 -0.3690 -0.7021 -0.6848
19426TIP3    H179693   0.097   2.649   2.995  0.7564 -1.2858  3.3246
19426TIP3    H279694  -0.040   2.611   3.047 -0.0271 -1.9952  0.8478
19427TIP3   OH279695   1.031   0.606   5.849  0.0982 -0.4623 -0.3520
19427TIP3    H179696   1.006   0.537   5.787 -1.2448  0.9537 -1.4275
19427TIP3    H279697   0.995   0.577   5.933 -0.2026 -1.2040 -0.7286
19428TIP3   OH279698   4.224   0.799  16.431 -0.0568 -0.1277 -0.2405
19428TIP3    H179699   4.318   0.797  16.449 -0.2774 -0.2004  1.0582
19428TIP3    H279700   4.195   0.883  16.466 -0.3090  0.4001 -1.6611
19429TIP3   OH279701   0.258   3.471   4.145  0.4369  0.5752 -0.2422
19429TIP3    H179702   0.244   3.434   4.058  0.3475  0.6459 -0.2589
19429TIP3    H279703   0.346   3.508   4.142  0.0155  1.6059 -0.6845
19430TIP3   OH279704   6.645   0.778  16.488  0.5284  0.1235  0.2897
19430TIP3    H179705   6.570   0.722  16.469 -1.8019  2.7058  1.2416
19430TIP3    H279706   6.709   0.757  16.420 -1.2117 -1.8674 -0.8259
19431TIP3   OH279707   2.414   1.363  16.317 -0.1269  0.2117  0.4285
19431TIP3    H179708   2.385   1.452  16.297 -0.0898  0.2479  0.5359
19431TIP3    H279709   2.508   1.371  16.332  0.0620 -0.0108 -0.5562
19432TIP3   OH279710   5.221   6.208   0.261 -0.2180  0.5071 -0.3694
19432TIP3    H179711   5.305   6.221   0.304 -0.8900  1.2174  0.8002
19432TIP3    H279712   5.157   6.237   0.326 -1.5118 -2.2187 -0.2663
19433TIP3   OH279713   1.325   4.544   1.765  0.0909 -0.3851  0.3108
19433TIP3    H179714   1.384   4.524   1.838  0.5186 -0.9449 -0.1748
19433TIP3    H279715   1.357   4.627   1.730  0.0888 -0.2806  0.5607
19434TIP3   OH279716   2.565   4.032   3.654  0.5110  0.0694 -0.1353
19434TIP3    H179717   2.542   4.124   3.645 -2.4092 -0.6775 -1.4796
19434TIP3    H279718   2.581   4.002   3.564 -0.2240 -1.0860  0.0947
19435TIP3   OH279719   3.286   0.918  14.855  0.4082  0.1871 -0.0854
19435TIP3    H179720   3.345   0.939  14.783  1.8112 -0.3020  0.8615
19435TIP3    H279721   3.332   0.949  14.933  0.3659 -1.9986  0.8784
19436TIP3   OH279722   2.008   1.562   6.045  0.5878  0.7774  0.1186
19436TIP3    H179723   2.082   1.529   5.995  0.8508 -1.3488  1.7835
19436TIP3    H279724   2.043   1.581   6.132 -0.6518  0.4790  0.7132
19437TIP3   OH279725   2.037   1.680  14.878 -0.6491  0.4819 -0.1363
19437TIP3    H179726   1.969   1.630  14.923 -0.0291 -0.7823 -0.5803
19437TIP3    H279727   2.119   1.647  14.913 -0.2252  1.9847  0.3777
19438TIP3   OH279728   6.451   3.054   4.772  0.1361 -0.3734 -0.3511
19438TIP3    H179729   6.419   3.144   4.763  0.6538 -0.1614 -0.0960
19438TIP3    H279730   6.439   3.016   4.686  1.0738  0.3215 -0.8013
19439TIP3   OH279731   1.207   0.403  17.313  0.4481 -0.0011  0.0663
19439TIP3    H179732   1.222   0.475  17.251 -1.2332  0.5082  0.2009
19439TIP3    H279733   1.294   0.385  17.350  0.9391  1.8551 -0.0797
19440TIP3   OH279734   3.653   1.194   4.456 -0.1101  0.4853  0.2984
19440TIP3    H179735   3.582   1.135   4.432  0.5125 -0.5746  0.9484
19440TIP3    H279736   3.629   1.279   4.419 -0.1693 -0.5610 -2.2264
19441TIP3   OH279737   3.511   0.729   0.167 -0.3288 -0.2174 -0.1800
19441TIP3    H179738   3.533   0.820   0.183 -0.4828  0.0317 -1.3012
19441TIP3    H279739   3.491   0.693   0.254  0.8036  0.5157  0.4088
19442TIP3   OH279740   6.419   5.825   2.359  0.6843  0.2597 -0.1450
19442TIP3    H179741   6.446   5.733   2.355  1.0525  0.3854 -0.6513
19442TIP3    H279742   6.324   5.821   2.369  0.7512 -0.1777  0.3506
19443TIP3   OH279743   0.858   3.779   1.152  0.0881  0.4918  0.1924
19443TIP3    H179744   0.840   3.823   1.069  0.6952 -0.0180 -0.2207
19443TIP3    H279745   0.948   3.803   1.173  1.7459 -3.1029 -1.7766
19444TIP3   OH279746   5.184   0.697   1.763  0.1524  0.1036  0.9069
19444TIP3    H179747   5.202   0.786   1.793  2.7420  0.0736 -0.2614
19444TIP3    H279748   5.181   0.704   1.668  3.8603 -1.3955  0.4833
19445TIP3   OH279749   1.382   1.657  16.486 -0.2494  0.2780 -0.0467
19445TIP3    H179750   1.447   1.711  16.532 -1.1347  0.4350  1.0451
19445TIP3    H279751   1.352   1.594  16.551 -2.1679  1.0684 -0.0909
19446TIP3   OH279752   0.319   3.497  15.126  0.0501 -0.3266  0.0682
19446TIP3    H179753   0.285   3.585  15.108  2.6558  1.3131  2.4189
19446TIP3    H279754   0.291   3.477  15.215  0.3957 -1.4239 -0.0472
19447TIP3   OH279755   4.651   1.736  16.429 -0.0234 -0.1311 -0.0213
19447TIP3    H179756   4.720   1.760  16.368 -1.1764 -1.4880 -1.9846
19447TIP3    H279757   4.582   1.800  16.414  0.2980  0.4758  1.0274
19448TIP3   OH279758   3.878   1.066   2.393  0.0031  0.0398 -0.3745
19448TIP3    H179759   3.917   0.980   2.408 -0.3520  0.1010  1.1202
19448TIP3    H279760   3.952   1.122   2.369  0.4736 -0.3787  0.0670
19449TIP3   OH279761   0.773   5.081   3.043  0.5309 -0.8363 -0.2844
19449TIP3    H179762   0.868   5.085   3.033  0.4675  0.6211 -0.5256
19449TIP3    H279763   0.744   5.022   2.973  1.3705 -2.6603  0.8388
19450TIP3   OH279764   1.265   4.681  11.812  0.4382 -0.1895  0.3234
19450TIP3    H179765   1.230   4.770  11.822 -2.1551 -1.0857  0.0467
19450TIP3    H279766   1.355   4.694  11.785  0.0964  2.3669  0.1236
19451TIP3   OH279767   1.917   4.003  17.020  0.1628  0.1639 -0.1226
19451TIP3    H179768   1.919   3.948  16.942  1.6437 -0.6363  0.4432
19451TIP3    H279769   1.831   3.987  17.059  0.5227 -1.7094 -0.0200
19452TIP3   OH279770   3.389   5.568  15.207 -0.4762 -0.6150  0.1248
19452TIP3    H179771   3.330   5.527  15.269  0.6620 -0.3094  1.4583
19452TIP3    H279772   3.371   5.662  15.214 -0.6594 -0.6129 -0.3465
19453TIP3   OH279773   2.930   5.118   2.225  0.3340  0.2895 -0.2666
19453TIP3    H179774   3.015   5.078   2.211  1.2547  1.5676  1.3062
19453TIP3    H279775   2.944   5.211   2.206 -0.3585  0.7203  1.1619
19454TIP3   OH279776   1.912   0.127   4.148 -0.0313 -0.1139  0.2342
19454TIP3    H179777   1.916   0.185   4.072 -1.2160  0.2344  0.4175
19454TIP3    H279778   1.969   0.169   4.213  0.6627 -0.1971 -0.3210
19455TIP3   OH279779   3.456   0.178  12.985  0.7493  0.1303 -0.1888
19455TIP3    H179780   3.535   0.124  12.970  0.4549 -0.6503  0.9078
19455TIP3    H279781   3.407   0.129  13.051 -0.1107  1.1815 -0.0343
19456TIP3   OH279782   6.045   5.026  17.300  0.1759  0.1101  0.5600
19456TIP3    H179783   6.111   5.059  17.362  0.7389 -1.2387  0.7315
19456TIP3    H279784   6.074   5.058  17.215  0.3366  0.5901  0.7908
19457TIP3   OH279785   2.236   5.996  16.602  0.3004  0.1848  0.0727
19457TIP3    H179786   2.242   5.982  16.696  1.7725 -0.4017 -0.0873
19457TIP3    H279787   2.229   6.091  16.592  1.3607  0.3450  0.7362
19458TIP3   OH279788   1.041   1.954   2.759 -0.0273  0.2800 -0.1160
19458TIP3    H179789   0.956   1.994   2.741 -0.4117 -0.0264  0.9493
19458TIP3    H279790   1.021   1.863   2.779  0.5786  0.1531 -0.0759
19459TIP3   OH279791   0.656   0.580  12.047  0.4369  0.4361 -0.2676
19459TIP3    H179792   0.632   0.670  12.029 -0.0786  0.6412  1.3310
19459TIP3    H279793   0.659   0.538  11.961 -2.1922  1.2428 -0.8353
19460TIP3   OH279794   1.011   4.030   1.885  0.9086  0.0172  0.1306
19460TIP3    H179795   1.042   4.028   1.976  3.8535  2.3762 -0.6685
19460TIP3    H279796   1.065   4.096   1.842 -0.5719 -0.7772 -3.3272
19461TIP3   OH279797   4.277   3.360  16.088 -0.3099 -0.1803  0.3724
19461TIP3    H179798   4.245   3.394  16.005 -3.6026 -0.4119  1.3874
19461TIP3    H279799   4.342   3.424  16.117 -1.0581  1.3218 -1.1231
19462TIP3   OH279800   0.934   3.544  16.295  0.1310 -0.1505  0.3013
19462TIP3    H179801   0.998   3.563  16.226  0.8153 -1.1253  0.6527
19462TIP3    H279802   0.859   3.601  16.274  1.5161  1.8530  0.4955
19463TIP3   OH279803   4.825   5.749  13.728  0.4668 -0.4150 -0.2426
19463TIP3    H179804   4.835   5.654  13.737  2.3194 -0.2766 -0.3570
19463TIP3    H279805   4.835   5.766  13.635  1.2947 -0.0289 -0.0962
19464TIP3   OH279806   6.186   3.756  11.039 -0.0179  0.7926 -0.0583
19464TIP3    H179807   6.277   3.726  11.034 -0.4137 -0.2903 -3.6147
19464TIP3    H279808   6.148   3.704  11.110  0.6301 -3.8029 -2.6828
19465TIP3   OH279809   5.631   5.427   2.754 -0.1694 -0.4732 -0.4215
19465TIP3    H179810   5.648   5.333   2.761  0.6751 -0.1936  2.3196
19465TIP3    H279811   5.630   5.444   2.660  0.9339 -2.9933 -0.9695
19466TIP3   OH279812   3.683   0.174  13.335 -0.2875 -0.1084 -0.1248
19466TIP3    H179813   3.711   0.243  13.275 -0.3595  1.3593  1.4527
19466TIP3    H279814   3.666   0.099  13.278  2.2318  0.3503 -1.6556
19467TIP3   OH279815   5.054   0.955   3.127 -0.1223  0.3688 -0.1947
19467TIP3    H179816   5.010   0.879   3.165  0.0940  0.7458  0.8330
19467TIP3    H279817   5.147   0.931   3.126  0.2727  1.4753  2.3527
19468TIP3   OH279818   4.102   5.009   6.290 -0.0172  0.1035  0.6746
19468TIP3    H179819   4.115   5.053   6.374  0.8994  4.0780 -1.3163
19468TIP3    H279820   4.024   5.050   6.254 -0.5490 -1.7307 -0.3725
19469TIP3   OH279821   1.025   2.071   2.053  0.2517 -0.4647  0.7849
19469TIP3    H179822   0.954   2.113   2.102 -0.0720  1.3113 -1.0612
19469TIP3    H279823   0.981   2.019   1.987  0.6775 -0.6552  0.6473
19470TIP3   OH279824   1.789   0.869  13.050  0.6566 -0.5997 -0.2946
19470TIP3    H179825   1.811   0.959  13.025  2.6541 -0.9473 -0.0133
19470TIP3    H279826   1.800   0.867  13.145 -0.5270 -0.8565 -0.1571
19471TIP3   OH279827   0.123   2.834  15.347 -0.5727 -0.3824 -0.6386
19471TIP3    H179828   0.047   2.858  15.294  1.3702  0.5693 -3.1598
19471TIP3    H279829   0.178   2.782  15.288  1.1352 -0.3173  0.8150
19472TIP3   OH279830   0.514   3.946   1.416 -0.0909 -0.5872  0.4217
19472TIP3    H179831   0.494   4.024   1.365  0.3436 -0.0862  1.0077
19472TIP3    H279832   0.552   3.979   1.497  3.3478 -1.4707 -0.6703
19473TIP3   OH279833   3.301   1.735   3.876  0.3394 -0.5677  1.0355
19473TIP3    H179834   3.313   1.653   3.923 -0.8847 -0.5238  1.4567
19473TIP3    H279835   3.213   1.729   3.838 -0.8869  1.5287  3.2027
19474TIP3   OH279836   1.910   1.552  14.683 -0.3338 -0.1822  0.0655
19474TIP3    H179837   1.965   1.503  14.622  1.5935 -1.2684  2.4846
19474TIP3    H279838   1.972   1.592  14.744 -2.0397  2.6955  0.0768
19475TIP3   OH279839   1.196   1.365   0.378  0.3499 -0.1628 -0.0048
19475TIP3    H179840   1.115   1.377   0.429 -0.1629  0.9746 -1.0205
19475TIP3    H279841   1.209   1.271   0.374 -1.0303 -0.3723  0.0562
19476TIP3   OH279842   0.501   4.662  15.374 -0.1101  0.0504 -0.4138
19476TIP3    H179843   0.494   4.568  15.396 -1.3642 -0.3274 -2.2114
19476TIP3    H279844   0.455   4.706  15.446  0.1257 -0.7454  0.2423
19477TIP3   OH279845   0.055   3.763  12.694  0.6519  0.0905 -0.5454
19477TIP3    H179846   0.074   3.815  12.616  0.5807  0.6490 -0.1939
19477TIP3    H279847  -0.010   3.699  12.665  1.7864 -0.7606 -1.3415
19478TIP3   OH279848   4.960   6.628  16.717 -0.1289  0.3604  0.4451
19478TIP3    H179849   4.950   6.673  16.801  0.8903  1.3841  0.0413
19478TIP3    H279850   4.955   6.535  16.739  0.0340  0.6127  1.6275
19479TIP3   OH279851   4.061   2.216  14.276 -0.0847 -0.2211  0.2150
19479TIP3    H179852   4.097   2.252  14.194 -0.9826  1.9900  0.7221
19479TIP3    H279853   4.137   2.181  14.322  0.4513 -1.4724 -1.5123
19480TIP3   OH279854   5.321   3.001  16.954  0.4664 -0.1847  0.1014
19480TIP3    H179855   5.288   3.023  16.867  1.1867  1.6014  0.2348
19480TIP3    H279856   5.248   3.017  17.013  0.2172 -0.6265 -0.0862
19481TIP3   OH279857   2.429   1.468  14.044  0.3860 -0.1303  0.0584
19481TIP3    H179858   2.387   1.553  14.057 -2.5004 -1.2472 -1.2062
19481TIP3    H279859   2.509   1.488  13.995 -0.4491  1.8224 -0.6050
19482TIP3   OH279860   4.383   6.328   4.429 -0.9657 -0.3135  0.0040
19482TIP3    H179861   4.364   6.301   4.339  0.3338 -0.6581 -0.1955
19482TIP3    H279862   4.402   6.421   4.422 -3.2321  0.2220  0.3334
19483TIP3   OH279863   5.183   3.949  15.469 -0.1322 -0.0434  0.0722
19483TIP3    H179864   5.148   4.015  15.529 -0.6456  0.7059 -1.0118
19483TIP3    H279865   5.107   3.920  15.418  0.6425  1.1536 -1.9045
19484TIP3   OH279866   3.833   1.687   4.796  0.6158 -0.4506 -0.0436
19484TIP3    H179867   3.766   1.692   4.727 -0.6729 -1.7059  1.0642
19484TIP3    H279868   3.833   1.774   4.836 -0.9302 -0.6459  0.4321
19485TIP3   OH279869   5.834   6.628  16.825  0.4212 -0.0740  0.5386
19485TIP3    H179870   5.886   6.682  16.765 -1.4082  0.0515 -1.0360
19485TIP3    H279871   5.898   6.586  16.882  2.1051  1.3554 -0.2176
19486TIP3   OH279872   0.540   5.906   0.803  0.1660 -0.2342 -0.6733
19486TIP3    H179873   0.553   5.867   0.717  1.0480 -1.1289 -0.1624
19486TIP3    H279874   0.503   5.992   0.785  1.0491 -0.0908 -1.9829
19487TIP3   OH279875   5.249   1.344   2.043 -0.1011  0.0368  0.3423
19487TIP3    H179876   5.209   1.404   2.106  1.8558  0.2743  1.4566
19487TIP3    H279877   5.299   1.283   2.096 -0.1861 -1.1711 -0.9025
19488TIP3   OH279878   6.348   2.898   0.234 -0.5525 -0.1119  0.0339
19488TIP3    H179879   6.435   2.860   0.240 -0.1585  0.7069 -0.3895
19488TIP3    H279880   6.362   2.988   0.205 -1.5730 -0.1655 -0.7231
19489TIP3   OH279881   1.607   5.355   1.190 -0.2170 -0.4523 -0.0514
19489TIP3    H179882   1.523   5.389   1.219  0.0626  0.8182 -0.6700
19489TIP3    H279883   1.664   5.362   1.266 -0.0098  1.0602 -0.3144
19490TIP3   OH279884   3.208   6.583  17.162 -0.1928 -0.0454  0.1858
19490TIP3    H179885   3.116   6.573  17.185 -0.8737  2.1776 -1.2555
19490TIP3    H279886   3.223   6.516  17.095 -0.3485 -1.2934  1.3538
19491TIP3   OH279887   3.830   2.954  15.947 -0.1883  0.2875 -0.3758
19491TIP3    H179888   3.753   2.993  15.907 -0.2229 -0.0985 -0.6884
19491TIP3    H279889   3.847   2.875  15.896  0.3410  0.3027 -0.2314
19492TIP3   OH279890   3.977   4.871   2.342  0.0867  0.1006  0.0614
19492TIP3    H179891   3.996   4.840   2.254 -1.1013 -2.9740  0.7861
19492TIP3    H279892   3.899   4.926   2.331  0.6257  0.6971 -0.9219
19493TIP3   OH279893   4.627   2.186   5.686  0.5194 -0.0550  0.3787
19493TIP3    H179894   4.692   2.163   5.752  2.1543  1.2081 -0.7126
19493TIP3    H279895   4.675   2.184   5.604 -0.9358  0.5439 -0.5131
19494TIP3   OH279896   6.031   2.120   5.187  0.2282  0.1374  0.4042
19494TIP3    H179897   6.096   2.050   5.194  1.1337  0.8183 -0.8631
19494TIP3    H279898   6.028   2.141   5.094 -1.0574  0.8442  0.5817
19495TIP3   OH279899   1.988   0.450   1.531 -0.4318  0.3158 -0.8000
19495TIP3    H179900   1.921   0.409   1.586  2.1352 -2.0690  0.8200
19495TIP3    H279901   2.015   0.527   1.581 -0.0579 -0.3072  0.0078
19496TIP3   OH279902   3.554   4.268   2.304  0.1017 -0.2170 -0.0611
19496TIP3    H179903   3.546   4.189   2.252  1.2248 -0.2524 -0.2037
19496TIP3    H279904   3.649   4.281   2.315  0.0676  2.0773 -1.5842
19497TIP3   OH279905   4.372   0.483  15.882 -0.0237  0.7218 -0.4507
19497TIP3    H179906   4.309   0.504  15.812 -1.1685 -0.2664  0.2264
19497TIP3    H279907   4.320   0.435  15.947  1.4408 -0.1193  0.1562
19498TIP3   OH279908   2.367   5.619   2.249 -0.1906  0.1567 -0.1759
19498TIP3    H179909   2.286   5.568   2.253 -1.9999  2.6479 -2.0488
19498TIP3    H279910   2.406   5.595   2.165  0.7049 -0.4916  0.4012
19499TIP3   OH279911   4.607   3.128  15.843 -0.0275 -0.1975  0.3630
19499TIP3    H179912   4.518   3.137  15.877  0.0304 -2.0639  1.1308
19499TIP3    H279913   4.659   3.187  15.898 -1.0020  2.5711 -1.4398
19500TIP3   OH279914   5.257   2.063  11.281  0.6381 -0.2901  0.0367
19500TIP3    H179915   5.266   2.052  11.187  0.5431 -1.0392  0.1078
19500TIP3    H279916   5.185   2.125  11.292  1.2193  0.4678 -0.3959
19501TIP3   OH279917   6.368   4.574  12.553  0.1719  0.6347 -0.2351
19501TIP3    H179918   6.377   4.662  12.517  0.1507  1.3076  1.3289
19501TIP3    H279919   6.451   4.557  12.598  0.4728 -0.4747 -1.1379
19502TIP3   OH279920   5.052   3.415  11.745  0.1326 -0.6420  0.3390
19502TIP3    H179921   5.082   3.447  11.660  2.7114  0.0108  1.3787
19502TIP3    H279922   5.063   3.320  11.741 -0.9618 -0.7506 -0.4460
19503TIP3   OH279923   4.120   5.114   3.730 -0.1731 -0.1526  0.0926
19503TIP3    H179924   4.200   5.167   3.728 -0.2399 -0.0301  0.6894
19503TIP3    H279925   4.147   5.031   3.767 -0.1196 -0.4686 -0.6296
19504TIP3   OH279926   3.454   1.573  14.138 -0.1249 -0.3639  0.2432
19504TIP3    H179927   3.522   1.626  14.179 -0.3268  0.3343 -0.3137
19504TIP3    H279928   3.448   1.495  14.194 -0.4991  0.6260  1.6166
19505TIP3   OH279929   4.675   1.981   5.356 -0.3205  0.1115  0.3547
19505TIP3    H179930   4.627   1.899   5.371  0.0928 -0.5368 -1.6346
19505TIP3    H279931   4.745   1.979   5.422 -1.1591 -0.4053  1.2737
19506TIP3   OH279932   5.256   1.085   3.689 -0.8771  0.4566 -0.5065
19506TIP3    H179933   5.319   1.098   3.618  0.1837  0.6541  0.4365
19506TIP3    H279934   5.210   1.168   3.697 -1.1208  0.3824 -1.0510
19507TIP3   OH279935   5.986   3.332  12.304 -0.2280 -0.3436 -0.3195
19507TIP3    H179936   6.025   3.279  12.234 -0.5031  0.9594 -1.4986
19507TIP3    H279937   5.988   3.421  12.271 -0.7523  0.2562  1.1862
19508TIP3   OH279938   5.334   0.627   4.659 -0.1891 -0.2965  0.0270
19508TIP3    H179939   5.356   0.576   4.581  0.8699  2.2873 -1.4729
19508TIP3    H279940   5.418   0.644   4.701 -0.4779  0.4556  0.3156
19509TIP3   OH279941   6.109   6.086  12.346 -0.1885 -0.1573 -0.0622
19509TIP3    H179942   6.141   6.073  12.435 -0.4487 -1.1201 -0.0920
19509TIP3    H279943   6.183   6.059  12.290 -0.5883 -1.1716 -0.1269
19510TIP3   OH279944   3.783   5.859  15.780  0.6404  0.2441 -0.6805
19510TIP3    H179945   3.850   5.842  15.846  0.4989 -0.4409 -0.7053
19510TIP3    H279946   3.719   5.789  15.793  0.7249 -0.0292 -1.6942
19511TIP3   OH279947   1.647   0.579  13.772 -0.1959  0.0779  1.0104
19511TIP3    H179948   1.740   0.561  13.785 -0.5054 -0.4040  2.8657
19511TIP3    H279949   1.622   0.528  13.695  0.7946 -0.7830  1.2449
19512TIP3   OH279950   6.061   4.187  12.246 -0.3824 -0.2925 -0.0949
19512TIP3    H179951   5.970   4.177  12.220 -0.8826  1.6448  0.8138
19512TIP3    H279952   6.066   4.149  12.334 -0.3544 -0.2052 -0.0587
19513TIP3   OH279953   5.735   3.832   3.334  0.0262  0.3304  0.1981
19513TIP3    H179954   5.816   3.801   3.293 -0.9069 -0.9349 -0.7916
19513TIP3    H279955   5.761   3.860   3.421  1.0751 -3.0906  1.1562
19514TIP3   OH279956   3.108   0.847  11.759  0.2383 -0.5449 -0.4192
19514TIP3    H179957   3.183   0.828  11.704  0.4360 -1.5404  0.1585
19514TIP3    H279958   3.142   0.844  11.849  0.0834  1.7823 -0.2297
19515TIP3   OH279959   6.715   4.998   3.823 -0.0849 -0.1693 -0.3756
19515TIP3    H179960   6.649   5.068   3.821  0.2915  0.2810  1.4493
19515TIP3    H279961   6.669   4.921   3.790 -1.2600  0.3388  0.0228
19516TIP3   OH279962   5.396   5.059  17.053 -0.0750 -0.1823  0.2934
19516TIP3    H179963   5.408   4.982  16.998 -0.6620  0.7255 -1.1890
19516TIP3    H279964   5.484   5.083  17.081  0.4971  0.3175 -1.7343
19517TIP3   OH279965   1.254   6.243  11.947  0.3031 -0.3457  0.4709
19517TIP3    H179966   1.326   6.302  11.923 -0.3859 -0.3296 -1.8387
19517TIP3    H279967   1.210   6.287  12.019  0.7581  1.1973 -0.1490
19518TIP3   OH279968   4.239   1.886   5.609 -0.1147 -0.1146  0.2924
19518TIP3    H179969   4.330   1.914   5.609 -0.4844  1.5146 -2.8762
19518TIP3    H279970   4.228   1.837   5.527 -2.5319  1.6934 -0.5944
19519TIP3   OH279971   0.372   5.840   2.845 -0.1059 -0.2344  0.3542
19519TIP3    H179972   0.334   5.859   2.758 -0.8693  0.5930  0.8433
19519TIP3    H279973   0.464   5.823   2.828 -0.2032  0.1299 -0.6084
19520TIP3   OH279974   1.255   5.576   0.996  0.8413  0.6126  0.1479
19520TIP3    H179975   1.348   5.600   0.986  0.9963 -0.0508 -0.0829
19520TIP3    H279976   1.234   5.600   1.086  0.6641  2.6273 -0.3741
19521TIP3   OH279977   5.305   5.805  11.821  0.1117  0.1819  0.1775
19521TIP3    H179978   5.255   5.862  11.879  0.1300  0.9403 -0.5356
19521TIP3    H279979   5.395   5.815  11.850 -0.0165 -0.3991  0.8059
19522TIP3   OH279980   4.268   0.935  14.507  0.3276  0.2644 -0.1019
19522TIP3    H179981   4.220   1.006  14.551 -0.9600  0.2971 -1.4546
19522TIP3    H279982   4.254   0.859  14.562  1.9224  1.0592  1.4968
19523TIP3   OH279983   2.961   2.613  16.243  0.6392  0.0713  0.3447
19523TIP3    H179984   2.961   2.587  16.336  0.1952  3.0667  1.3037
19523TIP3    H279985   2.869   2.631  16.224  0.8273  0.2180 -0.4484
19524TIP3   OH279986   0.958   2.728  15.534 -0.3991  0.3682 -0.8076
19524TIP3    H179987   0.916   2.813  15.548 -1.3237  0.8555 -4.9833
19524TIP3    H279988   0.896   2.664  15.569 -2.1186  1.3025 -1.9932
19525TIP3   OH279989   2.284   5.004   6.719  0.0733 -0.2992 -0.3234
19525TIP3    H179990   2.370   4.970   6.744  0.0834  0.4054  0.6494
19525TIP3    H279991   2.225   4.929   6.729  0.1655 -0.1914  1.4133
19526TIP3   OH279992   1.059   0.268  14.157  0.1232 -0.0552  0.2018
19526TIP3    H179993   0.967   0.243  14.154  0.0537  0.1424  0.6847
19526TIP3    H279994   1.106   0.186  14.143 -0.1260  0.0653 -1.5415
19527TIP3   OH279995   0.157   5.382   5.092  0.0983 -0.6342  0.1140
19527TIP3    H179996   0.251   5.362   5.094  0.4480  0.6272 -1.4134
19527TIP3    H279997   0.125   5.337   5.014 -0.1714  0.4231 -0.3958
19528TIP3   OH279998   3.739   1.548  16.724 -0.4305 -0.1268 -0.5019
19528TIP3    H179999   3.691   1.491  16.665 -1.6439 -0.5949  0.8880
19528TIP3    H280000   3.767   1.491  16.796  0.7592  0.4833 -0.4489
19529TIP3   OH280001   3.725   1.743  15.634  0.3883 -0.1118 -0.6441
19529TIP3    H180002   3.630   1.756  15.634  0.4899  0.7537  0.0406
19529TIP3    H280003   3.760   1.824  15.597  0.9770  0.9843  2.0279
19530TIP3   OH280004   4.294   4.210  15.064 -0.1576  0.4709 -0.4551
19530TIP3    H180005   4.370   4.166  15.102 -1.2476 -1.0060  0.1166
19530TIP3    H280006   4.266   4.272  15.131 -0.7541 -0.5666  0.2911
19531TIP3   OH280007   6.425   4.131  14.803  0.6854 -0.2350 -0.7957
19531TIP3    H180008   6.484   4.058  14.822  0.5025 -0.1730  0.0231
19531TIP3    H280009   6.461   4.171  14.724  1.2853 -0.6782 -0.7522
19532TIP3   OH280010   2.645   0.039  13.543  0.1891 -0.0890  0.0450
19532TIP3    H180011   2.572   0.021  13.484  0.3037 -1.8132  0.3825
19532TIP3    H280012   2.712   0.080  13.488 -0.0378 -0.8909 -0.8538
19533TIP3   OH280013   2.302   4.909   5.530  0.3281 -0.4235 -0.1014
19533TIP3    H180014   2.273   4.996   5.503  2.6170  0.1842 -0.8305
19533TIP3    H280015   2.232   4.851   5.500  0.0013  0.8842 -2.0923
19534TIP3   OH280016   5.286   6.100  14.596 -0.0209 -0.2665  0.4164
19534TIP3    H180017   5.205   6.072  14.639 -0.2003 -0.4434 -0.0258
19534TIP3    H280018   5.344   6.125  14.668  0.9340 -3.7232  1.0662
19535TIP3   OH280019   3.836   2.899  15.195  0.6316 -0.7994  0.0725
19535TIP3    H180020   3.822   2.993  15.204 -1.2871 -1.0774  0.5742
19535TIP3    H280021   3.856   2.886  15.103 -2.0511 -0.1612 -0.6853
19536TIP3   OH280022   2.741   1.379  14.898 -0.0198  0.0320 -0.3181
19536TIP3    H180023   2.830   1.350  14.876 -0.0059 -1.3654  1.3546
19536TIP3    H280024   2.684   1.308  14.867 -0.3008 -0.2646  0.8280
19537TIP3   OH280025   2.121   4.182   2.074  0.1717  0.5489 -0.2301
19537TIP3    H180026   2.151   4.093   2.055  1.4974  1.1119 -0.9085
19537TIP3    H280027   2.026   4.174   2.081  0.2767 -0.9384 -0.1677
19538TIP3   OH280028   4.285   3.050  14.580  0.1073 -0.5351  0.6854
19538TIP3    H180029   4.366   3.001  14.588  1.3996  1.2445 -0.6437
19538TIP3    H280030   4.289   3.090  14.493 -2.9042 -1.5526 -0.0479
19539TIP3   OH280031   3.898   1.372   2.367  0.1883  0.5044  0.4172
19539TIP3    H180032   3.891   1.328   2.282 -0.4305  0.6665  0.3835
19539TIP3    H280033   3.818   1.424   2.374 -0.1164 -0.0815  1.4332
19540TIP3   OH280034   3.674   0.708   1.152  0.3476 -0.5400  0.2523
19540TIP3    H180035   3.682   0.778   1.216  1.3891 -0.7145  0.3254
19540TIP3    H280036   3.731   0.638   1.184  0.9267 -0.6130 -0.8787
19541TIP3   OH280037   0.511   0.443   3.843  0.4105  0.2030  0.1381
19541TIP3    H180038   0.598   0.483   3.851  0.3269  0.5425 -0.6109
19541TIP3    H280039   0.461   0.503   3.789 -0.1363 -0.2579  0.1149
19542TIP3   OH280040   2.076   3.604   0.467 -0.2775  0.4365  0.3413
19542TIP3    H180041   1.986   3.620   0.438 -0.5103 -2.0359 -0.4939
19542TIP3    H280042   2.126   3.678   0.432 -1.5945  0.6961 -1.0893
19543TIP3   OH280043   1.240   5.575  15.155  0.0446  0.3067  0.0193
19543TIP3    H180044   1.314   5.633  15.139  0.0651  0.3453  0.2508
19543TIP3    H280045   1.266   5.492  15.115  1.2854 -0.4472  2.2164
19544TIP3   OH280046   2.773   3.753  14.421 -0.9561 -0.0434 -0.0206
19544TIP3    H180047   2.764   3.677  14.478  0.9756  0.7350  1.4572
19544TIP3    H280048   2.699   3.809  14.443 -1.1774 -0.5259  0.4711
19545TIP3   OH280049   5.558   1.462  11.967 -0.0023  0.5285 -0.0136
19545TIP3    H180050   5.473   1.457  11.924 -1.5913  0.8440  2.8505
19545TIP3    H280051   5.589   1.371  11.970 -0.4269  0.3539 -0.6950
19546TIP3   OH280052   1.040   4.427   5.990  0.1410  0.0806 -0.6173
19546TIP3    H180053   1.118   4.443   5.937  0.6137 -2.4612 -0.8165
19546TIP3    H280054   0.988   4.506   5.981  1.5465  0.8631 -2.5164
19547TIP3   OH280055   5.093   4.400  17.318 -0.0566 -0.5261  0.3616
19547TIP3    H180056   5.009   4.409  17.273  0.2430 -0.1544 -0.1439
19547TIP3    H280057   5.144   4.340  17.263 -0.0657 -0.9110  0.7728
19548TIP3   OH280058   4.300   4.887   0.910 -0.4118  1.1418  0.2543
19548TIP3    H180059   4.313   4.792   0.917  0.1044  0.9980 -1.8948
19548TIP3    H280060   4.352   4.924   0.981  1.3776 -0.0869 -0.3615
19549TIP3   OH280061   2.429   0.781   2.376 -0.3349  0.5260 -0.1617
19549TIP3    H180062   2.366   0.737   2.319  0.2700  0.1010 -0.5098
19549TIP3    H280063   2.379   0.851   2.418 -0.7099  1.0984 -1.5074
19550TIP3   OH280064   1.962   3.359  17.258 -0.1844 -0.0998 -0.4024
19550TIP3    H180065   2.000   3.420  17.196 -1.0777  2.0545  1.0449
19550TIP3    H280066   2.031   3.343  17.322 -0.5869  1.1860  0.4011
19551TIP3   OH280067   4.331   5.306   0.117 -0.0811 -0.2197 -0.0225
19551TIP3    H180068   4.384   5.380   0.090  1.0179 -1.2152 -0.7116
19551TIP3    H280069   4.271   5.341   0.182 -0.3792  1.5134 -1.1718
19552TIP3   OH280070   1.902   1.648  13.842  0.3606 -0.2026 -0.8900
19552TIP3    H180071   1.923   1.615  13.929  1.8696  0.0688 -1.1316
19552TIP3    H280072   1.972   1.710  13.821 -0.3563  0.2720 -2.0099
19553TIP3   OH280073   6.417   5.646   3.877  0.0213  0.3614 -0.3701
19553TIP3    H180074   6.424   5.623   3.970 -1.6787  0.4417 -0.1746
19553TIP3    H280075   6.487   5.597   3.834  0.1908 -0.4899  0.8224
19554TIP3   OH280076   3.978   2.381  12.354  0.2056  0.1098  0.0053
19554TIP3    H180077   3.955   2.474  12.359 -1.9529 -0.4161  1.3214
19554TIP3    H280078   4.060   2.374  12.402  1.1192  1.4877 -1.2404
19555TIP3   OH280079   6.416   0.392  10.846  0.2720  0.2084 -0.1536
19555TIP3    H180080   6.474   0.362  10.776  1.3032  0.9288  0.3601
19555TIP3    H280081   6.368   0.314  10.872  0.0076 -0.1194 -1.5254
19556TIP3   OH280082   4.123   2.565  17.108 -0.0523  0.1228  0.1786
19556TIP3    H180083   4.162   2.518  17.182  0.5089 -1.1273 -0.8527
19556TIP3    H280084   4.195   2.617  17.072 -0.4983  1.2682  0.8973
19557TIP3   OH280085   5.692   2.415  14.706  0.6547 -0.2952  0.0849
19557TIP3    H180086   5.706   2.321  14.695 -1.2617 -0.7126  0.8985
19557TIP3    H280087   5.600   2.429  14.683  0.5802  1.1881  1.1388
19558TIP3   OH280088   0.186   2.445   3.869 -0.1939 -0.1026 -0.7733
19558TIP3    H180089   0.124   2.445   3.941  0.6856 -0.2894 -0.0043
19558TIP3    H280090   0.212   2.537   3.860 -0.8932  0.0528 -1.3972
19559TIP3   OH280091   0.616   3.637   1.163 -0.5723  0.2423  0.2040
19559TIP3    H180092   0.626   3.552   1.206 -1.0713  0.2241  0.2912
19559TIP3    H280093   0.700   3.681   1.176 -0.0528 -0.5192 -0.4532
19560TIP3   OH280094   3.990   5.648  15.406 -0.0199  0.1674  0.1920
19560TIP3    H180095   4.047   5.721  15.382 -0.1072  0.0040 -0.5271
19560TIP3    H280096   4.033   5.571  15.369 -1.4342  0.2031 -1.6619
19561TIP3   OH280097   5.373   2.662   5.301 -0.2542  0.1007 -0.4976
19561TIP3    H180098   5.370   2.568   5.281 -0.4201  0.0851 -0.4057
19561TIP3    H280099   5.362   2.704   5.216 -3.0792  0.0432 -0.2524
19562TIP3   OH280100   0.219   6.072   3.609 -0.0691  0.4275  0.4774
19562TIP3    H180101   0.178   6.111   3.532 -0.4756 -0.8224  0.0359
19562TIP3    H280102   0.237   6.146   3.667 -1.0643  1.2277 -0.2069
19563TIP3   OH280103   6.642   2.609   1.221  0.3568  0.5603 -0.4297
19563TIP3    H180104   6.626   2.516   1.203  1.2069  0.1166  0.9875
19563TIP3    H280105   6.571   2.655   1.177 -3.0565 -1.0728  2.8880
19564TIP3   OH280106   1.623   2.759  16.932  0.2716 -0.5421 -0.2987
19564TIP3    H180107   1.707   2.717  16.950  0.1556 -1.6048 -2.0054
19564TIP3    H280108   1.632   2.795  16.844 -0.7270  0.2031 -0.1085
19565TIP3   OH280109   0.881   2.223  10.430 -0.6660 -0.0754  0.3739
19565TIP3    H180110   0.963   2.226  10.479 -0.8469  1.6478  0.6306
19565TIP3    H280111   0.846   2.136  10.448  0.5028 -0.3957  1.2526
19566TIP3   OH280112   0.595   4.532   5.286  0.7073 -0.1340 -0.4343
19566TIP3    H180113   0.679   4.487   5.291  1.4013  1.2082  0.7406
19566TIP3    H280114   0.567   4.542   5.377 -0.4254 -0.0062 -0.7750
19567TIP3   OH280115   4.777   3.310  16.007  0.5584  0.7809  0.3352
19567TIP3    H180116   4.792   3.393  16.053 -1.5648  1.0996  0.5398
19567TIP3    H280117   4.746   3.250  16.075  1.2543  0.0640  0.0274
19568TIP3   OH280118   2.454   2.090  15.705 -0.2376  0.0152  0.1504
19568TIP3    H180119   2.431   2.076  15.613 -1.9303  0.0933  0.5310
19568TIP3    H280120   2.538   2.135  15.702  1.0815 -2.3767 -1.2826
19569TIP3   OH280121   5.764   5.076   0.384  0.1359  0.3562  0.6364
19569TIP3    H180122   5.845   5.109   0.423  0.9885  1.9394 -2.2343
19569TIP3    H280123   5.779   5.079   0.290 -3.0936  0.2080 -0.0140
19570TIP3   OH280124   2.125   0.587   5.725 -0.3962  0.4988 -0.2248
19570TIP3    H180125   2.061   0.517   5.727 -1.4168  1.3243 -1.7462
19570TIP3    H280126   2.205   0.545   5.692 -0.8296 -0.0593 -0.5758
19571TIP3   OH280127   4.339   1.360   4.233 -0.0082  0.5024  0.1359
19571TIP3    H180128   4.265   1.388   4.287 -0.3374 -1.8887  1.0456
19571TIP3    H280129   4.414   1.361   4.291  0.1912  0.5819 -0.1207
19572TIP3   OH280130   5.603   4.921  14.796  0.4514 -0.0277 -0.4434
19572TIP3    H180131   5.524   4.874  14.823 -1.0212  1.4691 -1.8216
19572TIP3    H280132   5.625   4.976  14.871 -0.2660  0.0679 -0.2932
19573TIP3   OH280133   6.464   3.543   0.082  0.5060 -0.1762 -0.2483
19573TIP3    H180134   6.478   3.449   0.068  0.3594 -0.0278 -1.5526
19573TIP3    H280135   6.423   3.548   0.168  0.5563 -1.3102 -0.1367
19574TIP3   OH280136   3.449   1.252   2.532  0.1148  0.6687  0.3306
19574TIP3    H180137   3.531   1.214   2.563  0.1354 -1.1775 -1.7320
19574TIP3    H280138   3.463   1.266   2.439 -0.6794  3.8865  0.5876
19575TIP3   OH280139   3.257   0.710   3.428  0.3004 -0.7391  0.1738
19575TIP3    H180140   3.303   0.794   3.419 -1.2968  0.0051 -1.7835
19575TIP3    H280141   3.180   0.730   3.480  0.5703 -1.2981  0.7985
19576TIP3   OH280142   5.084   2.247  11.397  0.3894  0.7455 -0.0614
19576TIP3    H180143   5.110   2.335  11.426 -2.6401  1.0781  2.0926
19576TIP3    H280144   4.995   2.257  11.364  0.2874 -1.3885 -0.6138
19577TIP3   OH280145   2.759   0.203  15.044 -0.6713 -0.3653  0.2534
19577TIP3    H180146   2.832   0.169  14.993 -1.6585 -1.3371 -0.5778
19577TIP3    H280147   2.799   0.239  15.123  0.7752  0.0542 -0.6490
19578TIP3   OH280148   2.425   3.613   4.039  0.4359  0.4649  0.2851
19578TIP3    H180149   2.394   3.523   4.044  1.5874  0.0817  0.9105
19578TIP3    H280150   2.487   3.613   3.967 -0.2036  0.9741 -0.2760
19579TIP3   OH280151   0.284   1.334  15.908 -0.2633 -0.2099  0.1705
19579TIP3    H180152   0.191   1.356  15.900 -0.4938 -1.5538 -1.8059
19579TIP3    H280153   0.317   1.391  15.976 -2.5321  0.3474  0.8851
19580TIP3   OH280154   1.963   4.560  14.338 -0.0548 -0.2365  0.1336
19580TIP3    H180155   1.921   4.646  14.331 -0.3373 -0.4125 -0.4114
19580TIP3    H280156   2.055   4.580  14.354  0.2207  0.2135 -1.7887
19581TIP3   OH280157   0.259   5.181   1.474 -0.3688 -0.2866  0.3357
19581TIP3    H180158   0.244   5.222   1.389 -0.9324  1.1069  1.0843
19581TIP3    H280159   0.312   5.244   1.523  0.0847 -1.1314  0.9826
19582TIP3   OH280160   4.368   5.620   0.312 -0.1696 -0.6102 -0.7193
19582TIP3    H180161   4.414   5.554   0.365  0.9549  0.1375 -0.7288
19582TIP3    H280162   4.326   5.678   0.375  1.3441  0.4043 -0.5973
19583TIP3   OH280163   2.940   2.785  14.752  0.0740  0.1116  0.3170
19583TIP3    H180164   2.945   2.767  14.658 -0.8283 -1.0578  0.4679
19583TIP3    H280165   2.848   2.809  14.767 -0.1212 -1.0424  1.0953
19584TIP3   OH280166   4.945   5.017  15.319  0.1988 -0.0162  0.1859
19584TIP3    H180167   4.989   5.041  15.237  0.7190 -0.8338  0.2250
19584TIP3    H280168   4.974   5.083  15.382  0.8318 -0.1518  0.0402
19585TIP3   OH280169   4.408   2.554  13.016 -0.5889  0.2812  0.2734
19585TIP3    H180170   4.376   2.556  12.925  2.2113  2.7893 -0.8310
19585TIP3    H280171   4.462   2.475  13.020  0.1476  0.7056 -0.6584
19586TIP3   OH280172   4.770   1.497  15.640 -0.1427 -0.1874 -0.0295
19586TIP3    H180173   4.843   1.491  15.579  0.2156 -1.1770  0.4725
19586TIP3    H280174   4.810   1.517  15.724 -0.2346 -2.4273  0.6049
19587TIP3   OH280175   2.009   1.718  12.903  0.0450  0.0402 -0.6866
19587TIP3    H180176   2.034   1.701  12.813  1.0157 -0.9761 -0.2483
19587TIP3    H280177   2.055   1.651  12.954 -3.1863 -1.6743  0.2599
19588TIP3   OH280178   2.399   5.916   3.683  0.0852  0.6548 -0.0359
19588TIP3    H180179   2.333   5.917   3.614 -0.3251  0.7444  0.3589
19588TIP3    H280180   2.452   5.838   3.664 -1.3204 -0.5271  0.7637
19589TIP3   OH280181   1.851   1.196   1.070 -0.1527 -0.0489  0.5235
19589TIP3    H180182   1.784   1.251   1.031 -0.6179  0.3931  1.8826
19589TIP3    H280183   1.925   1.200   1.009 -0.9574  0.3540 -0.4363
19590TIP3   OH280184   6.536   0.927   5.061  0.4586 -0.2702 -0.3616
19590TIP3    H180185   6.495   0.969   4.985  1.4685  0.1143 -0.7145
19590TIP3    H280186   6.572   0.845   5.025  0.1841 -0.5066 -0.1007
19591TIP3   OH280187   2.591   3.426   6.179  0.6334 -0.1595 -0.6552
19591TIP3    H180188   2.610   3.356   6.242  1.6495 -0.3512 -1.1455
19591TIP3    H280189   2.591   3.382   6.094  2.1226  0.5499 -1.0573
19592TIP3   OH280190   1.914   4.508   1.219  0.0495 -0.0395  0.3055
19592TIP3    H180191   2.009   4.497   1.211  0.0719  0.1193  0.3419
19592TIP3    H280192   1.884   4.427   1.260  0.4105  0.6862  2.1048
19593TIP3   OH280193   2.604   6.335   3.213  0.4954  0.1779 -0.3746
19593TIP3    H180194   2.629   6.276   3.142 -1.0119 -1.8305  0.6688
19593TIP3    H280195   2.514   6.312   3.232  0.5636  1.3438  1.5616
19594TIP3   OH280196   1.764   2.446   4.449  0.0354  0.8036  0.4321
19594TIP3    H180197   1.676   2.425   4.419 -0.5302  1.3634  1.6326
19594TIP3    H280198   1.819   2.377   4.412 -0.9852  0.1287  0.1325
19595TIP3   OH280199   2.088   2.830  14.212 -0.7823  0.4179  0.1759
19595TIP3    H180200   2.071   2.735  14.216  0.3028  0.0459 -2.3089
19595TIP3    H280201   2.002   2.869  14.204 -1.3178 -0.2493  2.1668
19596TIP3   OH280202   0.063   6.368   3.540 -0.4074 -0.3026 -0.5497
19596TIP3    H180203  -0.017   6.409   3.508  0.5694  1.6871 -0.5663
19596TIP3    H280204   0.106   6.334   3.461 -0.2575  0.4360 -0.7869
19597TIP3   OH280205   5.944   0.889  12.413 -0.0513  0.5421 -0.0218
19597TIP3    H180206   5.972   0.947  12.342  0.9920 -0.6585 -0.6498
19597TIP3    H280207   6.026   0.849  12.443 -0.6424  0.0903  1.0072
19598TIP3   OH280208   4.240   5.348   2.255 -0.2241  0.3413 -0.1841
19598TIP3    H180209   4.257   5.320   2.165  0.0557 -2.3562  0.6325
19598TIP3    H280210   4.202   5.435   2.245 -0.8994 -0.1525 -2.9469
19599TIP3   OH280211   4.648   0.338   5.751 -0.2182  0.5675 -0.1967
19599TIP3    H180212   4.605   0.410   5.798 -0.3099  0.1741  0.3297
19599TIP3    H280213   4.731   0.325   5.798 -0.4216  0.0079  0.0149
19600TIP3   OH280214   5.450   4.530   1.461 -0.0525  0.8148 -0.2049
19600TIP3    H180215   5.456   4.562   1.551 -1.5876 -1.3178  0.7444
19600TIP3    H280216   5.428   4.438   1.469 -1.3436  0.7817 -2.7694
19601TIP3   OH280217   4.841   3.358   4.834 -0.1481 -0.0537 -0.3083
19601TIP3    H180218   4.889   3.347   4.917  0.5227  1.0592 -0.5190
19601TIP3    H280219   4.889   3.428   4.789 -2.9405  2.3963  0.2120
19602TIP3   OH280220   1.424   1.056   1.134 -0.1543  0.1634  0.1241
19602TIP3    H180221   1.346   1.071   1.081 -0.3597 -0.8104  0.1465
19602TIP3    H280222   1.426   1.131   1.195 -1.4442 -0.1372  0.5649
19603TIP3   OH280223   4.677   6.503  14.195 -0.0120 -0.0695  0.5076
19603TIP3    H180224   4.723   6.586  14.182 -0.2300 -0.1706 -1.2045
19603TIP3    H280225   4.698   6.478  14.285  0.6771  1.4506  0.8147
19604TIP3   OH280226   4.484   4.093  12.078 -0.2785  0.4578 -0.7410
19604TIP3    H180227   4.538   4.055  12.146  0.9992  0.3270 -1.7811
19604TIP3    H280228   4.404   4.119  12.122  0.2217 -0.2828  0.6503
19605TIP3   OH280229   3.411   1.078  11.666 -0.7390  0.0428 -0.5367
19605TIP3    H180230   3.434   1.123  11.585  1.1452 -1.8785 -1.1726
19605TIP3    H280231   3.403   0.986  11.641  1.3961 -0.8490  1.6397
19606TIP3   OH280232   2.627   3.705  17.089 -0.0635  0.4246 -0.2562
19606TIP3    H180233   2.609   3.788  17.132  1.4270 -0.5303  2.4488
19606TIP3    H280234   2.543   3.681  17.049 -0.8767  2.5736  0.0196
19607TIP3   OH280235   2.723   4.144  12.301 -0.0920 -0.0035  0.0717
19607TIP3    H180236   2.725   4.235  12.273 -1.2750  1.1026  3.1731
19607TIP3    H280237   2.655   4.103  12.247 -0.9133  1.4605 -0.0311
19608TIP3   OH280238   1.300   5.558  10.206  0.2565 -0.8845 -0.1757
19608TIP3    H180239   1.364   5.490  10.185 -1.9895 -2.6315 -1.9544
19608TIP3    H280240   1.249   5.521  10.278  2.8140  1.7103  3.3682
19609TIP3   OH280241   5.121   4.013  17.297  0.1919  0.2813 -0.3116
19609TIP3    H180242   5.190   3.981  17.355  1.1412 -1.3138 -2.1942
19609TIP3    H280243   5.167   4.048  17.221 -1.0092 -1.2970 -1.8556
19610TIP3   OH280244   2.584   1.838   4.176 -0.0060  0.5790 -0.4283
19610TIP3    H180245   2.576   1.847   4.081 -1.1577 -0.7182 -0.4885
19610TIP3    H280246   2.577   1.927   4.210  1.4701  1.1724 -1.5992
19611TIP3   OH280247   5.470   6.351   5.921 -0.3632  0.2541 -0.3052
19611TIP3    H180248   5.555   6.393   5.936  0.2373 -1.1390  0.3590
19611TIP3    H280249   5.443   6.322   6.008 -0.7552 -0.7314 -0.7474
19612TIP3   OH280250   2.608   6.251  15.156  0.0424  0.1582  0.7998
19612TIP3    H180251   2.604   6.283  15.066 -0.3725 -1.3625  0.2349
19612TIP3    H280252   2.580   6.326  15.209 -1.4323  0.5860 -0.4753
19613TIP3   OH280253   6.311   5.928  15.223  0.3167  0.5069 -0.6804
19613TIP3    H180254   6.337   5.992  15.289  0.1607  0.8921 -0.9942
19613TIP3    H280255   6.260   5.977  15.159 -1.2592 -0.2395 -0.0615
19614TIP3   OH280256   0.677   0.755   0.133 -0.7724  0.1375  0.0116
19614TIP3    H180257   0.718   0.774   0.048 -0.5129  0.5177  0.2179
19614TIP3    H280258   0.600   0.812   0.134 -0.6717  0.2733  0.1086
19615TIP3   OH280259   0.824   5.532  14.311  0.5162 -0.0066 -0.1824
19615TIP3    H180260   0.757   5.477  14.353 -1.0127  1.8426 -0.0917
19615TIP3    H280261   0.818   5.509  14.218  0.0775 -0.1846 -0.1143
19616TIP3   OH280262   0.427   3.575   5.574  0.0768 -0.7414  0.0369
19616TIP3    H180263   0.488   3.637   5.535 -0.0479 -0.5213  0.1943
19616TIP3    H280264   0.385   3.532   5.499  0.0156 -0.4935 -0.0721
19617TIP3   OH280265   3.372   3.657   0.595  0.3668  0.4813 -0.0538
19617TIP3    H180266   3.329   3.738   0.567 -0.1052  0.0780 -0.5078
19617TIP3    H280267   3.317   3.587   0.560 -0.2629 -0.0480  1.9018
19618TIP3   OH280268   0.088   2.176  15.768  0.3758  0.0426  0.9536
19618TIP3    H180269   0.019   2.157  15.704  0.6506  0.6666  0.4528
19618TIP3    H280270   0.145   2.238  15.723  0.7444  0.2613  1.7076
19619TIP3   OH280271   0.441   6.428   4.713 -0.4232 -0.5215  0.1502
19619TIP3    H180272   0.471   6.345   4.675 -0.5500 -0.4905 -0.0158
19619TIP3    H280273   0.368   6.455   4.658  1.1645  0.9872 -1.3528
19620TIP3   OH280274   4.743   4.850   1.023  0.2956  0.0738  0.0177
19620TIP3    H180275   4.680   4.826   0.955 -0.1289  0.5732  0.2299
19620TIP3    H280276   4.735   4.945   1.031 -0.0405 -0.0345  1.1411
19621TIP3   OH280277   0.581   2.402  16.062 -0.3958  0.1599  0.0978
19621TIP3    H180278   0.498   2.354  16.053 -0.6193  0.6481 -0.4874
19621TIP3    H280279   0.568   2.482  16.011  0.7328 -0.1320 -0.6730
19622TIP3   OH280280   2.412   6.077   3.057  0.4780 -0.1626  0.2986
19622TIP3    H180281   2.369   6.066   2.973 -1.6290  0.7268  1.1750
19622TIP3    H280282   2.379   6.160   3.090 -0.5501 -1.4913  2.9434
19623TIP3   OH280283   4.706   3.279   0.434  0.3952 -0.4446  0.3292
19623TIP3    H180284   4.767   3.205   0.435  0.6241 -0.2563  0.2189
19623TIP3    H280285   4.624   3.242   0.465 -0.1091 -1.2748 -1.8209
19624TIP3   OH280286   5.874   5.989  12.050  0.6608 -0.5172 -1.4043
19624TIP3    H180287   5.878   6.071  12.100  1.2115 -0.2089 -1.9489
19624TIP3    H280288   5.858   5.922  12.117  0.2286  0.0220 -0.9500
19625TIP3   OH280289   0.761   1.544   2.604  0.8638 -0.4380  0.1571
19625TIP3    H180290   0.836   1.484   2.596  2.1009  1.2124 -1.1312
19625TIP3    H280291   0.690   1.488   2.637  2.0828 -2.5004 -0.5176
19626TIP3   OH280292   1.845   5.514   4.393 -0.0103 -0.3433 -0.4150
19626TIP3    H180293   1.815   5.544   4.479  2.6579 -2.1477  1.2892
19626TIP3    H280294   1.764   5.505   4.342 -1.6193  1.5704  1.5699
19627TIP3   OH280295   2.523   1.674  17.008 -0.3067 -0.5916  0.2056
19627TIP3    H180296   2.612   1.703  16.989  0.6901 -2.0120  2.3750
19627TIP3    H280297   2.498   1.623  16.930  0.3280  0.6811 -0.8683
19628TIP3   OH280298   4.824   5.276   3.309 -0.5283  0.1161 -0.2308
19628TIP3    H180299   4.764   5.328   3.256  0.2405  0.9122 -0.3288
19628TIP3    H280300   4.837   5.195   3.259 -0.3439  0.5696 -0.9221
19629TIP3   OH280301   5.595   2.736   0.139  0.5569 -0.0612  0.0183
19629TIP3    H180302   5.618   2.725   0.231 -0.5870 -0.8438  0.2400
19629TIP3    H280303   5.502   2.760   0.140  0.7895  0.9728 -0.8950
19630TIP3   OH280304   2.579   5.915   4.647 -0.3783 -0.3033 -0.3326
19630TIP3    H180305   2.488   5.904   4.621  0.0703 -1.0073 -1.6979
19630TIP3    H280306   2.589   5.859   4.724 -1.2627  0.3524  0.2855
19631TIP3   OH280307   4.661   0.025   4.610  0.3071 -0.3468  0.0950
19631TIP3    H180308   4.705   0.057   4.531  1.6171  0.7344  1.2242
19631TIP3    H280309   4.731   0.007   4.672 -0.6666 -1.7011  0.8595
19632TIP3   OH280310   0.646   3.773  16.900  0.1579  0.1772 -1.0482
19632TIP3    H180311   0.667   3.859  16.937  1.4374 -0.2828 -0.6461
19632TIP3    H280312   0.626   3.790  16.809 -0.0770  0.9697 -0.8514
19633TIP3   OH280313   1.637   1.631   3.484  0.5518 -0.5584  0.3909
19633TIP3    H180314   1.711   1.672   3.439  0.9040  0.0028  1.4612
19633TIP3    H280315   1.635   1.541   3.450 -0.0173  0.2006 -1.7416
19634TIP3   OH280316   3.818   5.552   3.886 -0.4088  0.3899 -0.9344
19634TIP3    H180317   3.888   5.496   3.852 -0.7582  1.2988 -3.3665
19634TIP3    H280318   3.752   5.491   3.919 -0.2881 -0.6391 -2.4996
19635TIP3   OH280319   6.320   3.789  14.915  0.5298  0.0765  0.3475
19635TIP3    H180320   6.304   3.696  14.931  1.3890  0.1768  2.1326
19635TIP3    H280321   6.257   3.834  14.972 -0.0879  0.6230 -0.7287
19636TIP3   OH280322   2.377   3.004  12.740  0.1928 -0.2508  0.2619
19636TIP3    H180323   2.430   3.059  12.798  0.8927 -0.1660 -0.4405
19636TIP3    H280324   2.377   2.918  12.783  2.1236 -0.6346 -0.4238
19637TIP3   OH280325   2.679   6.294   3.846  0.0647  0.0537 -0.0454
19637TIP3    H180326   2.733   6.350   3.901  1.5092 -0.2922 -1.0705
19637TIP3    H280327   2.661   6.347   3.768 -2.8274  0.9378  1.0540
19638TIP3   OH280328   6.294   6.082   5.572  0.2865 -0.0597  0.4581
19638TIP3    H180329   6.309   5.989   5.555  0.8325  0.2068 -0.6387
19638TIP3    H280330   6.234   6.109   5.502 -1.2236  0.0600  1.7408
19639TIP3   OH280331   4.528   2.617  12.634  0.0022  0.2962  0.1691
19639TIP3    H180332   4.449   2.566  12.655  0.3090  0.1869  1.0833
19639TIP3    H280333   4.495   2.705  12.618 -0.2225  0.4973  1.5739
19640TIP3   OH280334   4.730   5.600   5.771  0.9289 -0.0202  0.1705
19640TIP3    H180335   4.662   5.543   5.806  1.4653 -0.6843  0.1695
19640TIP3    H280336   4.802   5.540   5.750  1.6875  0.7205  0.6116
19641TIP3   OH280337   0.856   1.747  12.829 -0.1257 -0.4567  0.0389
19641TIP3    H180338   0.765   1.725  12.808  0.1193 -2.3587  0.7973
19641TIP3    H280339   0.853   1.771  12.922  0.2474 -1.1805  0.2396
19642TIP3   OH280340   4.308   3.002   4.410  0.8666  0.7725  0.4329
19642TIP3    H180341   4.338   3.067   4.348 -2.5125  2.4979  0.3537
19642TIP3    H280342   4.339   3.033   4.495  0.2796  1.8947  0.2533
19643TIP3   OH280343   2.635   4.737  11.989  0.0476 -0.3356 -0.0826
19643TIP3    H180344   2.598   4.745  11.901  0.0072  1.7129  0.0825
19643TIP3    H280345   2.727   4.715  11.974  0.2203  0.7336 -0.6772
19644TIP3   OH280346   2.548   4.694  16.690 -0.6868 -0.4261  0.4591
19644TIP3    H180347   2.609   4.727  16.624 -1.5461  0.8683  0.2739
19644TIP3    H280348   2.588   4.613  16.722  1.2484  0.5187  0.5362
19645TIP3   OH280349   5.304   0.934  13.790 -0.3179 -0.1093  0.0228
19645TIP3    H180350   5.254   1.015  13.801 -0.5645 -0.1914 -0.4872
19645TIP3    H280351   5.254   0.883  13.727 -0.4099 -0.8678  0.6976
19646TIP3   OH280352   0.773   0.043  15.579  0.5251  0.1956 -0.0528
19646TIP3    H180353   0.776  -0.052  15.570 -1.4771 -0.0142  0.7371
19646TIP3    H280354   0.715   0.072  15.508  0.7218  0.7579  0.0115
19647TIP3   OH280355   0.192   2.248  17.288  0.1018 -0.1252 -0.6027
19647TIP3    H180356   0.108   2.279  17.254 -1.4344 -1.9905  1.1757
19647TIP3    H280357   0.190   2.153  17.275  0.2059 -0.7080  2.7223
19648TIP3   OH280358   0.696   2.564  16.648  0.3466  0.2381  1.2609
19648TIP3    H180359   0.778   2.581  16.694  1.0052  0.7074 -0.0458
19648TIP3    H280360   0.689   2.635  16.584  0.1574 -1.1249 -0.2880
19649TIP3   OH280361   3.366   2.308   5.931  0.5484  1.0626  0.0552
19649TIP3    H180362   3.352   2.305   6.025  1.7143 -0.7566  0.2101
19649TIP3    H280363   3.447   2.259   5.916 -0.5786 -0.3656 -2.0433
19650TIP3   OH280364   4.858   4.517  11.619  0.2227  0.6679 -0.2221
19650TIP3    H180365   4.891   4.538  11.531  0.6328 -0.0129 -0.2436
19650TIP3    H280366   4.779   4.569  11.628 -0.6912 -0.4059 -1.6168
19651TIP3   OH280367   3.900   2.395  14.763  0.2417  0.0895 -0.3098
19651TIP3    H180368   3.884   2.316  14.711 -1.7946  0.1547  0.1243
19651TIP3    H280369   3.857   2.465  14.715  1.4246  0.8342 -0.3273
19652TIP3   OH280370   2.571   0.147   0.168  0.1270 -0.7369 -0.2174
19652TIP3    H180371   2.598   0.185   0.084 -0.9341 -0.0296 -0.2442
19652TIP3    H280372   2.476   0.149   0.166  0.0784 -1.4464  0.6898
19653TIP3   OH280373   6.286   4.291   0.685  0.2457 -0.1377 -0.3267
19653TIP3    H180374   6.242   4.351   0.745  2.7695  0.9870  0.5376
19653TIP3    H280375   6.215   4.249   0.636 -1.8925 -0.2425  2.6020
19654TIP3   OH280376   5.639   0.695  14.310  0.2005 -0.1623 -0.2493
19654TIP3    H180377   5.707   0.760  14.327  0.9804 -1.3097  1.3254
19654TIP3    H280378   5.580   0.737  14.247  0.8280  1.9233  0.4797
19655TIP3   OH280379   5.032   1.320   4.240  0.0653 -0.4874 -0.4142
19655TIP3    H180380   4.991   1.400   4.207  1.2214 -0.5664 -2.2317
19655TIP3    H280381   4.972   1.250   4.214 -0.1486 -0.3404 -0.3150
19656TIP3   OH280382   1.957   1.851   1.710 -0.6372 -0.0952 -0.2480
19656TIP3    H180383   1.957   1.851   1.615 -0.3434 -1.7992 -0.2836
19656TIP3    H280384   2.046   1.875   1.735 -0.9110  1.1091 -0.3605
19657TIP3   OH280385   4.703   6.291  12.778  0.4063  0.8247 -0.0430
19657TIP3    H180386   4.707   6.209  12.826 -1.6884 -0.8198 -2.4287
19657TIP3    H280387   4.795   6.320  12.773  0.9521 -0.1170  2.7360
19658TIP3   OH280388   1.213   0.116  16.783 -0.1522 -0.1143  0.6096
19658TIP3    H180389   1.233   0.115  16.689 -0.0417  0.2842  0.6273
19658TIP3    H280390   1.117   0.120  16.787 -0.1311  0.6018  0.5061
19659TIP3   OH280391   0.452   3.854   5.841  0.3229 -0.0348 -0.1133
19659TIP3    H180392   0.409   3.939   5.849 -1.0652 -0.6363 -0.8786
19659TIP3    H280393   0.390   3.799   5.794  0.7764 -1.7740  1.1958
19660TIP3   OH280394   2.542   1.876  16.127 -0.5795 -0.2316 -0.2240
19660TIP3    H180395   2.603   1.822  16.078  0.5252  1.2848 -0.5830
19660TIP3    H280396   2.511   1.941  16.064 -0.7970  0.4205  0.5357
19661TIP3   OH280397   4.681   5.076  12.010 -0.5039  0.0233  0.1375
19661TIP3    H180398   4.712   4.999  11.962 -0.1183 -0.4711  1.1656
19661TIP3    H280399   4.731   5.076  12.091  2.0937  3.3206 -1.2427
19662TIP3   OH280400   0.131   3.468  12.602 -0.1087 -0.3899  0.1160
19662TIP3    H180401   0.126   3.404  12.530  0.2887 -0.9428  0.5719
19662TIP3    H280402   0.043   3.506  12.605 -0.0747 -0.2072 -0.7994
19663TIP3   OH280403   3.535   2.445   5.667  0.0981 -0.3142  0.2942
19663TIP3    H180404   3.488   2.362   5.652 -2.5675  1.1884 -0.3726
19663TIP3    H280405   3.549   2.481   5.579  1.1908 -0.0214  0.5783
19664TIP3   OH280406   5.453   6.131   2.255 -0.0092  0.4844 -0.5009
19664TIP3    H180407   5.482   6.166   2.171 -0.5084  1.6932 -0.2032
19664TIP3    H280408   5.380   6.188   2.281 -0.5312 -0.4951  0.2714
19665TIP3   OH280409   2.130   4.768  14.098 -0.1874  0.4338 -0.0806
19665TIP3    H180410   2.123   4.698  14.033 -2.2447  2.0234 -1.7345
19665TIP3    H280411   2.224   4.778  14.113  0.3660 -0.2116 -2.6420
19666TIP3   OH280412   1.539   1.616  14.143 -0.1964 -0.2400  0.2119
19666TIP3    H180413   1.491   1.633  14.224 -1.2309 -0.0844 -0.4259
19666TIP3    H280414   1.480   1.643  14.073  1.0240  0.4480 -0.5833
19667TIP3   OH280415   1.495   5.927  10.611  0.5400 -0.4179 -0.6121
19667TIP3    H180416   1.554   5.866  10.567 -0.8116 -3.6286  1.6103
19667TIP3    H280417   1.431   5.951  10.543  3.5626  2.3523 -2.7714
19668TIP3   OH280418   6.367   2.227  13.292 -0.0930  0.2689  0.3328
19668TIP3    H180419   6.409   2.311  13.272 -1.3667  0.7338 -0.5028
19668TIP3    H280420   6.278   2.251  13.318 -0.6467 -0.8597 -0.4744
19669TIP3   OH280421   3.521   1.688   6.657  0.4928  0.0396  0.4139
19669TIP3    H180422   3.480   1.604   6.675  0.4002 -0.3885 -1.5650
19669TIP3    H280423   3.551   1.681   6.567  1.4979  1.7336  0.5755
19670TIP3   OH280424   3.224   1.953  13.231  0.3185  0.6317 -0.5605
19670TIP3    H180425   3.155   2.019  13.241 -1.6677 -1.5149  0.9308
19670TIP3    H280426   3.293   1.982  13.291 -1.4582  0.3169  1.7874
19671TIP3   OH280427   4.153   5.309  12.917 -0.2317  0.4375  0.6718
19671TIP3    H180428   4.147   5.384  12.976 -2.1720  0.1198  0.9363
19671TIP3    H280429   4.242   5.315  12.880  0.6981  1.1795  2.8621
19672TIP3   OH280430   5.820   4.076   0.086 -0.6464 -0.4870  0.3677
19672TIP3    H180431   5.870   4.061   0.006 -0.0667 -3.2592  1.1260
19672TIP3    H280432   5.766   3.997   0.095 -0.4797 -0.4096  2.8240
19673TIP3   OH280433   3.205   4.618  13.391  0.1956  0.1216  0.5472
19673TIP3    H180434   3.245   4.698  13.427 -0.3094  0.0203  1.3697
19673TIP3    H280435   3.242   4.610  13.304 -1.3647  2.4793 -0.4523
19674TIP3   OH280436   4.521   4.680  14.966 -0.6305 -0.0357  0.8991
19674TIP3    H180437   4.527   4.699  14.872 -0.2474 -1.0019  0.7250
19674TIP3    H280438   4.557   4.592  14.976 -1.2170 -0.1833  1.8714
19675TIP3   OH280439   0.012   4.507  16.926 -0.1946 -0.0647  0.5983
19675TIP3    H180440  -0.068   4.529  16.877 -1.1101  0.8251  2.3621
19675TIP3    H280441  -0.014   4.435  16.983  1.0719 -1.6164 -0.7008
19676TIP3   OH280442   3.402   5.939   3.983  0.2318  0.0029  0.6788
19676TIP3    H180443   3.458   5.861   3.986  0.0814 -0.1464 -0.1997
19676TIP3    H280444   3.315   5.906   4.004 -0.1533 -0.3961 -1.3743
19677TIP3   OH280445   2.264   1.413   0.675 -0.0374 -0.5803 -0.9242
19677TIP3    H180446   2.291   1.336   0.725 -0.4039 -0.8607 -1.1572
19677TIP3    H280447   2.197   1.381   0.616 -0.2035 -0.0751 -1.0121
19678TIP3   OH280448   4.738   0.222   3.042  0.5779  0.1006  0.0078
19678TIP3    H180449   4.773   0.166   3.111 -3.6024 -0.2044  2.2220
19678TIP3    H280450   4.726   0.308   3.084  1.9064  1.2049 -1.7267
19679TIP3   OH280451   6.633   5.372   4.334 -0.4584 -0.0586 -0.3562
19679TIP3    H180452   6.709   5.418   4.367  0.6931 -1.1229 -1.3852
19679TIP3    H280453   6.598   5.325   4.410  0.7544 -0.6549 -0.1445
19680TIP3   OH280454   5.853   5.128   1.920 -0.4223 -0.6746 -0.6410
19680TIP3    H180455   5.767   5.103   1.886  0.0675 -0.5602 -2.0623
19680TIP3    H280456   5.834   5.173   2.002 -1.6729 -1.1975 -0.6177
19681TIP3   OH280457   4.879   2.961   5.587  0.0311  0.0657 -0.2116
19681TIP3    H180458   4.817   3.002   5.528  0.0426 -1.9351 -1.7300
19681TIP3    H280459   4.958   3.016   5.583 -0.5919  0.9446 -0.6167
19682TIP3   OH280460   4.814   0.345   3.609  0.5865 -0.3841  0.1147
19682TIP3    H180461   4.906   0.353   3.634  0.6265 -0.8232  0.1198
19682TIP3    H280462   4.817   0.308   3.521  0.4228  0.0823 -0.0904
19683TIP3   OH280463   5.599   3.873   1.188 -0.3026  0.5884  0.5305
19683TIP3    H180464   5.652   3.803   1.149 -2.5456 -0.7829 -0.3007
19683TIP3    H280465   5.586   3.935   1.116 -0.8493  0.2662  0.3430
19684TIP3   OH280466   3.310   4.800   4.172  0.2286 -0.0306 -0.1285
19684TIP3    H180467   3.300   4.800   4.077  0.0454 -0.5373 -0.1132
19684TIP3    H280468   3.307   4.708   4.197  2.0748 -0.0420  0.1990
19685TIP3   OH280469   1.047   4.234   0.058 -0.1111  0.3178  0.0130
19685TIP3    H180470   1.068   4.236  -0.036 -0.1958 -2.5503 -0.1559
19685TIP3    H280471   1.133   4.232   0.101 -0.0589  2.1795  0.1076
19686TIP3   OH280472   5.859   3.436  15.425 -0.0969  0.1014  0.0794
19686TIP3    H180473   5.889   3.360  15.476 -1.0258 -0.5213 -0.2722
19686TIP3    H280474   5.871   3.409  15.334  1.9050  1.3480 -0.0696
19687TIP3   OH280475   4.738   0.018  16.421  0.5448  0.0875 -0.3130
19687TIP3    H180476   4.831   0.030  16.441  0.9543 -3.7935  0.7964
19687TIP3    H280477   4.737  -0.009  16.329  0.5800 -0.2618 -0.2127
19688TIP3   OH280478   5.619   2.841   4.724  0.3370  0.0764  0.2341
19688TIP3    H180479   5.694   2.847   4.782 -0.8140 -0.5081  1.8629
19688TIP3    H280480   5.570   2.922   4.740 -0.2584 -0.3247  0.4771
19689TIP3   OH280481   1.343   5.844   2.697 -0.3978  0.7967 -0.3166
19689TIP3    H180482   1.411   5.893   2.743  0.7673 -0.0113 -1.1264
19689TIP3    H280483   1.365   5.853   2.604  0.5101 -2.0834 -0.4841
19690TIP3   OH280484   4.760   3.669   5.271 -0.4697 -0.2629  0.3918
19690TIP3    H180485   4.830   3.733   5.282 -1.5186  0.6679  2.0015
19690TIP3    H280486   4.702   3.708   5.206  0.1883 -0.7841 -0.5324
19691TIP3   OH280487   1.580   0.193   5.431 -0.3961  0.3914 -0.3379
19691TIP3    H180488   1.653   0.169   5.489 -1.4145 -2.0329  0.0599
19691TIP3    H280489   1.616   0.262   5.375  0.9439  2.1898  2.4755
19692TIP3   OH280490   1.559   0.673   5.996 -0.1688  0.2326 -1.1802
19692TIP3    H180491   1.473   0.647   5.962  0.6360 -2.0296 -1.6486
19692TIP3    H280492   1.550   0.669   6.091 -0.4137 -0.6466 -1.2343
19693TIP3   OH280493   2.866   3.449   6.140  0.2883 -0.2960 -0.1836
19693TIP3    H180494   2.779   3.450   6.182  0.5059 -0.2160  0.2719
19693TIP3    H280495   2.906   3.532   6.165  1.1636 -1.0532  1.0546
19694TIP3   OH280496   3.696   0.413   2.519  0.0881  0.1053 -0.6443
19694TIP3    H180497   3.714   0.506   2.530 -1.2869  0.4771 -1.3764
19694TIP3    H280498   3.783   0.373   2.513  0.6967  1.3609 -0.5634
19695TIP3   OH280499   2.231   5.190  12.009  0.1118 -0.0858  0.1023
19695TIP3    H180500   2.141   5.159  12.008  0.3341 -0.7921  0.8731
19695TIP3    H280501   2.224   5.285  12.019 -0.5374 -0.2384  1.2254
19696TIP3   OH280502   6.417   5.865  11.508 -0.0985 -0.2615  0.1584
19696TIP3    H180503   6.503   5.890  11.473 -0.4104  1.2179  0.3697
19696TIP3    H280504   6.364   5.847  11.431 -0.2154  1.0153 -0.0725
19697TIP3   OH280505   3.547   4.571  13.412 -0.0970 -0.0901 -0.0394
19697TIP3    H180506   3.504   4.612  13.337 -1.8024  0.0104  0.9427
19697TIP3    H280507   3.615   4.633  13.437  0.1218  0.1399 -1.1371
19698TIP3   OH280508   1.802   3.162  14.912  0.6840  0.4264 -0.5504
19698TIP3    H180509   1.773   3.230  14.851 -1.0241  0.6126  0.4129
19698TIP3    H280510   1.889   3.136  14.880 -0.4279 -0.0129 -3.4780
19699TIP3   OH280511   1.182   6.039   0.707 -0.3438 -0.1144 -0.2988
19699TIP3    H180512   1.158   6.027   0.799  0.1356  1.8308  0.1176
19699TIP3    H280513   1.103   6.074   0.666 -0.6013 -1.1103 -0.6959
19700TIP3   OH280514   0.945   6.063   3.274  0.1685 -0.0869 -0.1505
19700TIP3    H180515   0.901   5.985   3.309  1.9864 -2.1138 -2.0082
19700TIP3    H280516   1.030   6.064   3.318  0.9623 -0.4335 -1.5827
19701TIP3   OH280517   2.514   4.706   4.073  0.0752 -0.3684 -0.3687
19701TIP3    H180518   2.576   4.682   4.143  0.8960 -0.3694 -1.0709
19701TIP3    H280519   2.444   4.641   4.080 -0.1535 -0.0114  0.8268
19702TIP3   OH280520   4.797   4.171   5.292 -0.0159  0.0258 -0.0269
19702TIP3    H180521   4.800   4.107   5.363 -0.0844  0.0424 -0.0087
19702TIP3    H280522   4.720   4.147   5.241  1.1969 -1.3170 -1.3577
19703TIP3   OH280523   0.073   2.339  10.620  0.1806  0.3483  0.0428
19703TIP3    H180524   0.103   2.248  10.617  1.4405  0.6758  1.3538
19703TIP3    H280525  -0.022   2.333  10.624  0.1786 -0.8553 -1.1174
19704TIP3   OH280526   4.345   1.650   1.631 -0.6068 -0.0037 -0.1130
19704TIP3    H180527   4.362   1.612   1.545 -1.2535  0.3946 -0.4229
19704TIP3    H280528   4.322   1.741   1.613 -0.1821  0.2383  0.5298
19705TIP3   OH280529   0.240   4.209   4.336 -0.0459 -0.7292  0.8454
19705TIP3    H180530   0.301   4.256   4.279  0.0794 -0.5731  1.1101
19705TIP3    H280531   0.239   4.120   4.300  0.0812 -0.6480  0.6367
19706TIP3   OH280532   1.668   2.685  15.972  0.1794  0.1143  0.2455
19706TIP3    H180533   1.622   2.769  15.969 -0.1429 -0.0143  1.2599
19706TIP3    H280534   1.698   2.677  16.063  2.3232  0.2464 -0.3748
19707TIP3   OH280535   2.178   2.691   1.057  0.1726  0.0424  0.3667
19707TIP3    H180536   2.090   2.662   1.032 -0.2133  1.5063 -0.0746
19707TIP3    H280537   2.234   2.654   0.989 -0.6279  2.3150 -1.6593
19708TIP3   OH280538   3.449   1.473  16.848 -0.0646 -0.2909  0.0263
19708TIP3    H180539   3.355   1.474  16.862  0.0438 -0.8448  0.8809
19708TIP3    H280540   3.481   1.551  16.893 -0.1719  0.2030 -0.7444
19709TIP3   OH280541   3.410   3.888   5.585 -0.0744  0.1469  0.5394
19709TIP3    H180542   3.481   3.864   5.644  0.8284  2.8174  0.6794
19709TIP3    H280543   3.344   3.927   5.642  0.3581  1.7923 -0.0366
19710TIP3   OH280544   3.761   1.300   0.050 -0.1260  0.4460  0.3442
19710TIP3    H180545   3.714   1.227   0.090  0.1889  0.4655  0.7519
19710TIP3    H280546   3.717   1.313  -0.035  0.3902 -0.7888 -0.1295
19711TIP3   OH280547   1.331   5.419  16.656  0.1078 -0.2117 -0.1909
19711TIP3    H180548   1.387   5.478  16.606  0.6698 -1.4383 -1.0814
19711TIP3    H280549   1.304   5.352  16.592  0.0262 -1.2655  0.9108
19712TIP3   OH280550   2.440   4.775   0.246  0.1552  0.3589 -0.4405
19712TIP3    H180551   2.481   4.861   0.247  1.0902 -0.0539 -1.5236
19712TIP3    H280552   2.371   4.781   0.313 -0.9405  2.4963 -1.6418
19713TIP3   OH280553   3.972   0.978  10.950  0.3960 -0.3833 -0.0123
19713TIP3    H180554   3.887   0.933  10.955  0.8363 -1.2001  0.2254
19713TIP3    H280555   3.996   0.972  10.858 -0.2020  0.6329 -0.2598
19714TIP3   OH280556   2.266   2.050  14.801  0.1154 -0.4946  0.0749
19714TIP3    H180557   2.238   1.978  14.743 -1.4423 -0.7252  1.0677
19714TIP3    H280558   2.225   2.031  14.885  0.8893  0.7967  0.7785
19715TIP3   OH280559   4.108   4.052   3.428 -0.1941 -0.3638  0.0466
19715TIP3    H180560   4.016   4.074   3.438 -0.0382 -0.1580  1.1634
19715TIP3    H280561   4.155   4.125   3.468  0.5563  0.6334 -2.4565
19716TIP3   OH280562   2.182   2.732   3.703 -0.0481 -0.5054 -0.1142
19716TIP3    H180563   2.239   2.656   3.689 -0.4385 -1.1390  1.4590
19716TIP3    H280564   2.093   2.697   3.689 -0.1488  0.2238 -1.5276
19717TIP3   OH280565   5.820   6.403  15.162  0.3667  0.0837  0.4320
19717TIP3    H180566   5.731   6.416  15.196  0.4116  0.8808  0.2654
19717TIP3    H280567   5.809   6.348  15.085  0.0420 -0.0428  0.5687
19718TIP3   OH280568   0.848   0.182  14.829  0.2027  0.0384  0.4817
19718TIP3    H180569   0.799   0.132  14.894 -2.2012  0.0478 -1.1940
19718TIP3    H280570   0.934   0.140  14.827 -1.0414 -2.7666  0.6081
19719TIP3   OH280571   1.300   2.435   5.936  0.0346 -0.1613 -0.5712
19719TIP3    H180572   1.222   2.408   5.985  1.0723 -0.8356  0.7626
19719TIP3    H280573   1.298   2.531   5.939  0.9283 -0.1391  2.3014
19720TIP3   OH280574   2.724   1.562   1.475 -0.2260 -0.0999 -0.0898
19720TIP3    H180575   2.782   1.637   1.463  1.1522 -0.7542  1.9550
19720TIP3    H280576   2.645   1.598   1.514 -0.0521  0.4400 -0.2305
19721TIP3   OH280577   1.315   1.234   2.015  0.4259 -0.1333  0.2764
19721TIP3    H180578   1.410   1.240   2.004  0.3444  0.5040 -0.1703
19721TIP3    H280579   1.282   1.218   1.926  0.0752  0.3446  0.3116
19722TIP3   OH280580   0.645   2.358  13.506 -0.7444 -0.0763  0.4167
19722TIP3    H180581   0.634   2.276  13.555 -0.4024  0.7962  2.0538
19722TIP3    H280582   0.559   2.400  13.509 -0.9439 -0.4009 -0.5009
19723TIP3   OH280583   4.539   3.216   3.984  0.2458  0.7889 -0.0597
19723TIP3    H180584   4.488   3.186   3.909 -0.5436 -0.0216  0.7816
19723TIP3    H280585   4.623   3.170   3.975 -0.1749 -0.0262  0.0329
19724TIP3   OH280586   0.529   2.072  16.627  0.4544  0.2971 -0.1082
19724TIP3    H180587   0.561   2.153  16.586  1.5634 -0.5230 -0.9521
19724TIP3    H280588   0.602   2.043  16.682  0.5456 -0.7289 -0.7388
19725TIP3   OH280589   1.695   1.254  11.549  0.0730 -0.0113  0.0366
19725TIP3    H180590   1.694   1.161  11.575 -2.6611 -0.0826  0.0379
19725TIP3    H280591   1.672   1.252  11.456 -2.0145  0.6831  0.4876
19726TIP3   OH280592   4.948   0.937   5.359 -0.2177  0.0187  0.5317
19726TIP3    H180593   4.876   0.961   5.418  0.9639  2.9223  0.9298
19726TIP3    H280594   5.006   0.883   5.414 -1.1070 -0.7098  0.7766
19727TIP3   OH280595   0.271   0.523   0.390 -0.1390  0.6499  0.2787
19727TIP3    H180596   0.309   0.607   0.364 -1.1160  0.4593 -1.9865
19727TIP3    H280597   0.304   0.460   0.325 -2.5962  0.1020 -0.5589
19728TIP3   OH280598   0.467   6.646   2.093  0.2238 -0.2472  0.4534
19728TIP3    H180599   0.386   6.620   2.049  0.5655 -0.7198  0.0905
19728TIP3    H280600   0.441   6.660   2.184 -0.2776 -0.3443  0.3297
19729TIP3   OH280601   4.992   4.742   1.936  0.5957 -0.2553  0.5109
19729TIP3    H180602   4.965   4.808   1.873  0.5134  1.0375  1.8502
19729TIP3    H280603   4.926   4.673   1.929  1.0352 -0.5310 -1.3488
19730TIP3   OH280604   0.790   0.777   2.540 -0.0321 -0.1868  0.3187
19730TIP3    H180605   0.741   0.702   2.504  0.0843 -0.0583 -0.1156
19730TIP3    H280606   0.767   0.850   2.483  0.7575 -0.1518  0.0205
19731TIP3   OH280607   6.740   5.235   0.701 -0.1718  0.4811  0.1310
19731TIP3    H180608   6.778   5.149   0.716  0.9788  0.9755  0.1747
19731TIP3    H280609   6.647   5.224   0.719  0.1168 -0.5190  1.1199
19732TIP3   OH280610   0.169   6.683   1.313  0.0507 -0.0594 -0.3566
19732TIP3    H180611   0.173   6.722   1.226 -1.0570  1.2300  0.1472
19732TIP3    H280612   0.136   6.594   1.298  2.8603 -1.0231 -1.5405
19733TIP3   OH280613   2.909   5.105  11.284  0.0171 -0.1166 -0.3392
19733TIP3    H180614   2.987   5.049  11.278  0.1978  0.0782  0.1707
19733TIP3    H280615   2.887   5.106  11.377  0.2322  0.9490 -0.2892
19734TIP3   OH280616   4.244   2.062  14.883 -0.0228  0.8240  0.5018
19734TIP3    H180617   4.177   2.016  14.934 -1.4000  0.8400 -1.1769
19734TIP3    H280618   4.208   2.150  14.872  0.5884  1.0263  0.1086
19735TIP3   OH280619   3.842   4.457  13.037 -0.0035 -0.0559 -0.6436
19735TIP3    H180620   3.930   4.421  13.042  0.7463  1.8169  2.3578
19735TIP3    H280621   3.802   4.435  13.121 -1.3888  1.4605 -0.8550
19736TIP3   OH280622   5.659   3.915   2.428  0.0605 -0.1593  0.1454
19736TIP3    H180623   5.572   3.891   2.460  0.5180 -0.5127  1.1506
19736TIP3    H280624   5.714   3.840   2.448  0.8638  0.5388  0.6134
19737TIP3   OH280625   4.924   3.182  13.015  0.0477 -0.0694  0.0203
19737TIP3    H180626   5.009   3.139  13.003  0.0011 -0.4177  0.8557
19737TIP3    H280627   4.889   3.143  13.095 -1.0781 -0.2102 -0.5203
19738TIP3   OH280628   3.220   6.126   2.631  0.3650 -0.2635 -0.0593
19738TIP3    H180629   3.242   6.179   2.555 -2.8149  2.5250  0.7180
19738TIP3    H280630   3.262   6.170   2.704 -0.9283  0.2572  0.3962
19739TIP3   OH280631   5.038   6.700   5.803  0.0261 -0.3200  0.0683
19739TIP3    H180632   5.073   6.789   5.808 -2.8016  1.0252 -1.4121
19739TIP3    H280633   5.092   6.656   5.738  1.0688  0.5044  0.3501
19740TIP3   OH280634   0.232   0.595  15.304 -0.1831  0.4744 -0.6554
19740TIP3    H180635   0.247   0.649  15.227 -0.1584  3.5755  1.3301
19740TIP3    H280636   0.281   0.514  15.287 -0.7533  0.7062 -4.0801
19741TIP3   OH280637   4.449   5.075  16.492  0.1786  0.0580 -0.1063
19741TIP3    H180638   4.396   5.007  16.535 -0.0028  0.0827 -0.2921
19741TIP3    H280639   4.521   5.026  16.452  0.6037  0.0800  0.6084
19742TIP3   OH280640   0.911   0.982   6.093  0.4759 -0.4731  0.3727
19742TIP3    H180641   0.875   1.052   6.039  1.9938  0.5118  0.5562
19742TIP3    H280642   0.841   0.959   6.154  0.1221  1.2677  0.6610
19743TIP3   OH280643   4.778   6.684  16.163  0.6406  0.0071 -0.2313
19743TIP3    H180644   4.828   6.606  16.137  1.2115  0.0204  0.7539
19743TIP3    H280645   4.804   6.751  16.100  1.3271 -0.1864 -0.1671
19744TIP3   OH280646   3.210   1.740  16.248  0.2343  0.5906  0.5500
19744TIP3    H180647   3.262   1.736  16.168  0.6526 -0.1984  0.8431
19744TIP3    H280648   3.275   1.737  16.318 -0.1404  1.0073  0.9235
19745TIP3   OH280649   0.015   5.058   1.445 -0.4406 -0.0005  0.1445
19745TIP3    H180650  -0.015   5.148   1.430 -2.0935 -0.5664 -0.2505
19745TIP3    H280651   0.086   5.066   1.508  1.3345  1.8125 -1.8976
19746TIP3   OH280652   0.792   3.813  14.525 -0.3927 -0.2298  0.3180
19746TIP3    H180653   0.851   3.802  14.600  1.9568 -1.0609 -1.5082
19746TIP3    H280654   0.760   3.903  14.533  2.8062  1.0672  0.4256
19747TIP3   OH280655   5.580   6.701   0.065  0.0937 -0.4369  0.0644
19747TIP3    H180656   5.673   6.684   0.052  0.1262 -0.3339  0.1679
19747TIP3    H280657   5.537   6.659  -0.010  0.3229  0.5089 -0.6150
19748TIP3   OH280658   2.859   4.716  12.292  0.1036 -0.6304  0.1520
19748TIP3    H180659   2.823   4.793  12.247  3.2516  1.2000  0.4406
19748TIP3    H280660   2.867   4.743  12.383  1.5289 -1.1258  0.2032
19749TIP3   OH280661   0.036   3.849   1.441  0.2006  0.1538  0.2111
19749TIP3    H180662   0.009   3.863   1.350  0.6622 -0.2059  0.0131
19749TIP3    H280663   0.105   3.783   1.435 -0.0110 -0.1254  0.8598
19750TIP3   OH280664   3.808   1.897  14.356  0.2025  0.1675  0.4264
19750TIP3    H180665   3.745   1.925  14.423  0.0699 -0.2681  0.4936
19750TIP3    H280666   3.877   1.853  14.405  1.7938  2.6699  0.6024
19751TIP3   OH280667   2.693   2.240   5.233  0.4740  0.2316 -0.3099
19751TIP3    H180668   2.751   2.184   5.181  0.7994  1.0868 -0.8805
19751TIP3    H280669   2.651   2.297   5.170 -0.9817 -0.3325  0.1030
19752TIP3   OH280670   4.326   3.548   2.110 -0.2326  0.1215  0.0528
19752TIP3    H180671   4.321   3.639   2.139  0.8737  0.0891  0.3583
19752TIP3    H280672   4.415   3.536   2.079 -0.2847 -0.9306  0.2389
19753TIP3   OH280673   2.200   1.786  16.006  0.5597  0.3509  0.8555
19753TIP3    H180674   2.270   1.851  16.003 -0.0246  0.9554 -0.5821
19753TIP3    H280675   2.148   1.809  16.082 -0.1779  2.1841 -0.1494
19754TIP3   OH280676   3.541   4.811   4.328  0.3286  0.4515  0.5154
19754TIP3    H180677   3.525   4.756   4.405 -2.7666  1.1296  0.4979
19754TIP3    H280678   3.467   4.794   4.270  3.2489 -1.1243 -3.1252
19755TIP3   OH280679   0.954   4.420   4.589  0.2331  0.2852 -0.1183
19755TIP3    H180680   0.997   4.434   4.504 -1.7394 -0.9642 -1.4150
19755TIP3    H280681   0.874   4.472   4.585 -1.0509 -1.5734 -0.0394
19756TIP3   OH280682   3.221   2.164   0.594  0.6615 -0.1107 -0.5505
19756TIP3    H180683   3.222   2.070   0.577  1.6997 -0.4939  1.3528
19756TIP3    H280684   3.273   2.175   0.674  0.5105  2.0783 -0.6808
19757TIP3   OH280685   4.184   6.003   0.389  0.1198 -0.0337  0.7470
19757TIP3    H180686   4.274   6.019   0.417  0.6774  1.3313 -1.5572
19757TIP3    H280687   4.134   6.076   0.426  0.7830  1.5519 -1.3000
19758TIP3   OH280688   2.719   4.994   2.121  0.1900  0.4159  0.0428
19758TIP3    H180689   2.683   5.071   2.076 -0.1188 -0.0320 -0.4870
19758TIP3    H280690   2.807   5.021   2.148 -0.2629  1.2804  0.7188
19759TIP3   OH280691   6.503   0.867   4.158 -0.1959  0.1577  0.2778
19759TIP3    H180692   6.581   0.863   4.103  0.4461 -1.8269  1.2602
19759TIP3    H280693   6.531   0.916   4.235 -0.1010 -0.0504  0.3744
19760TIP3   OH280694   4.502   5.178   5.993  0.3439  0.4861  0.2415
19760TIP3    H180695   4.505   5.268   5.961 -0.2811  0.6421  0.6120
19760TIP3    H280696   4.554   5.179   6.073  1.8908  0.1010 -0.7148
19761TIP3   OH280697   4.602   4.033  13.810 -0.0061  0.5298 -0.1168
19761TIP3    H180698   4.513   4.056  13.783 -0.1135 -0.5436 -0.7333
19761TIP3    H280699   4.593   4.004  13.900 -0.2824  0.4583 -0.1664
19762TIP3   OH280700   3.750   5.789  14.176 -0.2792  0.5625 -0.1574
19762TIP3    H180701   3.833   5.744  14.192 -1.0220 -1.0339 -0.5777
19762TIP3    H280702   3.705   5.733  14.113 -1.4074  1.7424 -0.4243
19763TIP3   OH280703   3.980   5.541  12.748 -0.1535  0.3788 -0.0551
19763TIP3    H180704   3.890   5.561  12.776 -0.2025 -1.2126  1.0559
19763TIP3    H280705   4.035   5.579  12.817 -0.0667 -0.1004  0.1408
19764TIP3   OH280706   3.137   0.899  13.571 -0.3324  0.3522 -0.4188
19764TIP3    H180707   3.125   0.930  13.482 -2.1993 -0.9805 -0.6882
19764TIP3    H280708   3.220   0.937  13.599  0.2938  0.7967 -2.7122
19765TIP3   OH280709   2.442   2.537  11.732  0.1600 -0.8291  0.2923
19765TIP3    H180710   2.515   2.573  11.682  0.5478 -1.0022  0.7243
19765TIP3    H280711   2.364   2.574  11.691  0.4003 -1.9935 -1.2703
19766TIP3   OH280712   6.406   2.842   4.285 -0.4263  0.1074 -0.0774
19766TIP3    H180713   6.317   2.846   4.251 -0.0920 -1.2909 -1.2133
19766TIP3    H280714   6.458   2.889   4.220 -0.2528  0.3780  0.2591
19767TIP3   OH280715   1.494   4.722  17.276 -0.4957 -0.1472  0.3635
19767TIP3    H180716   1.452   4.801  17.311 -0.5740 -0.9026  2.0488
19767TIP3    H280717   1.588   4.739  17.286 -0.4686  0.1719 -0.3288
19768TIP3   OH280718   1.839   5.028   5.971  0.8427  0.0053  0.0188
19768TIP3    H180719   1.841   5.122   5.986  3.0857  0.0601 -0.2958
19768TIP3    H280720   1.870   4.990   6.053  1.3343 -0.3736 -0.3395
19769TIP3   OH280721   2.001   4.559  12.575 -0.5206  0.1850  0.3531
19769TIP3    H180722   2.071   4.587  12.517 -0.1485 -1.4331 -0.0416
19769TIP3    H280723   2.027   4.471  12.602 -1.9916 -0.1184  0.8536
19770TIP3   OH280724   4.595   5.244  14.102 -0.1582  0.2259 -0.0375
19770TIP3    H180725   4.658   5.176  14.123 -0.0084 -0.0081 -1.1742
19770TIP3    H280726   4.639   5.326  14.124  1.1836  0.1633 -2.2327
19771TIP3   OH280727   2.199   6.130  12.272 -0.2792  0.2907 -0.2215
19771TIP3    H180728   2.114   6.095  12.245 -0.8552  1.1306  0.4583
19771TIP3    H280729   2.217   6.087  12.355 -0.3238  0.5460 -0.0777
19772TIP3   OH280730   2.242   5.215  11.582  0.0444 -0.0824 -0.0969
19772TIP3    H180731   2.290   5.294  11.606  0.1931  0.2921 -1.5255
19772TIP3    H280732   2.160   5.221  11.633  0.5857  0.3401  0.7527
19773TIP3   OH280733   4.636   4.192  10.982  0.1595 -0.0797  0.6145
19773TIP3    H180734   4.658   4.153  10.898  0.9723 -1.7882  1.5758
19773TIP3    H280735   4.694   4.268  10.989  0.7529 -0.4722  0.0357
19774TIP3   OH280736   0.129   0.891  10.935  0.6021 -0.6233  0.2687
19774TIP3    H180737   0.044   0.931  10.948  0.0333 -1.4016 -0.8700
19774TIP3    H280738   0.112   0.797  10.936  1.4552 -0.7942  0.0887
19775TIP3   OH280739   3.462   5.520  16.659 -0.3225 -0.6436 -0.0506
19775TIP3    H180740   3.500   5.594  16.707 -2.6437 -1.0738  2.6895
19775TIP3    H280741   3.534   5.487  16.605  1.4026  2.2028  0.2911
19776TIP3   OH280742   1.311   1.028  15.777  0.0319 -0.0548  0.0905
19776TIP3    H180743   1.352   1.072  15.852  2.2885 -0.2758 -0.9078
19776TIP3    H280744   1.270   1.099  15.727  2.8024  0.9232 -0.9993
19777TIP3   OH280745   6.162   5.957   0.263  0.2523 -0.4325  0.0284
19777TIP3    H180746   6.200   5.926   0.181 -0.9318 -0.9858 -0.3230
19777TIP3    H280747   6.162   6.053   0.253  0.7078 -0.4627 -0.3396
19778TIP3   OH280748   4.067   2.956  14.279 -0.1863  0.5085 -0.4984
19778TIP3    H180749   4.080   2.899  14.203 -0.1178 -1.2898  0.8068
19778TIP3    H280750   3.975   2.984  14.272 -0.0884  0.6324 -1.4055
19779TIP3   OH280751   3.992   5.451   1.950 -0.1802  0.0950 -0.2739
19779TIP3    H180752   4.032   5.527   1.907 -2.6525  1.7760  0.1727
19779TIP3    H280753   3.976   5.389   1.879  2.1782 -0.2197 -0.6041
19780TIP3   OH280754   2.357   3.211   5.676  0.3125 -0.3742  0.2263
19780TIP3    H180755   2.419   3.272   5.717  0.5410 -0.9051  0.6877
19780TIP3    H280756   2.352   3.138   5.737  1.5028 -1.7164 -1.2023
19781TIP3   OH280757   0.783   3.393  16.970 -0.7549 -0.3757 -0.2530
19781TIP3    H180758   0.767   3.477  17.014  1.0268  0.3085 -0.8120
19781TIP3    H280759   0.878   3.389  16.959 -0.9365 -1.6390 -1.8536
19782TIP3   OH280760   0.275   2.223   2.455  0.1452 -0.3349  0.3062
19782TIP3    H180761   0.256   2.221   2.549 -0.8993 -1.3433  0.0971
19782TIP3    H280762   0.192   2.249   2.414  0.8193  0.9246 -0.3009
19783TIP3   OH280763   1.733   1.142  14.036  0.1806  0.1362 -0.5648
19783TIP3    H180764   1.652   1.093  14.050 -0.4544  1.5907  1.2135
19783TIP3    H280765   1.704   1.229  14.010  1.1392  0.7589  0.3529
19784TIP3   OH280766   1.444   6.429  11.896 -0.1654  0.0582  0.3861
19784TIP3    H180767   1.425   6.518  11.927 -1.5448  0.3789 -1.1950
19784TIP3    H280768   1.494   6.389  11.966 -0.7565  1.6239  1.7674
19785TIP3   OH280769   1.002   1.647   4.334  0.3059 -0.1018 -0.1696
19785TIP3    H180770   1.050   1.581   4.283  0.7449 -0.1644  0.3186
19785TIP3    H280771   1.040   1.641   4.422 -0.9974 -0.5740  0.3875
19786TIP3   OH280772   0.564   2.321   6.498 -0.0382  0.2551 -0.3951
19786TIP3    H180773   0.485   2.268   6.485 -0.7071  1.1652 -0.1256
19786TIP3    H280774   0.532   2.402   6.537  1.3248 -0.5671  2.7517
19787TIP3   OH280775   3.077   2.492  10.801 -0.3939  0.1583  0.0893
19787TIP3    H180776   3.048   2.583  10.798  1.8333  0.9998  1.1340
19787TIP3    H280777   3.000   2.440  10.777 -1.7198  2.3049 -0.5171
19788TIP3   OH280778   4.485   0.505   4.495 -0.9161  0.2079 -0.1863
19788TIP3    H180779   4.447   0.448   4.427 -0.0670 -1.1746  0.4567
19788TIP3    H280780   4.557   0.454   4.532 -1.4700  0.8347  1.8966
19789TIP3   OH280781   3.544   3.265   1.455 -0.6414 -0.0101 -0.3866
19789TIP3    H180782   3.552   3.273   1.550 -0.8177  0.6014 -0.4208
19789TIP3    H280783   3.492   3.341   1.429 -0.3884 -0.0470 -1.0010
19790TIP3   OH280784   0.492   6.508   6.263 -0.0306  0.2351 -0.1866
19790TIP3    H180785   0.572   6.500   6.210  0.9992  0.9345  1.1954
19790TIP3    H280786   0.455   6.592   6.238  0.6580  0.7379  0.4320
19791TIP3   OH280787   0.903   4.008  13.235  0.4717 -0.2602  0.2726
19791TIP3    H180788   0.879   4.094  13.202  0.1846  0.1257  1.4792
19791TIP3    H280789   0.994   3.997  13.207  0.1992 -0.0156 -0.7701
19792TIP3   OH280790   3.259   2.485  16.921  0.1251 -0.3649  0.0411
19792TIP3    H180791   3.278   2.511  16.831 -0.9565 -1.2110 -0.4575
19792TIP3    H280792   3.205   2.406  16.912  1.5699 -1.5874  1.4498
19793TIP3   OH280793   1.062   5.442  10.367  0.2987  0.0109 -0.1443
19793TIP3    H180794   0.982   5.495  10.373  0.1135 -0.2767 -0.0321
19793TIP3    H280795   1.035   5.362  10.322  0.4976 -0.1332 -0.0128
19794TIP3   OH280796   1.932   4.113  15.351 -0.2216 -0.1247  0.2694
19794TIP3    H180797   1.955   4.057  15.425 -0.7562 -0.4796  0.1779
19794TIP3    H280798   1.978   4.195  15.367 -0.5249 -0.1131  1.1258
19795TIP3   OH280799   1.846   0.559   1.902  0.0268 -0.7420  0.3236
19795TIP3    H180800   1.878   0.497   1.968  0.7921 -2.0727 -1.2251
19795TIP3    H280801   1.850   0.511   1.820 -2.0839  0.4609 -0.5543
19796TIP3   OH280802   4.154   1.918   4.100  0.3186  0.0147 -0.6622
19796TIP3    H180803   4.220   1.852   4.123 -0.1116  0.1028  0.9638
19796TIP3    H280804   4.102   1.876   4.030  0.3605 -1.1929 -0.0053
19797TIP3   OH280805   5.208   5.045  11.118 -0.3252  0.1823  0.5491
19797TIP3    H180806   5.255   4.966  11.089  0.9933  1.4899 -1.0656
19797TIP3    H280807   5.235   5.056  11.209  2.4121  0.7222 -0.2149
19798TIP3   OH280808   0.937   5.913   1.265  0.4403  0.5950 -0.0269
19798TIP3    H180809   0.935   5.982   1.199 -1.1190  0.1154 -0.5272
19798TIP3    H280810   0.965   5.958   1.345 -0.1079  1.7276 -0.4434
19799TIP3   OH280811   6.260   0.856   0.776  0.2006 -0.2950 -0.5513
19799TIP3    H180812   6.320   0.901   0.836  1.4775 -1.8787 -0.5710
19799TIP3    H280813   6.317   0.823   0.707 -0.2604 -3.7690  0.5454
19800TIP3   OH280814   3.335   5.476   2.478  0.1977 -0.2528  0.7916
19800TIP3    H180815   3.424   5.509   2.466 -0.4693  1.1394 -0.7675
19800TIP3    H280816   3.296   5.534   2.544  0.2352 -0.4543  0.9931
19801TIP3   OH280817   0.658   4.731  16.275 -0.2842  0.4966 -0.1299
19801TIP3    H180818   0.726   4.697  16.333 -0.4079  0.7978  0.2000
19801TIP3    H280819   0.634   4.815  16.314  0.1447  1.0494 -1.0234
19802TIP3   OH280820   4.908   2.102  14.058  0.5519 -0.0802  0.0227
19802TIP3    H180821   5.003   2.103  14.043  0.7545 -1.6436  0.9358
19802TIP3    H280822   4.872   2.067  13.976  0.7155  0.7059 -0.4038
19803TIP3   OH280823   6.076   3.797   4.465  0.4276  0.0984 -0.1812
19803TIP3    H180824   6.164   3.762   4.474  0.5725  0.3686 -0.5183
19803TIP3    H280825   6.020   3.732   4.508  0.6768 -0.6134 -0.8920
19804TIP3   OH280826   1.747   2.963   3.919 -0.2627 -0.4451 -0.4940
19804TIP3    H180827   1.706   2.894   3.971 -1.6433  0.8661  0.2145
19804TIP3    H280828   1.840   2.939   3.917 -0.5029 -1.6395  0.7920
19805TIP3   OH280829   2.993   3.607  13.162 -0.3653 -0.1207  0.3368
19805TIP3    H180830   2.925   3.624  13.227 -1.4779 -1.0286 -0.5323
19805TIP3    H280831   3.049   3.541  13.203 -1.6038 -1.3984  0.0606
19806TIP3   OH280832   1.249   5.965   3.982  0.5904 -0.0577 -0.1696
19806TIP3    H180833   1.273   6.033   4.045  0.1399  1.0330 -1.1326
19806TIP3    H280834   1.213   5.894   4.036  1.8665  0.0857  0.9243
19807TIP3   OH280835   5.431   2.244   3.697 -0.1907 -0.3698 -0.6993
19807TIP3    H180836   5.493   2.242   3.623 -2.4461  0.1535 -2.7315
19807TIP3    H280837   5.374   2.318   3.678  0.9678  1.7604  3.2624
19808TIP3   OH280838   1.826   2.222  13.705  0.2844 -0.0368  0.4546
19808TIP3    H180839   1.830   2.254  13.615 -2.6584  0.1018  0.2824
19808TIP3    H280840   1.820   2.127  13.697 -1.4178  0.0473  0.3653
19809TIP3   OH280841   3.908   3.146   2.680 -0.3848  0.4851 -0.2837
19809TIP3    H180842   3.857   3.226   2.667  0.2245  0.7733 -0.9902
19809TIP3    H280843   3.967   3.143   2.605 -0.2342 -0.5085 -0.1398
19810TIP3   OH280844   1.697   5.630  13.931  0.0017  0.7527  0.4555
19810TIP3    H180845   1.749   5.551  13.945 -0.9179 -0.2085 -1.3118
19810TIP3    H280846   1.762   5.701  13.930  1.4104 -0.4528 -2.1370
19811TIP3   OH280847   2.157   4.011   4.077  0.8975 -0.5553  0.6051
19811TIP3    H180848   2.090   4.074   4.050  1.8382 -0.0440 -0.6308
19811TIP3    H280849   2.128   3.928   4.038 -0.2243 -0.8949  2.0488
19812TIP3   OH280850   0.491   1.819  16.499  0.6599  1.2615  0.2208
19812TIP3    H180851   0.531   1.904  16.518  1.8626  0.5280  1.0649
19812TIP3    H280852   0.553   1.776  16.441 -0.2389  1.1824 -0.7062
19813TIP3   OH280853   0.805   1.813   0.610 -0.4006  0.3110  0.2998
19813TIP3    H180854   0.791   1.882   0.675  1.2076 -0.2807  1.3631
19813TIP3    H280855   0.820   1.859   0.528  1.9515  1.3809  1.2366
19814TIP3   OH280856   2.133   3.395  15.639 -0.2652  0.8373  0.1257
19814TIP3    H180857   2.041   3.406  15.661 -0.1143  1.8500  0.3002
19814TIP3    H280858   2.140   3.304  15.609 -2.0826  1.6826 -3.4246
19815TIP3   OH280859   0.810   5.980   4.928  0.1807 -0.5417 -0.5311
19815TIP3    H180860   0.720   5.967   4.956 -0.0510 -1.3887 -1.5907
19815TIP3    H280861   0.826   6.074   4.941  0.0310 -0.7906  2.1018
19816TIP3   OH280862   4.223   0.368   2.673  0.2324  0.1199  0.5162
19816TIP3    H180863   4.149   0.380   2.732 -0.7081  0.1452 -0.6221
19816TIP3    H280864   4.220   0.444   2.615  1.1344  0.0970  0.4228
19817TIP3   OH280865   3.730   5.643  16.132  0.3520  0.1132  0.0604
19817TIP3    H180866   3.760   5.733  16.142 -1.7259  0.8395  0.3043
19817TIP3    H280867   3.810   5.591  16.124  1.5840  2.1369 -1.5821
19818TIP3   OH280868   6.557   2.549   3.586  0.2732 -0.4003  0.3894
19818TIP3    H180869   6.489   2.499   3.542 -0.6336  0.6013  0.5951
19818TIP3    H280870   6.577   2.498   3.665  1.2432 -1.7292 -0.6740
19819TIP3   OH280871   2.030   4.670  13.499 -0.1178  0.3366 -0.3819
19819TIP3    H180872   2.000   4.752  13.459  0.5171  0.7677  0.0133
19819TIP3    H280873   1.974   4.603  13.460 -0.3158  0.8947 -1.0827
19820TIP3   OH280874   2.329   0.642   0.608 -0.0131 -0.1348 -0.3117
19820TIP3    H180875   2.364   0.558   0.640 -1.7100 -0.3489  1.1081
19820TIP3    H280876   2.287   0.681   0.684 -1.8275  0.6367 -1.6517
19821TIP3   OH280877   0.793   5.679  16.888 -0.3637 -0.9438 -0.3151
19821TIP3    H180878   0.724   5.721  16.940  0.6253  0.1872  0.1130
19821TIP3    H280879   0.780   5.711  16.799 -0.6404 -1.0642 -0.3187
19822TIP3   OH280880   0.918   4.625  16.935  0.2492  0.0793  0.1650
19822TIP3    H180881   0.844   4.587  16.889  0.8336  0.3271 -1.0065
19822TIP3    H280882   0.896   4.615  17.028 -0.0923 -2.1557 -0.0936
19823TIP3   OH280883   3.066   3.940   2.456  0.3139  0.0074  0.3837
19823TIP3    H180884   3.012   3.865   2.433  0.0508 -0.0905  1.3016
19823TIP3    H280885   3.074   3.990   2.374 -2.5693  0.9386  0.5896
19824TIP3   OH280886   4.280   5.445  15.754 -0.3622 -0.2024 -0.5414
19824TIP3    H180887   4.307   5.438  15.662 -0.1874  0.9715 -0.5952
19824TIP3    H280888   4.189   5.414  15.754 -0.6201  0.5177 -1.2549
19825TIP3   OH280889   0.347   4.410  15.002  0.4233  0.5675  0.1305
19825TIP3    H180890   0.344   4.410  14.906  2.3490  0.4170  0.0225
19825TIP3    H280891   0.312   4.325  15.027 -1.2277  1.0681 -0.3411
19826TIP3   OH280892   3.318   2.922   3.323  0.5683  0.3677 -0.2009
19826TIP3    H180893   3.312   2.958   3.411  1.4948 -0.4451  0.2129
19826TIP3    H280894   3.259   2.977   3.271 -0.1269  0.7528  0.9469
19827TIP3   OH280895   2.324   5.028  16.255  0.0906  0.4030 -0.5287
19827TIP3    H180896   2.252   4.973  16.286  0.4710  0.2566  0.1052
19827TIP3    H280897   2.309   5.035  16.161 -0.0418 -0.6664 -0.5995
19828TIP3   OH280898   5.643   5.753  13.238 -0.2336 -0.9225 -0.3598
19828TIP3    H180899   5.598   5.775  13.320 -1.2638 -0.3350 -1.0586
19828TIP3    H280900   5.603   5.671  13.210 -0.2346 -0.8717 -0.5099
19829TIP3   OH280901   5.701   2.649  14.484 -0.0148 -0.2377 -0.1366
19829TIP3    H180902   5.617   2.620  14.518  0.6537 -0.8420  1.0810
19829TIP3    H280903   5.739   2.571  14.444  0.8704 -0.5391  1.2349
19830TIP3   OH280904   5.910   0.467  15.520 -0.2333 -0.2347  0.0478
19830TIP3    H180905   5.838   0.421  15.564  0.3555 -0.8548  0.3869
19830TIP3    H280906   5.966   0.498  15.591 -1.2670  2.2037 -0.0920
19831TIP3   OH280907   6.556   1.068   4.352 -0.3158 -0.3501  0.0779
19831TIP3    H180908   6.614   1.135   4.316 -0.4207 -0.4961 -0.3678
19831TIP3    H280909   6.481   1.117   4.386  0.1667 -0.1410  0.8628
19832TIP3   OH280910   4.586   5.939   3.503 -0.2287 -0.4709 -0.4760
19832TIP3    H180911   4.534   5.902   3.432 -0.0765 -2.4195  0.3606
19832TIP3    H280912   4.529   5.934   3.580  0.9804 -2.3050  0.3756
19833TIP3   OH280913   6.450   6.519  15.706 -0.2412 -0.2712  0.4629
19833TIP3    H180914   6.374   6.533  15.762 -2.7667 -1.2213 -2.4389
19833TIP3    H280915   6.417   6.531  15.617  2.3466 -3.3311 -1.1131
19834TIP3   OH280916   3.133   6.157   0.345  0.5674 -0.2610  0.5310
19834TIP3    H180917   3.095   6.084   0.393  0.3713 -1.1727 -0.9335
19834TIP3    H280918   3.225   6.132   0.331  0.9061  0.4882  1.3427
19835TIP3   OH280919   1.102   4.948  13.104  0.0124 -0.3530  0.1959
19835TIP3    H180920   1.132   4.945  13.194 -0.2874 -0.0906  0.3074
19835TIP3    H280921   1.008   4.965  13.111 -0.2498 -1.5567 -0.1253
19836TIP3   OH280922   4.696   1.459   1.659  0.1107 -0.4777 -0.2555
19836TIP3    H180923   4.726   1.433   1.746 -0.0962 -2.5300 -0.7331
19836TIP3    H280924   4.776   1.476   1.610  0.2611 -0.1373  0.1060
19837TIP3   OH280925   1.710   5.169  11.623  0.1985  0.3643 -0.3303
19837TIP3    H180926   1.748   5.234  11.565  2.0557 -0.5528 -0.2408
19837TIP3    H280927   1.770   5.094  11.617 -1.1924 -0.8715  0.4827
19838TIP3   OH280928   2.692   3.070   4.602 -0.0403  0.7266  0.3286
19838TIP3    H180929   2.612   3.050   4.650  0.0671  1.1076  0.6776
19838TIP3    H280930   2.734   3.139   4.654  0.6590  0.3191  0.3078
19839TIP3   OH280931   0.699   6.714  14.023 -0.0106  0.1605 -0.4068
19839TIP3    H180932   0.659   6.801  14.031 -1.3417 -0.2616 -1.9898
19839TIP3    H280933   0.769   6.726  13.960  1.3361  0.5340  1.0976
19840TIP3   OH280934   4.615   6.346   3.877  0.3517 -0.8323 -0.2505
19840TIP3    H180935   4.579   6.276   3.932  1.3075 -0.8776  0.3423
19840TIP3    H280936   4.548   6.415   3.879  0.5518 -0.6345  1.3900
19841TIP3   OH280937   6.020   6.502  15.011  0.2295 -0.4911  0.3376
19841TIP3    H180938   5.951   6.455  15.056 -0.9249  0.3878 -0.4649
19841TIP3    H280939   5.991   6.593  15.009  0.1638 -0.4855 -2.2264
19842TIP3   OH280940   0.287   0.975   4.335 -0.5980  0.6007  0.3348
19842TIP3    H180941   0.196   0.971   4.363 -0.6001 -0.8204  0.1945
19842TIP3    H280942   0.282   0.979   4.239 -0.5393 -1.8943  0.1552
19843TIP3   OH280943   3.085   2.723   0.492  0.1059 -0.2142  0.2497
19843TIP3    H180944   3.055   2.632   0.498 -0.6644  0.0750  1.1637
19843TIP3    H280945   3.004   2.773   0.478  0.4423  0.3803  0.4177
19844TIP3   OH280946   0.012   6.444  16.604 -0.5596  0.9658  0.5493
19844TIP3    H180947   0.059   6.421  16.684  0.4981 -0.3273 -0.3909
19844TIP3    H280948  -0.079   6.456  16.632 -0.3859 -0.3464  1.8168
19845TIP3   OH280949   6.045   6.387   5.876 -0.0662 -0.2160 -0.3449
19845TIP3    H180950   6.016   6.444   5.947  0.6187  2.0488 -1.7642
19845TIP3    H280951   6.043   6.443   5.798 -0.9971 -2.6535 -2.1875
19846TIP3   OH280952   1.661   3.642   1.001 -0.1864  0.4440 -0.0920
19846TIP3    H180953   1.744   3.625   0.956 -0.7190  1.1961 -1.4150
19846TIP3    H280954   1.679   3.621   1.092  1.8928  1.9508 -0.0779
19847TIP3   OH280955   1.770   0.491  13.133 -0.3362  0.0558  0.1486
19847TIP3    H180956   1.865   0.476  13.130 -0.3983 -0.2870 -0.2505
19847TIP3    H280957   1.748   0.520  13.045 -0.9718 -2.2628 -0.5293
19848TIP3   OH280958   0.578   0.715   5.519 -0.2510  0.1087 -0.3812
19848TIP3    H180959   0.549   0.675   5.601  0.5816  0.7129  0.2294
19848TIP3    H280960   0.673   0.703   5.519 -0.0762  1.3808 -0.5559
19849TIP3   OH280961   3.110   5.739   2.394 -0.3987 -0.4743 -0.6235
19849TIP3    H180962   3.075   5.655   2.424  1.0759 -0.7208  0.4794
19849TIP3    H280963   3.156   5.718   2.312 -0.2219 -0.7105 -0.4644
19850TIP3   OH280964   1.754   3.440  16.622  0.3014  0.0184  0.1008
19850TIP3    H180965   1.748   3.365  16.681  2.3242 -0.1466  0.1825
19850TIP3    H280966   1.839   3.430  16.580  0.0334  1.5617 -0.8816
19851TIP3   OH280967   2.725   2.401   5.855 -0.3718 -0.1574 -0.3796
19851TIP3    H180968   2.763   2.374   5.771  1.4078  2.8907 -0.7352
19851TIP3    H280969   2.775   2.353   5.921  0.1781 -0.5011 -1.0282
19852TIP3   OH280970   1.550   5.981  13.950  0.2567  0.3704 -0.3427
19852TIP3    H180971   1.504   5.912  13.902 -0.4028  0.7661 -0.3078
19852TIP3    H280972   1.641   5.973  13.924 -0.0636  0.4958 -1.5937
19853TIP3   OH280973   4.728   4.837  12.612 -0.2096  0.7959  0.3499
19853TIP3    H180974   4.664   4.896  12.651 -0.1211  0.6564  0.7124
19853TIP3    H280975   4.676   4.763  12.580 -0.3140  1.0377 -0.0559
19854TIP3   OH280976   0.706   5.533  11.261  0.2604  0.2921 -0.5435
19854TIP3    H180977   0.775   5.477  11.228 -0.9229 -1.0387 -0.8712
19854TIP3    H280978   0.635   5.473  11.286  0.5546  1.2411  3.3314
19855TIP3   OH280979   0.592   6.343   2.928  0.1613 -0.7117  0.6698
19855TIP3    H180980   0.596   6.307   3.016 -0.4081 -1.0839  0.5507
19855TIP3    H280981   0.674   6.392   2.918 -0.5577  0.9287  2.0824
19856TIP3   OH280982   2.271   0.823  14.342  0.0886  0.0529  0.5886
19856TIP3    H180983   2.291   0.886  14.411  1.6122 -0.8579  1.0193
19856TIP3    H280984   2.194   0.776  14.376 -1.0509  1.6039  0.2693
19857TIP3   OH280985   5.283   0.116  14.645  0.2005 -0.9350  0.0759
19857TIP3    H180986   5.209   0.151  14.595 -1.0241 -1.0168  1.7298
19857TIP3    H280987   5.342   0.191  14.656  0.2233 -0.7887 -1.0067
19858TIP3   OH280988   4.810   0.247   6.468  0.2028 -0.0800 -0.4676
19858TIP3    H180989   4.718   0.259   6.444  0.5612  0.8832 -1.4612
19858TIP3    H280990   4.847   0.192   6.399  0.4546 -0.1678 -0.2662
19859TIP3   OH280991   4.117   6.067   4.107  0.0307 -0.3517 -0.3444
19859TIP3    H180992   4.133   5.981   4.146  1.1633  0.8075  1.9395
19859TIP3    H280993   4.052   6.051   4.039  1.3513 -3.2458 -1.0625
19860TIP3   OH280994   4.946   0.445  12.814  0.1701 -0.1870 -0.0643
19860TIP3    H180995   4.938   0.400  12.898  0.7810 -0.4472 -0.1382
19860TIP3    H280996   5.029   0.413  12.778 -0.1873 -0.2205 -0.8555
19861TIP3   OH280997   5.566   4.468  15.476  0.0410 -0.6667 -0.0536
19861TIP3    H180998   5.534   4.556  15.494 -0.6833 -0.6203 -1.4182
19861TIP3    H280999   5.598   4.436  15.560 -3.0706 -0.4805  1.3393
19862TIP3   OH281000   3.591   1.656   1.805  0.2720 -0.4415  0.4688
19862TIP3    H181001   3.659   1.710   1.846  0.7432 -1.7252  1.4711
19862TIP3    H281002   3.563   1.597   1.876  0.3950 -2.0770 -0.7888
19863TIP3   OH281003   4.686   3.755  15.851  0.3134  0.4800 -0.5076
19863TIP3    H181004   4.672   3.849  15.849  0.3112  0.4761 -0.6420
19863TIP3    H281005   4.757   3.742  15.914  1.0642  0.6573 -1.3071
19864TIP3   OH281006   4.748   0.134   3.795 -0.0415  0.0094  0.3496
19864TIP3    H181007   4.782   0.199   3.733  0.7121  0.8928  1.6347
19864TIP3    H281008   4.767   0.050   3.754  1.0866  0.5566 -0.3078
19865TIP3   OH281009   1.371   2.972  15.362 -0.2589  0.4181 -0.1219
19865TIP3    H181010   1.374   3.038  15.293 -0.5650 -1.7253 -2.2929
19865TIP3    H281011   1.454   2.925  15.354  0.1293  0.7216  1.6550
19866TIP3   OH281012   5.298   1.647  11.375  0.1563  0.1595  0.1621
19866TIP3    H181013   5.331   1.733  11.402  2.5296 -0.1911 -1.3091
19866TIP3    H281014   5.279   1.656  11.282 -0.7301 -0.5932  0.2558
19867TIP3   OH281015   0.864   5.910   3.001  0.4137 -0.0355  0.0966
19867TIP3    H181016   0.945   5.868   3.031  0.4266  0.0687  0.2069
19867TIP3    H281017   0.840   5.862   2.922  1.0457  0.4877 -0.4214
19868TIP3   OH281018   5.598   3.627  13.526  0.1471 -0.6286  0.1483
19868TIP3    H181019   5.554   3.558  13.576  1.5480 -2.2380 -0.7480
19868TIP3    H281020   5.656   3.669  13.590  0.3445 -1.2459  0.3784
19869TIP3   OH281021   2.771   3.934   3.801 -0.4830  0.0049 -0.1146
19869TIP3    H181022   2.821   3.913   3.722 -2.1806 -1.1974 -0.9374
19869TIP3    H281023   2.691   3.974   3.768 -0.2038  1.7364  1.1627
19870TIP3   OH281024   6.642   2.592   2.128  0.7012  0.1017  0.2675
19870TIP3    H181025   6.654   2.680   2.166 -0.4180  0.0047  0.8872
19870TIP3    H281026   6.720   2.544   2.156 -0.2760 -0.1022  2.9422
19871TIP3   OH281027   6.178   1.827   3.549 -0.1815  0.9305 -0.0877
19871TIP3    H181028   6.209   1.794   3.633 -2.4937  0.5131  0.6774
19871TIP3    H281029   6.195   1.756   3.487  0.7574  0.9056  0.1873
19872TIP3   OH281030   2.091   6.539  11.958  0.3161 -0.3616 -0.5105
19872TIP3    H181031   2.129   6.465  11.911  2.4805  0.4745 -0.2217
19872TIP3    H281032   2.047   6.590  11.890 -0.6148 -1.5352 -0.8197
19873TIP3   OH281033   6.146   5.970   2.670 -0.0856 -0.5003  0.1500
19873TIP3    H181034   6.222   5.917   2.645  0.6284 -0.0354  1.2771
19873TIP3    H281035   6.074   5.932   2.620  0.4487 -2.4161  0.7376
19874TIP3   OH281036   5.344   3.908  12.915  0.2761  0.3478  0.0249
19874TIP3    H181037   5.379   3.834  12.865 -0.2021  0.2391 -0.1633
19874TIP3    H281038   5.362   3.886  13.006  0.9388  0.4308 -0.0789
19875TIP3   OH281039   2.349   2.048   4.373 -0.2965 -0.2911 -0.0086
19875TIP3    H181040   2.418   2.106   4.340  0.5898 -1.1451  0.2924
19875TIP3    H281041   2.268   2.098   4.362  0.5467  1.4925  1.3280
19876TIP3   OH281042   5.606   1.825  11.928 -0.0739 -0.2233  0.3330
19876TIP3    H181043   5.604   1.743  11.878 -2.4394  0.1154 -0.2264
19876TIP3    H281044   5.694   1.827  11.966  0.4080 -2.4918 -0.4875
19877TIP3   OH281045   2.650   4.253  15.271 -0.0204 -0.8180 -0.6436
19877TIP3    H181046   2.739   4.285  15.256 -0.4507  0.3033 -0.8381
19877TIP3    H281047   2.646   4.236  15.365 -0.1288  0.8150 -0.3236
19878TIP3   OH281048   5.008   6.244  16.937 -0.2005 -0.0880  0.3586
19878TIP3    H181049   5.064   6.321  16.951  0.5283  0.1150 -2.9370
19878TIP3    H281050   5.057   6.172  16.977  1.2382  0.5059 -0.2600
19879TIP3   OH281051   5.488   6.082  11.518 -0.1739 -0.1796  0.6539
19879TIP3    H181052   5.528   6.137  11.451  1.1432 -0.2200  1.3590
19879TIP3    H281053   5.457   6.143  11.585  1.5064 -0.2308  1.5533
19880TIP3   OH281054   1.357   3.097  12.815  0.1980  0.5552 -0.0868
19880TIP3    H181055   1.296   3.116  12.744 -0.0273 -0.2773 -0.1241
19880TIP3    H281056   1.409   3.023  12.784 -1.4651 -1.3862  1.4829
19881TIP3   OH281057   6.016   4.270   2.635  0.0471 -0.4130 -0.3459
19881TIP3    H181058   5.991   4.183   2.602 -0.2499  0.3977 -2.3342
19881TIP3    H281059   6.109   4.277   2.616 -0.1358  0.0762 -1.0860
19882TIP3   OH281060   5.029   1.068  15.174  0.2367  0.1558 -0.2602
19882TIP3    H181061   4.982   1.020  15.243 -0.0258  0.1604 -0.4350
19882TIP3    H281062   5.112   1.020  15.164  1.8544  2.1045  2.4537
19883TIP3   OH281063   5.124   5.761  15.125  0.1026 -0.2082 -0.0623
19883TIP3    H181064   5.039   5.720  15.108  0.7233 -1.0591 -1.3081
19883TIP3    H281065   5.102   5.843  15.169 -1.3438 -0.5411 -0.0897
19884TIP3   OH281066   4.451   6.028   0.201  0.9487 -0.1100 -0.3872
19884TIP3    H181067   4.443   6.034   0.296  0.2268  0.0976 -0.4548
19884TIP3    H281068   4.491   5.942   0.185  0.7517 -0.2931  0.0884
19885TIP3   OH281069   2.694   0.250   0.587  0.7412 -0.5638 -0.0719
19885TIP3    H181070   2.701   0.176   0.527  1.1238 -0.2833 -0.3771
19885TIP3    H281071   2.759   0.313   0.556 -0.5812  0.5475 -0.7410
19886TIP3   OH281072   0.684   6.292  10.365 -0.3155 -0.3549 -0.0583
19886TIP3    H181073   0.663   6.349  10.439 -0.5977  1.2176 -1.3126
19886TIP3    H281074   0.602   6.248  10.345 -1.4486  2.3870 -2.0486
19887TIP3   OH281075   6.630   5.502   2.575 -0.0062  0.2054 -0.0477
19887TIP3    H181076   6.637   5.491   2.670  1.6372 -0.4551 -0.2178
19887TIP3    H281077   6.572   5.430   2.547  0.4535 -0.3265  0.3329
19888TIP3   OH281078   3.127   5.412  14.549  0.4018  0.2189  0.0385
19888TIP3    H181079   3.083   5.497  14.535  0.0345  0.4360  2.2372
19888TIP3    H281080   3.056   5.348  14.547  0.4180  0.1918  0.3990
19889TIP3   OH281081   0.142   2.718   3.999 -0.3368 -0.3781 -0.3655
19889TIP3    H181082   0.223   2.695   4.045  0.1391 -0.0971 -1.0520
19889TIP3    H281083   0.099   2.782   4.056 -0.1407 -0.6116  0.0544
19890TIP3   OH281084   3.285   1.485   2.320  0.1149 -0.1485  0.4164
19890TIP3    H181085   3.293   1.555   2.384 -1.3270  0.5187 -0.0656
19890TIP3    H281086   3.260   1.407   2.371  1.1552 -0.1773  0.8893
19891TIP3   OH281087   2.250   0.249   3.161  0.0538 -0.3861 -0.2912
19891TIP3    H181088   2.278   0.157   3.159  0.5601 -0.2205 -0.8302
19891TIP3    H281089   2.326   0.298   3.132  0.3878  0.3775  1.7211
19892TIP3   OH281090   0.118   2.583  14.254 -0.1774  0.2882 -0.3461
19892TIP3    H181091   0.123   2.676  14.233 -0.2622 -0.2668 -3.3749
19892TIP3    H281092   0.108   2.540  14.169 -2.9730 -2.3318  1.1005
19893TIP3   OH281093   1.946   4.407   5.749 -0.3308 -0.2145  0.0963
19893TIP3    H181094   1.957   4.466   5.674 -1.1108  0.6355  0.6405
19893TIP3    H281095   1.948   4.319   5.710 -2.2504  0.2250 -1.1591
19894TIP3   OH281096   6.149   5.890  13.509 -0.2287 -0.3017 -0.1661
19894TIP3    H181097   6.111   5.852  13.588 -0.6911  1.6887  0.6444
19894TIP3    H281098   6.203   5.962  13.541  0.7594 -0.3699 -1.5943
19895TIP3   OH281099   6.516   3.450   1.834  0.0840 -0.2320  0.1099
19895TIP3    H181100   6.436   3.423   1.788  0.8485 -0.1738 -1.2716
19895TIP3    H281101   6.582   3.387   1.807  0.4979 -0.3817  1.3842
19896TIP3   OH281102   3.296   3.130   1.266 -0.0188  0.2371 -0.7084
19896TIP3    H181103   3.372   3.174   1.304 -1.1798  0.3119  1.7472
19896TIP3    H281104   3.222   3.164   1.317 -1.6129 -0.4142 -2.4875
19897TIP3   OH281105   5.725   0.173  14.681 -0.1774 -0.2695  1.0291
19897TIP3    H181106   5.777   0.233  14.627 -1.5124  0.5248  0.5806
19897TIP3    H281107   5.701   0.224  14.758  1.2358 -1.2250  2.1581
19898TIP3   OH281108   4.309   0.929   3.693  0.0118 -0.1383  0.3915
19898TIP3    H181109   4.335   0.844   3.730 -1.3506 -1.2248 -1.0353
19898TIP3    H281110   4.378   0.949   3.630 -0.5968 -1.1600 -0.6447
19899TIP3   OH281111   5.269   4.680  15.443 -0.3394  0.3582  0.4003
19899TIP3    H181112   5.261   4.594  15.485 -1.6244 -0.1794 -0.8799
19899TIP3    H281113   5.347   4.673  15.388 -0.0945  0.2266  0.7569
19900TIP3   OH281114   4.829   2.464  11.636 -0.0887  0.2264  0.3049
19900TIP3    H181115   4.924   2.453  11.631 -0.3730 -2.4443 -1.4846
19900TIP3    H281116   4.803   2.497  11.550 -0.6681  3.0699  1.4688
19901TIP3   OH281117   2.332   3.747   5.687  0.3105 -0.1310  0.1778
19901TIP3    H181118   2.329   3.674   5.750 -1.2860  0.8570  1.3337
19901TIP3    H281119   2.312   3.824   5.740 -0.8743  0.7782 -1.4930
19902TIP3   OH281120   4.292   0.158  16.088 -0.2329  1.0600 -0.0972
19902TIP3    H181121   4.281   0.237  16.140  1.5025  1.0208  0.4036
19902TIP3    H281122   4.210   0.149  16.039 -1.1451  2.1642  1.1679
19903TIP3   OH281123   5.161   6.412  13.146 -0.9358  0.3087 -0.4262
19903TIP3    H181124   5.152   6.472  13.220 -2.3267 -0.8778  0.4452
19903TIP3    H281125   5.216   6.341  13.179 -2.6781 -0.9189  0.0236
19904TIP3   OH281126   4.088   6.624   0.570 -0.1643  0.2425  0.1121
19904TIP3    H181127   4.149   6.635   0.496 -0.5907  2.2954  0.0099
19904TIP3    H281128   4.067   6.714   0.597 -1.5537 -0.4571  1.4775
19905TIP3   OH281129   2.864   3.640   4.824 -0.3300  0.1652  0.4973
19905TIP3    H181130   2.893   3.550   4.836  0.3461 -0.0335 -1.9948
19905TIP3    H281131   2.903   3.667   4.741 -0.0527  2.9665  1.4123
19906TIP3   OH281132   1.061   6.505  14.077  0.0267 -0.2500 -0.1205
19906TIP3    H181133   1.088   6.469  14.162 -0.7065 -4.0523 -1.3205
19906TIP3    H281134   1.144   6.524  14.033  0.4206  2.1505  1.4826
19907TIP3   OH281135   1.515   0.251   4.144  0.1807  0.3435  0.0653
19907TIP3    H181136   1.571   0.278   4.071  3.1553 -0.1961  1.9680
19907TIP3    H281137   1.556   0.172   4.178 -2.0257 -0.3274  1.3912
19908TIP3   OH281138   4.201   2.838   5.181 -0.1902  0.0982  0.5132
19908TIP3    H181139   4.220   2.803   5.267  2.4860 -0.7780 -0.3234
19908TIP3    H281140   4.227   2.769   5.120 -2.3095  0.5516 -1.0334
19909TIP3   OH281141   2.170   1.518   3.975  0.0279 -0.0207  0.5180
19909TIP3    H181142   2.119   1.500   4.054  0.2012  2.0039  1.1487
19909TIP3    H281143   2.107   1.557   3.914  0.4785  1.0549  0.7272
19910TIP3   OH281144   3.868   2.237   5.780 -0.0432 -0.1194  0.2865
19910TIP3    H181145   3.947   2.193   5.748 -0.8603 -0.5321 -1.2219
19910TIP3    H281146   3.890   2.330   5.779  0.1601 -0.1691 -0.9226
19911TIP3   OH281147   4.493   6.307  15.806 -0.1810 -0.2303 -0.1583
19911TIP3    H181148   4.419   6.367  15.796  0.3453  0.5837  0.7629
19911TIP3    H281149   4.571   6.361  15.795  0.4086 -0.0257  3.6910
19912TIP3   OH281150   5.474   2.904   2.919 -0.3445  0.3268 -0.2272
19912TIP3    H181151   5.569   2.896   2.912 -0.2949  0.9025 -0.2647
19912TIP3    H281152   5.450   2.970   2.854 -0.8249 -0.1245 -0.5177
19913TIP3   OH281153   3.332   4.264  14.261  0.3054 -0.2915 -0.4022
19913TIP3    H181154   3.317   4.182  14.307  1.3711 -0.4445 -0.3060
19913TIP3    H281155   3.347   4.329  14.330 -1.9436  0.3294 -0.4084
19914TIP3   OH281156   1.928   6.145   3.017 -0.3317  0.1995  0.4498
19914TIP3    H181157   1.984   6.080   3.060  0.8893  1.7134  1.2834
19914TIP3    H281158   1.980   6.177   2.944  0.5859  2.6194  2.0457
19915TIP3   OH281159   0.605   1.903   6.061 -0.5106  0.6830  0.4749
19915TIP3    H181160   0.632   1.853   5.984 -0.4691 -1.5402  1.8395
19915TIP3    H281161   0.685   1.949   6.089  0.2244 -0.6809  0.7276
19916TIP3   OH281162   4.216   2.070  12.538 -0.3656 -0.7581  0.8105
19916TIP3    H181163   4.231   2.000  12.602 -1.5190 -0.4588  1.4326
19916TIP3    H281164   4.303   2.107  12.523  0.1778 -1.9516  0.8942
19917TIP3   OH281165   1.189   4.062  15.704 -0.0285  0.1910  0.7476
19917TIP3    H181166   1.254   4.132  15.698 -0.6762  0.7143 -0.6004
19917TIP3    H281167   1.234   3.992  15.751  1.2775  0.8119  0.4788
19918TIP3   OH281168   2.444   5.364   0.255  0.2092  0.7385 -0.1643
19918TIP3    H181169   2.473   5.276   0.278  0.7272  0.3458 -2.1335
19918TIP3    H281170   2.350   5.355   0.238 -0.1578  1.0123  1.5051
19919TIP3   OH281171   1.900   2.955   3.132  0.6375  0.4188  0.4420
19919TIP3    H181172   1.907   3.000   3.048 -1.2934  0.6799  0.3808
19919TIP3    H281173   1.863   3.021   3.191 -0.7020 -0.5847  0.7647
19920TIP3   OH281174   4.300   3.191  13.658 -0.4498 -0.0173 -0.1098
19920TIP3    H181175   4.211   3.157  13.649 -0.6043  0.7140 -1.9218
19920TIP3    H281176   4.355   3.113  13.666 -1.3269 -0.4526  2.4516
19921TIP3   OH281177   1.753   0.866  16.286  0.5654 -0.1357  0.3039
19921TIP3    H181178   1.846   0.844  16.293  0.5350 -0.6223 -0.6206
19921TIP3    H281179   1.709   0.799  16.339  0.7827  0.6151  1.4665
19922TIP3   OH281180   0.459   5.815  10.422 -0.2585 -0.0824 -0.5328
19922TIP3    H181181   0.547   5.778  10.415 -0.6151 -0.7867 -1.4340
19922TIP3    H281182   0.426   5.784  10.506  0.6619  0.9046  0.2211
19923TIP3   OH281183   5.091   6.732   0.588  0.4484 -0.3193  0.1206
19923TIP3    H181184   5.043   6.650   0.604  1.1476 -0.4613  1.7634
19923TIP3    H281185   5.163   6.729   0.651 -0.0553  2.0025  0.8848
19924TIP3   OH281186   1.663   3.997  14.598 -0.2257 -0.0987 -0.0767
19924TIP3    H181187   1.606   3.977  14.524  0.1300 -0.7893 -0.1741
19924TIP3    H281188   1.612   4.057  14.652 -1.2321 -1.0496  0.0765
19925TIP3   OH281189   3.424   1.481   2.011  0.8087  0.2914 -0.0445
19925TIP3    H181190   3.390   1.419   1.946  0.5863 -0.6272  0.9170
19925TIP3    H281191   3.346   1.525   2.044  0.7595 -0.3135  0.6600
19926TIP3   OH281192   4.140   0.317  12.755  0.3871 -0.6655  0.1917
19926TIP3    H181193   4.178   0.232  12.776  0.9651  0.0765  2.4955
19926TIP3    H281194   4.140   0.364  12.839 -3.1477  0.3916 -0.2536
19927TIP3   OH281195   6.114   4.359  14.663 -0.1691  0.1064 -0.2695
19927TIP3    H181196   6.133   4.443  14.704 -0.2002 -0.1502  0.2864
19927TIP3    H281197   6.197   4.311  14.667 -0.2665 -0.0535 -0.1887
19928TIP3   OH281198   4.037   1.705  17.238  0.0481  0.3142  0.0050
19928TIP3    H181199   4.056   1.747  17.154  2.4143 -0.3143  0.1558
19928TIP3    H281200   4.003   1.619  17.215 -0.9686  0.7661 -0.2733
19929TIP3   OH281201   4.463   4.325  15.802  0.3204  0.0999 -0.3198
19929TIP3    H181202   4.484   4.275  15.881 -1.1302 -0.6790 -0.3921
19929TIP3    H281203   4.420   4.404  15.834  1.1189  0.5315 -0.2813
19930TIP3   OH281204   4.212   4.424   1.719  0.3789  0.3904  0.3316
19930TIP3    H181205   4.125   4.444   1.687  0.7626  0.1600 -0.9213
19930TIP3    H281206   4.241   4.350   1.665  2.2851  2.0066 -0.9960
19931TIP3   OH281207   0.920   1.373   4.020  0.1639  0.2795  0.3552
19931TIP3    H181208   1.005   1.415   4.016  1.0687 -1.4682  0.4217
19931TIP3    H281209   0.906   1.355   4.113  0.7574 -1.3896  0.1527
19932TIP3   OH281210   5.279   6.077  17.049  0.2134 -0.1183  0.3334
19932TIP3    H181211   5.344   6.146  17.061 -0.1471  0.1677  0.7144
19932TIP3    H281212   5.281   6.028  17.131  1.9780 -1.9140 -0.6990
19933TIP3   OH281213   3.613   1.042  14.395  0.0491  0.0866 -0.3815
19933TIP3    H181214   3.586   1.024  14.485 -1.5849  0.5002 -0.7511
19933TIP3    H281215   3.649   0.959  14.364  1.4854  0.1801  0.9098
19934TIP3   OH281216   4.430   2.659  13.557  0.1112  0.3834 -0.1361
19934TIP3    H181217   4.440   2.605  13.479 -1.1716  0.6616 -0.5194
19934TIP3    H281218   4.468   2.743  13.533  0.3826  0.2430 -0.2026
19935TIP3   OH281219   4.217   0.729   1.952 -0.1965  0.8349 -0.1849
19935TIP3    H181220   4.281   0.694   1.891 -0.0615 -0.4406  0.6632
19935TIP3    H281221   4.268   0.782   2.013  0.3403 -1.4022  1.4133
19936TIP3   OH281222   5.164   0.014   1.814  0.1025  0.0603 -0.5047
19936TIP3    H181223   5.250  -0.017   1.843 -0.2228  0.2268  0.6681
19936TIP3    H281224   5.102  -0.037   1.865 -0.5287 -0.3772 -1.6647
19937TIP3   OH281225   4.144   3.915  16.732 -0.5854 -0.2122  0.0922
19937TIP3    H181226   4.150   3.885  16.641  1.0069  0.5922 -0.1001
19937TIP3    H281227   4.078   3.984  16.731 -0.3190  0.0384 -0.5305
19938TIP3   OH281228   2.523   3.296   5.224 -0.2873  0.3025 -0.4307
19938TIP3    H181229   2.514   3.305   5.319 -0.1719 -1.0075 -0.2842
19938TIP3    H281230   2.436   3.269   5.194 -0.1119 -0.0774 -0.5979
19939TIP3   OH281231   3.704   5.386   6.551  0.0150 -0.0100 -0.3207
19939TIP3    H181232   3.677   5.435   6.629 -0.0231 -2.2099  1.1122
19939TIP3    H281233   3.624   5.380   6.499  0.3502  2.6926 -1.3339
19940TIP3   OH281234   5.683   2.587   4.216  0.5642  0.0439 -0.3519
19940TIP3    H181235   5.677   2.510   4.159 -1.0777  1.5589 -2.4071
19940TIP3    H281236   5.614   2.574   4.281  1.9217 -1.3201  0.8949
19941TIP3   OH281237   4.565   2.454   3.650 -0.4092 -0.4067  0.5353
19941TIP3    H181238   4.479   2.416   3.633 -0.2483 -0.5770  0.0763
19941TIP3    H281239   4.547   2.535   3.698 -0.8421 -0.3145  0.2266
19942TIP3   OH281240   2.518   1.655   2.494 -0.3153 -0.0621 -0.1177
19942TIP3    H181241   2.436   1.641   2.542 -0.3824 -0.4058 -0.3294
19942TIP3    H281242   2.572   1.707   2.553 -0.8344  0.4952 -0.1303
19943TIP3   OH281243   4.914   5.415   5.699  0.1225  0.3514 -0.2398
19943TIP3    H181244   4.972   5.371   5.636 -1.2422  0.8700 -1.9715
19943TIP3    H281245   4.857   5.344   5.731 -1.0711  0.4792 -1.8743
19944TIP3   OH281246   2.616   2.411  11.295  0.3565 -0.1172  0.1225
19944TIP3    H181247   2.531   2.394  11.336  0.0566  0.0672 -0.4127
19944TIP3    H281248   2.594   2.435  11.205  0.8902  1.2027  0.3273
19945TIP3   OH281249   2.939   6.407  15.291  0.3217 -0.0406  0.5725
19945TIP3    H181250   2.881   6.466  15.243 -1.2078 -1.7885  0.1688
19945TIP3    H281251   2.889   6.384  15.370  1.8342  0.9358  1.8658
19946TIP3   OH281252   2.337   1.265  17.044  0.5852 -0.6108 -0.2481
19946TIP3    H181253   2.355   1.201  16.976 -0.2758 -2.1320  0.8947
19946TIP3    H281254   2.389   1.235  17.119  0.1402  0.0048  0.3221
19947TIP3   OH281255   0.275   5.672  10.978  0.4634  0.3990 -0.1878
19947TIP3    H181256   0.187   5.641  10.956  0.3981  0.0520  0.5390
19947TIP3    H281257   0.278   5.669  11.073  1.1917  0.6152 -0.2016
19948TIP3   OH281258   4.877   5.582   1.547  0.4783  0.1245  0.3256
19948TIP3    H181259   4.889   5.487   1.542 -0.9633 -0.0508 -0.1412
19948TIP3    H281260   4.796   5.594   1.596  0.3288  1.1105 -0.1378
19949TIP3   OH281261   1.067   0.485   2.336  1.0825  0.3321  0.6648
19949TIP3    H181262   1.078   0.543   2.261  0.7849  2.3313  2.0829
19949TIP3    H281263   0.972   0.483   2.351  1.0671 -0.7457  0.4868
19950TIP3   OH281264   3.968   0.590   0.139 -0.1637  0.7084  0.3899
19950TIP3    H181265   3.914   0.512   0.154 -0.6309  0.5113 -2.0017
19950TIP3    H281266   3.936   0.654   0.204 -2.2318  0.0876  0.0553
19951TIP3   OH281267   0.039   0.840  12.584 -0.1508 -0.4117 -0.4053
19951TIP3    H181268   0.128   0.844  12.548  0.6408  0.5048  1.4968
19951TIP3    H281269  -0.014   0.891  12.522  0.5682 -1.2255 -1.7229
19952TIP3   OH281270   0.220   1.316   3.020  0.0628 -0.1096 -0.1962
19952TIP3    H181271   0.233   1.258   2.945 -0.4984 -2.7158  1.5898
19952TIP3    H281272   0.126   1.332   3.022  0.1440  0.4170 -0.3357
19953TIP3   OH281273   5.847   3.728  16.037 -0.2480  0.4104 -0.8263
19953TIP3    H181274   5.771   3.779  16.008 -2.6989 -1.8844  1.0910
19953TIP3    H281275   5.874   3.770  16.119 -1.4621 -0.5170  0.0879
19954CLA    CLA81276   0.147   2.089   4.992  0.1469  0.2263  0.0323
19955LIG     O181277   3.188   3.033  16.330 -0.1292  0.1418 -0.1203
19955LIG     O281278   3.373   3.182  16.573 -0.5073 -0.2350  0.0267
19955LIG     O381279   3.666   3.039  16.742 -0.2880 -0.1820 -0.2430
19955LIG     O481280   3.522   3.287  16.709 -0.0293  0.0564  0.1935
19955LIG      N81281   3.255   3.265  16.284 -0.3245  0.6568 -0.4147
19955LIG     C181282   3.232   3.313  16.427 -0.5324  0.3632  0.6226
19955LIG     C281283   3.134   3.283  16.193  0.2305 -0.7240  0.0637
19955LIG     C381284   3.369   3.358  16.239 -0.3748 -0.3566 -0.5888
19955LIG     C481285   3.297   3.117  16.282 -0.0820  0.5926 -0.2591
19955LIG     C581286   3.339   3.316  16.529 -0.0310  0.5215 -0.4575
19955LIG     C681287   3.094   3.427  16.176 -0.2484  0.5314 -0.2945
19955LIG     C781288   3.419   3.318  16.099 -0.0480 -0.7905 -0.1955
19955LIG     C881289   3.532   3.042  16.675  0.7218  0.2091 -0.3394
19955LIG     C981290   3.473   3.185  16.655  0.1265 -0.5777  0.0144
19955LIG    C1081291   3.190   2.898  16.271  0.7389 -0.3736  0.1985
19955LIG    C1181292   3.560   2.967  16.543  0.2274  0.2370  0.2185
19955LIG    C1281293   3.414   2.966  16.763  0.0950 -0.3816 -0.3489
19955LIG    C1381294   3.601   3.048  16.435  0.5808  0.1108  0.0654
19955LIG    C1481295   3.420   2.945  16.903 -0.4968  0.7470  0.5521
19955LIG    C1581296   3.556   2.827  16.526  0.6040  0.8231 -0.3322
19955LIG    C1681297   3.294   2.924  16.697 -0.9260  0.3814  0.3030
19955LIG    C1781298   3.627   2.982  16.307  0.4027 -0.2401 -0.1638
19955LIG    C1881299   3.317   2.885  16.979 -0.6104  0.5347  0.3409
19955LIG    C1981300   3.570   2.764  16.400 -0.3225 -0.5193 -0.8427
19955LIG    C2081301   3.191   2.867  16.773 -0.4070  0.1014  0.4693
19955LIG    C2181302   3.612   2.843  16.290 -0.4313  0.1895 -0.2551
19955LIG    C2281303   3.205   2.835  16.904  0.5237 -0.3709 -0.2369
19955LIG     H181304   3.148   3.256  16.464 -1.8142  0.5342 -1.8194
19955LIG     H281305   3.189   3.411  16.435 -0.7742  0.2969  0.1683
19955LIG     H381306   3.049   3.226  16.225  1.6025 -0.4183  5.0245
19955LIG     H481307   3.149   3.237  16.096 -3.0256 -1.4638 -0.2039
19955LIG     H581308   3.450   3.349  16.309 -1.4907 -0.2771  0.7453
19955LIG     H681309   3.341   3.462  16.245  2.8407  0.5984 -0.1422
19955LIG     H781310   3.323   3.072  16.187 -0.1088  2.6754 -1.3094
19955LIG     H881311   3.382   3.102  16.347  1.1840 -1.2201 -2.1986
19955LIG     H981312   3.429   3.369  16.490 -0.2382  0.5883 -0.8381
19955LIG    H1081313   3.301   3.367  16.620  0.4823  1.4542 -0.7618
19955LIG    H1181314   3.169   3.500  16.137 -0.4451  1.8247  1.5944
19955LIG    H1281315   3.054   3.477  16.266 -0.3758 -1.4840  0.8278
19955LIG    H1381316   3.009   3.423  16.105 -1.3760 -1.1004  1.0745
19955LIG    H1481317   3.469   3.407  16.056  1.1835 -0.2427  2.2256
19955LIG    H1581318   3.331   3.283  16.041 -1.2158  1.2525  0.2303
19955LIG    H1681319   3.490   3.234  16.109  0.3977 -0.5979 -1.5302
19955LIG    H1781320   3.139   2.824  16.336 -1.7640 -0.2342 -1.4608
19955LIG    H1881321   3.290   2.861  16.240 -0.0712 -2.1804 -0.3850
19955LIG    H1981322   3.127   2.908  16.179 -1.3106 -0.8912  1.4671
19955LIG    H2081323   3.685   2.947  16.761 -0.3885  0.0949  1.3619
19955LIG    H2181324   3.621   3.153  16.449  1.6744 -0.2939  1.8594
19955LIG    H2281325   3.507   2.972  16.960 -0.5880 -0.0835  1.1170
19955LIG    H2381326   3.525   2.766  16.609  1.7143  1.7833  0.8337
19955LIG    H2481327   3.290   2.930  16.589  1.8232 -1.8748 -0.0174
19955LIG    H2581328   3.661   3.044  16.225  0.3662 -1.2030 -0.9182
19955LIG    H2681329   3.327   2.874  17.086 -0.3904  1.1647  0.3908
19955LIG    H2781330   3.574   2.657  16.394 -1.0412 -0.4789 -2.8974
19955LIG    H2881331   3.103   2.831  16.723  1.2245 -4.6182  0.5305
19955LIG    H2981332   3.630   2.792  16.197 -0.4181  1.5649 -1.0430
19955LIG    H3081333   3.121   2.790  16.955  0.6059 -2.7030 -2.0057
   6.76127   6.76127  17.34059
